Loading crystal17/1.0.2/intel/19.0
  Loading requirement: intel/19.0 ompi/4.0.1/intel/19.0
 PROCESS            3  OF           24  WORKING
 PROCESS            5  OF           24  WORKING
 PROCESS            6  OF           24  WORKING
 PROCESS            7  OF           24  WORKING
 PROCESS            9  OF           24  WORKING
 PROCESS           10  OF           24  WORKING
 PROCESS           11  OF           24  WORKING
 PROCESS           16  OF           24  WORKING
 PROCESS           17  OF           24  WORKING
 PROCESS           18  OF           24  WORKING
 PROCESS           19  OF           24  WORKING
 PROCESS           20  OF           24  WORKING
 PROCESS           21  OF           24  WORKING
 PROCESS           22  OF           24  WORKING
 PROCESS           23  OF           24  WORKING
 PROCESS            0  OF           24  WORKING
 PROCESS            1  OF           24  WORKING
 PROCESS            2  OF           24  WORKING
 PROCESS            4  OF           24  WORKING
 PROCESS            8  OF           24  WORKING
 PROCESS           12  OF           24  WORKING
 PROCESS           13  OF           24  WORKING
 PROCESS           14  OF           24  WORKING
 PROCESS           15  OF           24  WORKING

         
 *******************************************************************************
 *                                                                             *
 *                               CRYSTAL17                                     *
 *                      public : 1.0.2 - March 1st, 2018                       *
 *                       HTTP://WWW.CRYSTAL.UNITO.IT                           *
 *                                                                             *
 *                              MAIN AUTHORS                                   *
 *                                                                             *
 *  R. DOVESI(1,11), V.R. SAUNDERS(2), C. ROETTI(1,11), R. ORLANDO(1,11),      *
 *  C.M. ZICOVICH-WILSON(1,3), F. PASCALE(4), B. CIVALLERI(1,11),              *
 *  K. DOLL(5), N.M. HARRISON(2,6), I.J. BUSH(7), Ph. D'ARCO(8),               *
 *  M. LLUNELL(9), M. CAUSA'(10), Y. NOEL(8), L. MASCHIO(1,11), A. ERBA(1,11)  *
 *  M. RE'RAT(14), S. CASASSA(1,11)                                            *
 *                                                                             *
 *        CONTRIBUTIONS TO THE CODE HAVE ALSO BEEN GIVEN BY                    *
 *                                                                             *
 *  M. FERRABONE(1,11), M. DE LA PIERRE(1,11), M. FERRERO(1,11),               *
 *  J. BAIMA(1,11), E. ALBANESE(1,11), M.F. PEINTINGER(12), R. BAST(13),       *
 *  B. KIRTMAN(15), V. LACIVITA(1,11), R. DEMICHELIS(1,16)                     *
 *  G. BRANDEBURG(17), S. SALUSTRO(1,11), G. SANSONE(1,11)                     *
 *  M.T. RUGGIERO(18)                                                          *
 *                                                                             *
 * (1) THEORETICAL CHEMISTRY GROUP - UNIVERSITA' DI TORINO - TORINO (ITALY)    *
 * (2) COMPUTATIONAL SCIENCE & ENGINEERING DEPARTMENT - STFC DARESBURY (UK)    *
 * (3) UNIVERSIDAD AUTONOMA DEL ESTADO DE MORELOS - CUERNAVACA (MEXICO)        *
 * (4) UNIVERSITE' DE LORRAINE - NANCY (FRANCE)                                *
 * (5) UNIVERSITAET STUTTGART- STUTTGART (GERMANY)                             *
 * (6) IMPERIAL COLLEGE - LONDON (UK)                                          *
 * (7) OXFORD E-RESEARCH CENTRE - OXFORD (UK)                                  *
 * (8) UPMC - SORBONNE UNIVERSITES - PARIS (FRANCE)                            *
 * (9) UNIVERSIDAD DE BARCELONA - BARCELONA (SPAIN)                            *
 *(10) UNIVERSITA' DI NAPOLI "FEDERICO II" - NAPOLI (ITALY)                    *
 *(11) NIS - NANOSTRUCTURED INTERFACES AND SURFACES - TORINO (ITALY)           *
 *(12) MPI FUER CHEMISCHE ENERGIEKONVERSION - MUELHEIM AN DER RUHR (GERMANY)   *
 *(13) UNIVERSITY OF TROMSO - TROMSO (NORWAY)                                  *
 *(14) UNIVERSITE' DE PAU ET DES PAYS DE L'ADOUR - PAU (FRANCE)                *
 *(15) UNIVERSITY OF CALIFORNIA SANTA BARBARA - SANTA BARBARA (USA)            *
 *(16) CURTIN UNIVERSITY - PERTH (AUSTRALIA)                                   *
 *(17) UNIVERSITY COLLEGE LONDON - LONDON (UK)                                 *
 *(18) CAMBRIDGE UNIVERSITY - CAMBRIDGE (UK)                                   *
 *                                                                             *
 *******************************************************************************
 EEEEEEEEEE STARTING  DATE 01 12 2023 TIME 21:37:19.1
 Z:\home\sanoj\Downloads\tmp_p\newconn.mol                                       

 CRYSTAL CALCULATION
 (INPUT ACCORDING TO THE INTERNATIONAL TABLES FOR X-RAY CRYSTALLOGRAPHY)
 CRYSTAL FAMILY                       :  TETRAGONAL  
 CRYSTAL CLASS  (GROTH - 1921)        :  TETRAGONAL DISPHENOIDAL              

 SPACE GROUP (NONCENTROSYMMETRIC)     :  I -4            

 LATTICE PARAMETERS  (ANGSTROMS AND DEGREES) - CONVENTIONAL CELL
        A           B           C        ALPHA        BETA       GAMMA
    10.72837    10.72837    12.37174    90.00000    90.00000    90.00000


 NUMBER OF IRREDUCIBLE ATOMS IN THE CONVENTIONAL CELL:   17

 INPUT COORDINATES

 ATOM AT. N.              COORDINATES
   1   1     9.753000000000E-02  5.322000000000E-01  3.473200000000E-01
   2   6     2.598100000000E-01  8.065500000000E-01  3.813400000000E-01
   3   6     2.503700000000E-01 -5.817000000000E-02  3.762200000000E-01
   4   6     1.598700000000E-01  7.241700000000E-01  3.645400000000E-01
   5   6     2.969100000000E-01  5.524300000000E-01  3.724000000000E-01
   6   6     3.739600000000E-01  7.453900000000E-01  3.975500000000E-01
   7   6     8.247200000000E-01  4.042600000000E-01  3.591600000000E-01
   8   7     3.391900000000E-01  1.704000000000E-02  3.329800000000E-01
   9   7     2.965300000000E-01  1.373800000000E-01  3.421100000000E-01
  10   7     1.548200000000E-01  1.381000000000E-02  4.110700000000E-01
  11   7     1.864400000000E-01  1.357600000000E-01  3.887600000000E-01
  12   7     3.945600000000E-01  6.244900000000E-01  3.923300000000E-01
  13   9     4.473000000000E-02  7.711700000000E-01  3.531000000000E-01
  14   9     4.735800000000E-01  8.164300000000E-01  4.221700000000E-01
  15   9     3.179000000000E-01  4.296800000000E-01  3.665900000000E-01
  16  30     0.000000000000E+00  5.000000000000E-01  7.500000000000E-01
  17  30     0.000000000000E+00  0.000000000000E+00  5.000000000000E-01

 *******************************************************************************

 << INFORMATION >>: FROM NOW ON, ALL COORDINATES REFER TO THE PRIMITIVE CELL

 *******************************************************************************

 LATTICE PARAMETERS  (ANGSTROMS AND DEGREES) - PRIMITIVE CELL
       A          B          C        ALPHA      BETA     GAMMA        VOLUME
    9.78846    9.78846    9.78846   113.53864 113.53864 101.61094    711.981480

 COORDINATES OF THE EQUIVALENT ATOMS (FRACTIONAL UNITS)

 N. ATOM EQUIV AT. N.          X                  Y                  Z

   1   1   1    1 H    -1.20480000000E-01  4.44850000000E-01 -3.70270000000E-01
   2   1   2    1 H    -1.84880000000E-01  2.49790000000E-01  3.70270000000E-01
   3   1   3    1 H    -4.44850000000E-01  1.84880000000E-01  4.34670000000E-01
   4   1   4    1 H    -2.49790000000E-01  1.20480000000E-01 -4.34670000000E-01

   5   2   1    6 C     1.87890000000E-01 -3.58850000000E-01  6.63600000000E-02
   6   2   2    6 C    -4.25210000000E-01  1.21530000000E-01 -6.63600000000E-02
   7   2   3    6 C     3.58850000000E-01  4.25210000000E-01 -4.53260000000E-01
   8   2   4    6 C    -1.21530000000E-01 -1.87890000000E-01  4.53260000000E-01

   9   3   1    6 C     3.18050000000E-01 -3.73410000000E-01  1.92200000000E-01
  10   3   2    6 C     4.34390000000E-01  1.25850000000E-01 -1.92200000000E-01
  11   3   3    6 C     3.73410000000E-01 -4.34390000000E-01 -3.08540000000E-01
  12   3   4    6 C    -1.25850000000E-01 -3.18050000000E-01  3.08540000000E-01

  13   4   1    6 C     8.87100000000E-02 -4.75590000000E-01 -1.15960000000E-01
  14   4   2    6 C    -3.59630000000E-01  2.04670000000E-01  1.15960000000E-01
  15   4   3    6 C     4.75590000000E-01  3.59630000000E-01 -4.35700000000E-01
  16   4   4    6 C    -2.04670000000E-01 -8.87100000000E-02  4.35700000000E-01

  17   5   1    6 C    -7.51700000000E-02 -3.30690000000E-01 -1.50660000000E-01
  18   5   2    6 C    -1.80030000000E-01  7.54900000000E-02  1.50660000000E-01
  19   5   3    6 C     3.30690000000E-01  1.80030000000E-01  2.55520000000E-01
  20   5   4    6 C    -7.54900000000E-02  7.51700000000E-02 -2.55520000000E-01

  21   6   1    6 C     1.42940000000E-01 -2.28490000000E-01  1.19350000000E-01
  22   6   2    6 C    -3.47840000000E-01  2.35900000000E-02 -1.19350000000E-01
  23   6   3    6 C     2.28490000000E-01  3.47840000000E-01  3.71430000000E-01
  24   6   4    6 C    -2.35900000000E-02 -1.42940000000E-01 -3.71430000000E-01

  25   7   1    6 C    -2.36580000000E-01  1.83880000000E-01  2.28980000000E-01
  26   7   2    6 C    -4.51000000000E-02 -4.65560000000E-01 -2.28980000000E-01
  27   7   3    6 C    -1.83880000000E-01  4.51000000000E-02 -4.20460000000E-01
  28   7   4    6 C     4.65560000000E-01  2.36580000000E-01  4.20460000000E-01

  29   8   1    7 N     3.50020000000E-01 -3.27830000000E-01  3.56230000000E-01
  30   8   2    7 N     3.15940000000E-01 -6.21000000000E-03 -3.56230000000E-01
  31   8   3    7 N     3.27830000000E-01 -3.15940000000E-01 -3.22150000000E-01
  32   8   4    7 N     6.21000000000E-03 -3.50020000000E-01  3.22150000000E-01

  33   9   1    7 N     4.79490000000E-01 -3.61360000000E-01  4.33910000000E-01
  34   9   2    7 N     2.04730000000E-01  4.55800000000E-02 -4.33910000000E-01
  35   9   3    7 N     3.61360000000E-01 -2.04730000000E-01 -1.59150000000E-01
  36   9   4    7 N    -4.55800000000E-02 -4.79490000000E-01  1.59150000000E-01

  37  10   1    7 N     4.24880000000E-01 -4.34110000000E-01  1.68630000000E-01
  38  10   2    7 N     3.97260000000E-01  2.56250000000E-01 -1.68630000000E-01
  39  10   3    7 N     4.34110000000E-01 -3.97260000000E-01 -1.41010000000E-01
  40  10   4    7 N    -2.56250000000E-01 -4.24880000000E-01  1.41010000000E-01

  41  11   1    7 N    -4.75480000000E-01 -4.24800000000E-01  3.22200000000E-01
  42  11   2    7 N     2.53000000000E-01  2.02320000000E-01 -3.22200000000E-01
  43  11   3    7 N     4.24800000000E-01 -2.53000000000E-01 -5.06800000000E-02
  44  11   4    7 N    -2.02320000000E-01  4.75480000000E-01  5.06800000000E-02

  45  12   1    7 N     1.68200000000E-02 -2.13110000000E-01  1.90500000000E-02
  46  12   2    7 N    -2.32160000000E-01 -2.23000000000E-03 -1.90500000000E-02
  47  12   3    7 N     2.13110000000E-01  2.32160000000E-01  2.29930000000E-01
  48  12   4    7 N     2.23000000000E-03 -1.68200000000E-02 -2.29930000000E-01

  49  13   1    9 F     1.24270000000E-01  3.97830000000E-01 -1.84100000000E-01
  50  13   2    9 F    -4.18070000000E-01  3.08370000000E-01  1.84100000000E-01
  51  13   3    9 F    -3.97830000000E-01  4.18070000000E-01 -2.73560000000E-01
  52  13   4    9 F    -3.08370000000E-01 -1.24270000000E-01  2.73560000000E-01

  53  14   1    9 F     2.38600000000E-01 -1.04250000000E-01  2.90010000000E-01
  54  14   2    9 F    -3.94260000000E-01 -5.14100000000E-02 -2.90010000000E-01
  55  14   3    9 F     1.04250000000E-01  3.94260000000E-01  3.42850000000E-01
  56  14   4    9 F     5.14100000000E-02 -2.38600000000E-01 -3.42850000000E-01

  57  15   1    9 F    -2.03730000000E-01 -3.15510000000E-01 -2.52420000000E-01
  58  15   2    9 F    -6.30900000000E-02  4.86900000000E-02  2.52420000000E-01
  59  15   3    9 F     3.15510000000E-01  6.30900000000E-02  1.11780000000E-01
  60  15   4    9 F    -4.86900000000E-02  2.03730000000E-01 -1.11780000000E-01

  61  16   1   30 ZN    2.50000000000E-01 -2.50000000000E-01 -5.00000000000E-01

  62  17   1   30 ZN   -5.00000000000E-01 -5.00000000000E-01  0.00000000000E+00

 NUMBER OF SYMMETRY OPERATORS         :    4
 *******************************************************************************
 * GEOMETRY EDITING - INPUT COORDINATES ARE GIVEN IN ANGSTROM         
 *******************************************************************************

 GEOMETRY NOW FULLY CONSISTENT WITH THE GROUP

 GCALCO - MAX INDICES DIRECT LATTICE VECTOR    14    14    16
 NO.OF VECTORS CREATED 6999 STARS  486 RMAX   200.81054 BOHR

 GEOMETRY FOR WAVE FUNCTION - DIMENSIONALITY OF THE SYSTEM    3
 (NON PERIODIC DIRECTION: LATTICE PARAMETER FORMALLY SET TO 500)
 *******************************************************************************
 LATTICE PARAMETERS (ANGSTROMS AND DEGREES) - BOHR = 0.5291772083 ANGSTROM
 PRIMITIVE CELL - CENTRING CODE 6/0 VOLUME=   711.981480 - DENSITY  2.164 g/cm^3
         A              B              C           ALPHA      BETA       GAMMA 
     9.78846300     9.78846300     9.78846300   113.538643 113.538643 101.610944
 *******************************************************************************
 ATOMS IN THE ASYMMETRIC UNIT   17 - ATOMS IN THE UNIT CELL:   62
     ATOM                 X/A                 Y/B                 Z/C    
 *******************************************************************************
      1 T   1 H    -1.204800000000E-01  4.448500000000E-01 -3.702700000000E-01
      2 F   1 H    -1.848800000000E-01  2.497900000000E-01  3.702700000000E-01
      3 F   1 H    -4.448500000000E-01  1.848800000000E-01  4.346700000000E-01
      4 F   1 H    -2.497900000000E-01  1.204800000000E-01 -4.346700000000E-01
      5 T   6 C     1.878900000000E-01 -3.588500000000E-01  6.636000000000E-02
      6 F   6 C    -4.252100000000E-01  1.215300000000E-01 -6.636000000000E-02
      7 F   6 C     3.588500000000E-01  4.252100000000E-01 -4.532600000000E-01
      8 F   6 C    -1.215300000000E-01 -1.878900000000E-01  4.532600000000E-01
      9 T   6 C     3.180500000000E-01 -3.734100000000E-01  1.922000000000E-01
     10 F   6 C     4.343900000000E-01  1.258500000000E-01 -1.922000000000E-01
     11 F   6 C     3.734100000000E-01 -4.343900000000E-01 -3.085400000000E-01
     12 F   6 C    -1.258500000000E-01 -3.180500000000E-01  3.085400000000E-01
     13 T   6 C     8.871000000000E-02 -4.755900000000E-01 -1.159600000000E-01
     14 F   6 C    -3.596300000000E-01  2.046700000000E-01  1.159600000000E-01
     15 F   6 C     4.755900000000E-01  3.596300000000E-01 -4.357000000000E-01
     16 F   6 C    -2.046700000000E-01 -8.871000000000E-02  4.357000000000E-01
     17 T   6 C    -7.517000000000E-02 -3.306900000000E-01 -1.506600000000E-01
     18 F   6 C    -1.800300000000E-01  7.549000000000E-02  1.506600000000E-01
     19 F   6 C     3.306900000000E-01  1.800300000000E-01  2.555200000000E-01
     20 F   6 C    -7.549000000000E-02  7.517000000000E-02 -2.555200000000E-01
     21 T   6 C     1.429400000000E-01 -2.284900000000E-01  1.193500000000E-01
     22 F   6 C    -3.478400000000E-01  2.359000000000E-02 -1.193500000000E-01
     23 F   6 C     2.284900000000E-01  3.478400000000E-01  3.714300000000E-01
     24 F   6 C    -2.359000000000E-02 -1.429400000000E-01 -3.714300000000E-01
     25 T   6 C    -2.365800000000E-01  1.838800000000E-01  2.289800000000E-01
     26 F   6 C    -4.510000000000E-02 -4.655600000000E-01 -2.289800000000E-01
     27 F   6 C    -1.838800000000E-01  4.510000000000E-02 -4.204600000000E-01
     28 F   6 C     4.655600000000E-01  2.365800000000E-01  4.204600000000E-01
     29 T   7 N     3.500200000000E-01 -3.278300000000E-01  3.562300000000E-01
     30 F   7 N     3.159400000000E-01 -6.210000000000E-03 -3.562300000000E-01
     31 F   7 N     3.278300000000E-01 -3.159400000000E-01 -3.221500000000E-01
     32 F   7 N     6.210000000000E-03 -3.500200000000E-01  3.221500000000E-01
     33 T   7 N     4.794900000000E-01 -3.613600000000E-01  4.339100000000E-01
     34 F   7 N     2.047300000000E-01  4.558000000000E-02 -4.339100000000E-01
     35 F   7 N     3.613600000000E-01 -2.047300000000E-01 -1.591500000000E-01
     36 F   7 N    -4.558000000000E-02 -4.794900000000E-01  1.591500000000E-01
     37 T   7 N     4.248800000000E-01 -4.341100000000E-01  1.686300000000E-01
     38 F   7 N     3.972600000000E-01  2.562500000000E-01 -1.686300000000E-01
     39 F   7 N     4.341100000000E-01 -3.972600000000E-01 -1.410100000000E-01
     40 F   7 N    -2.562500000000E-01 -4.248800000000E-01  1.410100000000E-01
     41 T   7 N    -4.754800000000E-01 -4.248000000000E-01  3.222000000000E-01
     42 F   7 N     2.530000000000E-01  2.023200000000E-01 -3.222000000000E-01
     43 F   7 N     4.248000000000E-01 -2.530000000000E-01 -5.068000000000E-02
     44 F   7 N    -2.023200000000E-01  4.754800000000E-01  5.068000000000E-02
     45 T   7 N     1.682000000000E-02 -2.131100000000E-01  1.905000000000E-02
     46 F   7 N    -2.321600000000E-01 -2.230000000000E-03 -1.905000000000E-02
     47 F   7 N     2.131100000000E-01  2.321600000000E-01  2.299300000000E-01
     48 F   7 N     2.230000000000E-03 -1.682000000000E-02 -2.299300000000E-01
     49 T   9 F     1.242700000000E-01  3.978300000000E-01 -1.841000000000E-01
     50 F   9 F    -4.180700000000E-01  3.083700000000E-01  1.841000000000E-01
     51 F   9 F    -3.978300000000E-01  4.180700000000E-01 -2.735600000000E-01
     52 F   9 F    -3.083700000000E-01 -1.242700000000E-01  2.735600000000E-01
     53 T   9 F     2.386000000000E-01 -1.042500000000E-01  2.900100000000E-01
     54 F   9 F    -3.942600000000E-01 -5.141000000000E-02 -2.900100000000E-01
     55 F   9 F     1.042500000000E-01  3.942600000000E-01  3.428500000000E-01
     56 F   9 F     5.141000000000E-02 -2.386000000000E-01 -3.428500000000E-01
     57 T   9 F    -2.037300000000E-01 -3.155100000000E-01 -2.524200000000E-01
     58 F   9 F    -6.309000000000E-02  4.869000000000E-02  2.524200000000E-01
     59 F   9 F     3.155100000000E-01  6.309000000000E-02  1.117800000000E-01
     60 F   9 F    -4.869000000000E-02  2.037300000000E-01 -1.117800000000E-01
     61 T  30 ZN    2.500000000000E-01 -2.500000000000E-01 -5.000000000000E-01
     62 T  30 ZN   -5.000000000000E-01 -5.000000000000E-01  0.000000000000E+00

 TRANSFORMATION MATRIX PRIMITIVE-CRYSTALLOGRAPHIC CELL
  0.0000  1.0000  1.0000  1.0000  0.0000  1.0000  1.0000  1.0000  0.0000

 *******************************************************************************
 CRYSTALLOGRAPHIC CELL (VOLUME=       1423.96295901)
         A              B              C           ALPHA      BETA       GAMMA 
    10.72837437    10.72837437    12.37174193    90.000000  90.000000  90.000000

 COORDINATES IN THE CRYSTALLOGRAPHIC CELL
     ATOM                 X/A                 Y/B                 Z/C    
 *******************************************************************************
      1 T   1 H    -4.024700000000E-01  3.220000000000E-02 -1.526800000000E-01
      2 F   1 H     4.024700000000E-01 -3.220000000000E-02 -1.526800000000E-01
      3 F   1 H     3.220000000000E-02  4.024700000000E-01  1.526800000000E-01
      4 F   1 H    -3.220000000000E-02 -4.024700000000E-01  1.526800000000E-01
      5 T   6 C    -2.401900000000E-01  3.065500000000E-01 -1.186600000000E-01
      6 F   6 C     2.401900000000E-01 -3.065500000000E-01 -1.186600000000E-01
      7 F   6 C     3.065500000000E-01  2.401900000000E-01  1.186600000000E-01
      8 F   6 C    -3.065500000000E-01 -2.401900000000E-01  1.186600000000E-01
      9 T   6 C     2.503700000000E-01 -5.817000000000E-02  3.762200000000E-01
     10 F   6 C    -2.503700000000E-01  5.817000000000E-02  3.762200000000E-01
     11 F   6 C    -5.817000000000E-02 -2.503700000000E-01 -3.762200000000E-01
     12 F   6 C     5.817000000000E-02  2.503700000000E-01 -3.762200000000E-01
     13 T   6 C    -3.401300000000E-01  2.241700000000E-01 -1.354600000000E-01
     14 F   6 C     3.401300000000E-01 -2.241700000000E-01 -1.354600000000E-01
     15 F   6 C     2.241700000000E-01  3.401300000000E-01  1.354600000000E-01
     16 F   6 C    -2.241700000000E-01 -3.401300000000E-01  1.354600000000E-01
     17 T   6 C    -2.030900000000E-01  5.243000000000E-02 -1.276000000000E-01
     18 F   6 C     2.030900000000E-01 -5.243000000000E-02 -1.276000000000E-01
     19 F   6 C     5.243000000000E-02  2.030900000000E-01  1.276000000000E-01
     20 F   6 C    -5.243000000000E-02 -2.030900000000E-01  1.276000000000E-01
     21 T   6 C    -1.260400000000E-01  2.453900000000E-01 -1.024500000000E-01
     22 F   6 C     1.260400000000E-01 -2.453900000000E-01 -1.024500000000E-01
     23 F   6 C     2.453900000000E-01  1.260400000000E-01  1.024500000000E-01
     24 F   6 C    -2.453900000000E-01 -1.260400000000E-01  1.024500000000E-01
     25 T   6 C     3.247200000000E-01 -9.574000000000E-02 -1.408400000000E-01
     26 F   6 C    -3.247200000000E-01  9.574000000000E-02 -1.408400000000E-01
     27 F   6 C    -9.574000000000E-02 -3.247200000000E-01  1.408400000000E-01
     28 F   6 C     9.574000000000E-02  3.247200000000E-01  1.408400000000E-01
     29 T   7 N     3.391900000000E-01  1.704000000000E-02  3.329800000000E-01
     30 F   7 N    -3.391900000000E-01 -1.704000000000E-02  3.329800000000E-01
     31 F   7 N     1.704000000000E-02 -3.391900000000E-01 -3.329800000000E-01
     32 F   7 N    -1.704000000000E-02  3.391900000000E-01 -3.329800000000E-01
     33 T   7 N    -2.034700000000E-01 -3.626200000000E-01 -1.578900000000E-01
     34 F   7 N     2.034700000000E-01  3.626200000000E-01 -1.578900000000E-01
     35 F   7 N    -3.626200000000E-01  2.034700000000E-01  1.578900000000E-01
     36 F   7 N     3.626200000000E-01 -2.034700000000E-01  1.578900000000E-01
     37 T   7 N     1.548200000000E-01  1.381000000000E-02  4.110700000000E-01
     38 F   7 N    -1.548200000000E-01 -1.381000000000E-02  4.110700000000E-01
     39 F   7 N     1.381000000000E-02 -1.548200000000E-01 -4.110700000000E-01
     40 F   7 N    -1.381000000000E-02  1.548200000000E-01 -4.110700000000E-01
     41 T   7 N    -3.135600000000E-01 -3.642400000000E-01 -1.112400000000E-01
     42 F   7 N     3.135600000000E-01  3.642400000000E-01 -1.112400000000E-01
     43 F   7 N    -3.642400000000E-01  3.135600000000E-01  1.112400000000E-01
     44 F   7 N     3.642400000000E-01 -3.135600000000E-01  1.112400000000E-01
     45 T   7 N    -1.054400000000E-01  1.244900000000E-01 -1.076700000000E-01
     46 F   7 N     1.054400000000E-01 -1.244900000000E-01 -1.076700000000E-01
     47 F   7 N     1.244900000000E-01  1.054400000000E-01  1.076700000000E-01
     48 F   7 N    -1.244900000000E-01 -1.054400000000E-01  1.076700000000E-01
     49 T   9 F     4.473000000000E-02 -2.288300000000E-01  3.531000000000E-01
     50 F   9 F    -4.473000000000E-02  2.288300000000E-01  3.531000000000E-01
     51 F   9 F    -2.288300000000E-01 -4.473000000000E-02 -3.531000000000E-01
     52 F   9 F     2.288300000000E-01  4.473000000000E-02 -3.531000000000E-01
     53 T   9 F    -2.642000000000E-02  3.164300000000E-01 -7.783000000000E-02
     54 F   9 F     2.642000000000E-02 -3.164300000000E-01 -7.783000000000E-02
     55 F   9 F     3.164300000000E-01  2.642000000000E-02  7.783000000000E-02
     56 F   9 F    -3.164300000000E-01 -2.642000000000E-02  7.783000000000E-02
     57 T   9 F    -1.821000000000E-01 -7.032000000000E-02 -1.334100000000E-01
     58 F   9 F     1.821000000000E-01  7.032000000000E-02 -1.334100000000E-01
     59 F   9 F    -7.032000000000E-02  1.821000000000E-01  1.334100000000E-01
     60 F   9 F     7.032000000000E-02 -1.821000000000E-01  1.334100000000E-01
     61 T  30 ZN   -5.000000000000E-01 -8.761882468075E-17  2.500000000000E-01
     62 T  30 ZN    0.000000000000E+00  0.000000000000E+00 -5.000000000000E-01

 T = ATOM BELONGING TO THE ASYMMETRIC UNIT

 ****    4 SYMMOPS - TRANSLATORS IN FRACTIONAL UNITS
 **** MATRICES AND TRANSLATORS IN THE CRYSTALLOGRAPHIC REFERENCE FRAME
   V INV                    ROTATION MATRICES                   TRANSLATORS
   1   1  1.00  0.00  0.00  0.00  1.00  0.00  0.00  0.00  1.00  0.00  0.00  0.00
   2   2  0.00  1.00 -1.00  1.00  0.00 -1.00  0.00  0.00 -1.00  0.00  0.00  0.00
   3   4  0.00 -1.00  0.00  0.00 -1.00  1.00  1.00 -1.00  0.00  0.00  0.00  0.00
   4   3 -1.00  0.00  1.00 -1.00  0.00  0.00 -1.00  1.00  0.00  0.00  0.00  0.00

 DIRECT LATTICE VECTORS CARTESIAN COMPONENTS (ANGSTROM)
          X                    Y                    Z
  -0.536418718605E+01   0.536418718605E+01   0.618587096560E+01
   0.536418718605E+01  -0.536418718605E+01   0.618587096560E+01
   0.536418718605E+01   0.536418718605E+01  -0.618587096560E+01


 CARTESIAN COORDINATES - PRIMITIVE CELL
 *******************************************************************************
 *      ATOM          X(ANGSTROM)         Y(ANGSTROM)         Z(ANGSTROM)
 *******************************************************************************
    1     1 H    -4.317848833539E+00  3.454536547816E-01 -1.888917558056E+00
    2     1 H     4.317848833539E+00 -3.454536547816E-01 -1.888917558056E+00
    3     1 H     3.454536547816E-01  4.317848833539E+00  1.888917558056E+00
    4     1 H    -3.454536547816E-01 -4.317848833539E+00  1.888917558056E+00
    5     6 C    -2.576848240435E+00  3.288783163767E+00 -1.468030897556E+00
    6     6 C     2.576848240435E+00 -3.288783163767E+00 -1.468030897556E+00
    7     6 C     3.288783163767E+00  2.576848240435E+00  1.468030897556E+00
    8     6 C    -3.288783163767E+00 -2.576848240435E+00  1.468030897556E+00
    9     6 C     2.686063091543E+00 -6.240695372251E-01  4.654496749356E+00
   10     6 C    -2.686063091543E+00  6.240695372251E-01  4.654496749356E+00
   11     6 C    -6.240695372251E-01 -2.686063091543E+00 -4.654496749356E+00
   12     6 C     6.240695372251E-01  2.686063091543E+00 -4.654496749356E+00
   13     6 C    -3.649041975182E+00  2.404979682994E+00 -1.675876162000E+00
   14     6 C     3.649041975182E+00 -2.404979682994E+00 -1.675876162000E+00
   15     6 C     2.404979682994E+00  3.649041975182E+00  1.675876162000E+00
   16     6 C    -2.404979682994E+00 -3.649041975182E+00  1.675876162000E+00
   17     6 C    -2.178825551230E+00  5.624886683292E-01 -1.578634270421E+00
   18     6 C     2.178825551230E+00 -5.624886683292E-01 -1.578634270421E+00
   19     6 C     5.624886683292E-01  2.178825551230E+00  1.578634270421E+00
   20     6 C    -5.624886683292E-01 -2.178825551230E+00  1.578634270421E+00
   21     6 C    -1.352204305859E+00  2.632635787170E+00 -1.267484960851E+00
   22     6 C     1.352204305859E+00 -2.632635787170E+00 -1.267484960851E+00
   23     6 C     2.632635787170E+00  1.352204305859E+00  1.267484960851E+00
   24     6 C    -2.632635787170E+00 -1.352204305859E+00  1.267484960851E+00
   25     6 C     3.483717726108E+00 -1.027134562385E+00 -1.742436133590E+00
   26     6 C    -3.483717726108E+00  1.027134562385E+00 -1.742436133590E+00
   27     6 C    -1.027134562385E+00 -3.483717726108E+00  1.742436133590E+00
   28     6 C     1.027134562385E+00  3.483717726108E+00  1.742436133590E+00
   29     7 N     3.638957303273E+00  1.828114993006E-01  4.119542628251E+00
   30     7 N    -3.638957303273E+00 -1.828114993006E-01  4.119542628251E+00
   31     7 N     1.828114993006E-01 -3.638957303273E+00 -4.119542628251E+00
   32     7 N    -1.828114993006E-01  3.638957303273E+00 -4.119542628251E+00
   33     7 N    -2.182902333491E+00 -3.890323114811E+00 -1.953374333517E+00
   34     7 N     2.182902333491E+00  3.890323114811E+00 -1.953374333517E+00
   35     7 N    -3.890323114811E+00  2.182902333491E+00  1.953374333517E+00
   36     7 N     3.890323114811E+00 -2.182902333491E+00  1.953374333517E+00
   37     7 N     1.660966920289E+00  1.481588500787E-01  5.085651955658E+00
   38     7 N    -1.660966920289E+00 -1.481588500787E-01  5.085651955658E+00
   39     7 N     1.481588500787E-01 -1.660966920289E+00 -5.085651955658E+00
   40     7 N    -1.481588500787E-01  1.660966920289E+00 -5.085651955658E+00
   41     7 N    -3.363989068116E+00 -3.907703081294E+00 -1.376232572427E+00
   42     7 N     3.363989068116E+00  3.907703081294E+00 -1.376232572427E+00
   43     7 N    -3.907703081294E+00  3.363989068116E+00  1.376232572427E+00
   44     7 N     3.907703081294E+00 -3.363989068116E+00  1.376232572427E+00
   45     7 N    -1.131199793794E+00  1.335575325583E+00 -1.332065453732E+00
   46     7 N     1.131199793794E+00 -1.335575325583E+00 -1.332065453732E+00
   47     7 N     1.335575325583E+00  1.131199793794E+00  1.332065453732E+00
   48     7 N    -1.335575325583E+00 -1.131199793794E+00  1.332065453732E+00
   49     9 F     4.798801856640E-01 -2.454973907568E+00  4.368462075907E+00
   50     9 F    -4.798801856640E-01  2.454973907568E+00  4.368462075907E+00
   51     9 F    -2.454973907568E+00 -4.798801856640E-01 -4.368462075907E+00
   52     9 F     2.454973907568E+00  4.798801856640E-01 -4.368462075907E+00
   53     9 F    -2.834436509109E-01  3.394779502564E+00 -9.628926745053E-01
   54     9 F     2.834436509109E-01 -3.394779502564E+00 -9.628926745053E-01
   55     9 F     3.394779502564E+00  2.834436509109E-01  9.628926745053E-01
   56     9 F    -3.394779502564E+00 -2.834436509109E-01  9.628926745053E-01
   57     9 F    -1.953636973159E+00 -7.544192858461E-01 -1.650514091041E+00
   58     9 F     1.953636973159E+00  7.544192858461E-01 -1.650514091041E+00
   59     9 F    -7.544192858461E-01  1.953636973159E+00  1.650514091041E+00
   60     9 F     7.544192858461E-01 -1.953636973159E+00  1.650514091041E+00
   61    30 ZN    5.364187186050E+00 -9.400075532184E-16 -9.278806448400E+00
   62    30 ZN    0.000000000000E+00  0.000000000000E+00  6.185870965600E+00

 *******************************************************************************
 STARTING BASIS SET HANDLING 
 *******************************************************************************

 Loading internal basis set: POB-DZVPP           

 Please cite in your publication:
 Peintinger, M. F., Oliveira, D. V. and Bredow, T. (2013), Generally applicable 
 solid-state Gaussian basis sets, in preparation                                
                                                                                
                    

 *******************************************************************************
 LOCAL ATOMIC FUNCTIONS BASIS SET
 *******************************************************************************
   ATOM   X(AU)   Y(AU)   Z(AU)  N. TYPE  EXPONENT  S COEF   P COEF   D/F/G COEF
 *******************************************************************************
   1 H   -8.160   0.653  -3.570
                                  1 S  
                                         2.263E+01 1.441E-02 0.000E+00 0.000E+00
                                         3.236E+00 1.072E-01 0.000E+00 0.000E+00
                                         7.304E-01 3.846E-01 0.000E+00 0.000E+00
                                  2 S  
                                         1.417E-01 1.000E+00 0.000E+00 0.000E+00
                           3-     5 P  
                                         3.944E-01 0.000E+00 1.000E+00 0.000E+00
                           6-     8 P  
                                         1.006E-01 0.000E+00 1.000E+00 0.000E+00
   2 H    8.160  -0.653  -3.570
   3 H    0.653   8.160   3.570
   4 H   -0.653  -8.160   3.570
   5 C   -4.870   6.215  -2.774
                                 33 S  
                                         1.238E+03 5.457E-03 0.000E+00 0.000E+00
                                         1.863E+02 4.064E-02 0.000E+00 0.000E+00
                                         4.225E+01 1.803E-01 0.000E+00 0.000E+00
                                         1.168E+01 4.632E-01 0.000E+00 0.000E+00
                                         3.593E+00 4.409E-01 0.000E+00 0.000E+00
                                 34 S  
                                         5.281E+00 1.000E+00 0.000E+00 0.000E+00
                                 35 S  
                                         4.447E-01 1.000E+00 0.000E+00 0.000E+00
                          36-    38 P  
                                         9.468E+00 0.000E+00 3.839E-02 0.000E+00
                                         2.010E+00 0.000E+00 2.112E-01 0.000E+00
                                         5.477E-01 0.000E+00 5.133E-01 0.000E+00
                          39-    41 P  
                                         1.604E-01 0.000E+00 1.000E+00 0.000E+00
                          42-    46 D  
                                         6.070E-01 0.000E+00 0.000E+00 1.000E+00
                          47-    51 D  
                                         2.939E-01 0.000E+00 0.000E+00 1.000E+00
   6 C    4.870  -6.215  -2.774
   7 C    6.215   4.870   2.774
   8 C   -6.215  -4.870   2.774
   9 C    5.076  -1.179   8.796
  10 C   -5.076   1.179   8.796
  11 C   -1.179  -5.076  -8.796
  12 C    1.179   5.076  -8.796
  13 C   -6.896   4.545  -3.167
  14 C    6.896  -4.545  -3.167
  15 C    4.545   6.896   3.167
  16 C   -4.545  -6.896   3.167
  17 C   -4.117   1.063  -2.983
  18 C    4.117  -1.063  -2.983
  19 C    1.063   4.117   2.983
  20 C   -1.063  -4.117   2.983
  21 C   -2.555   4.975  -2.395
  22 C    2.555  -4.975  -2.395
  23 C    4.975   2.555   2.395
  24 C   -4.975  -2.555   2.395
  25 C    6.583  -1.941  -3.293
  26 C   -6.583   1.941  -3.293
  27 C   -1.941  -6.583   3.293
  28 C    1.941   6.583   3.293
  29 N    6.877   0.345   7.785
                                489 S  
                                         1.713E+03-5.393E-03 0.000E+00 0.000E+00
                                         2.576E+02-4.022E-02 0.000E+00 0.000E+00
                                         5.846E+01-1.793E-01 0.000E+00 0.000E+00
                                         1.620E+01-4.638E-01 0.000E+00 0.000E+00
                                         5.005E+00-4.417E-01 0.000E+00 0.000E+00
                                490 S  
                                         6.217E-01 1.000E+00 0.000E+00 0.000E+00
                                491 S  
                                         2.921E-01 1.000E+00 0.000E+00 0.000E+00
                         492-   494 P  
                                         1.357E+01 0.000E+00-4.007E-02 0.000E+00
                                         2.926E+00 0.000E+00-2.181E-01 0.000E+00
                                         7.993E-01 0.000E+00-5.129E-01 0.000E+00
                         495-   497 P  
                                         2.244E-01 0.000E+00 1.000E+00 0.000E+00
                         498-   502 D  
                                         3.118E-01 0.000E+00 0.000E+00 1.000E+00
  30 N   -6.877  -0.345   7.785
  31 N    0.345  -6.877  -7.785
  32 N   -0.345   6.877  -7.785
  33 N   -4.125  -7.352  -3.691
  34 N    4.125   7.352  -3.691
  35 N   -7.352   4.125   3.691
  36 N    7.352  -4.125   3.691
  37 N    3.139   0.280   9.610
  38 N   -3.139  -0.280   9.610
  39 N    0.280  -3.139  -9.610
  40 N   -0.280   3.139  -9.610
  41 N   -6.357  -7.384  -2.601
  42 N    6.357   7.384  -2.601
  43 N   -7.384   6.357   2.601
  44 N    7.384  -6.357   2.601
  45 N   -2.138   2.524  -2.517
  46 N    2.138  -2.524  -2.517
  47 N    2.524   2.138   2.517
  48 N   -2.524  -2.138   2.517
  49 F    0.907  -4.639   8.255
                                769 S  
                                         2.895E+03-5.341E-03 0.000E+00 0.000E+00
                                         4.354E+02-3.990E-02 0.000E+00 0.000E+00
                                         9.884E+01-1.791E-01 0.000E+00 0.000E+00
                                         2.749E+01-4.676E-01 0.000E+00 0.000E+00
                                         8.541E+00-4.465E-01 0.000E+00 0.000E+00
                                770 S  
                                         1.123E+00 1.000E+00 0.000E+00 0.000E+00
                                771 S  
                                         3.743E-01 1.000E+00 0.000E+00 0.000E+00
                         772-   774 P  
                                         2.270E+01 0.000E+00-4.521E-02 0.000E+00
                                         4.987E+00 0.000E+00-2.375E-01 0.000E+00
                                         1.349E+00 0.000E+00-5.129E-01 0.000E+00
                         775-   777 P  
                                         3.474E-01 0.000E+00 1.000E+00 0.000E+00
                         778-   782 D  
                                         9.203E-01 0.000E+00 0.000E+00 1.000E+00
                         783-   787 D  
                                         3.977E-01 0.000E+00 0.000E+00 1.000E+00
  50 F   -0.907   4.639   8.255
  51 F   -4.639  -0.907  -8.255
  52 F    4.639   0.907  -8.255
  53 F   -0.536   6.415  -1.820
  54 F    0.536  -6.415  -1.820
  55 F    6.415   0.536   1.820
  56 F   -6.415  -0.536   1.820
  57 F   -3.692  -1.426  -3.119
  58 F    3.692   1.426  -3.119
  59 F   -1.426   3.692   3.119
  60 F    1.426  -3.692   3.119
  61 ZN  10.137  -0.000 -17.534
                                997 S  
                                         8.200E+04 1.421E-03 0.000E+00 0.000E+00
                                         1.231E+04 1.089E-02 0.000E+00 0.000E+00
                                         2.801E+03 5.406E-02 0.000E+00 0.000E+00
                                         7.910E+02 1.885E-01 0.000E+00 0.000E+00
                                         2.576E+02 3.835E-01 0.000E+00 0.000E+00
                                         8.881E+01 2.972E-01 0.000E+00 0.000E+00
                                998 S  
                                         1.719E+02-1.105E-01 0.000E+00 0.000E+00
                                         2.030E+01 6.461E-01 0.000E+00 0.000E+00
                                         8.346E+00 4.422E-01 0.000E+00 0.000E+00
                                999 S  
                                         1.485E+01-2.271E-01 0.000E+00 0.000E+00
                                         2.450E+00 7.243E-01 0.000E+00 0.000E+00
                                         9.985E-01 4.484E-01 0.000E+00 0.000E+00
                               1000 S  
                                         1.493E+00 1.000E+00 0.000E+00 0.000E+00
                               1001 S  
                                         1.830E-01 1.000E+00 0.000E+00 0.000E+00
                        1002-  1004 P  
                                         1.072E+03 0.000E+00 9.277E-03 0.000E+00
                                         2.527E+02 0.000E+00 6.954E-02 0.000E+00
                                         8.010E+01 0.000E+00 2.716E-01 0.000E+00
                                         2.890E+01 0.000E+00 5.340E-01 0.000E+00
                                         1.077E+01 0.000E+00 3.450E-01 0.000E+00
                        1005-  1007 P  
                                         5.645E+00 0.000E+00 3.413E-01 0.000E+00
                                         2.168E+00 0.000E+00 5.639E-01 0.000E+00
                                         8.054E-01 0.000E+00 2.368E-01 0.000E+00
                        1008-  1010 P  
                                         2.721E-01 0.000E+00 1.000E+00 0.000E+00
                        1011-  1015 D  
                                         5.609E+01 0.000E+00 0.000E+00 2.959E-02
                                         1.575E+01 0.000E+00 0.000E+00 1.587E-01
                                         5.312E+00 0.000E+00 0.000E+00 3.798E-01
                                         1.774E+00 0.000E+00 0.000E+00 4.690E-01
                        1016-  1020 D  
                                         5.073E-01 0.000E+00 0.000E+00 1.000E+00
                        1021-  1027 F  
                                         2.814E+00 0.000E+00 0.000E+00 1.000E+00
                        1028-  1034 F  
                                         1.300E+00 0.000E+00 0.000E+00 1.000E+00
  62 ZN   0.000   0.000  11.690

 *******************************************************************************
 FINISHED BASIS SET HANDLING 
 *******************************************************************************

 INFORMATION **** SET_MPP **** PCRYSTAL CALCULATION
 INFORMATION **** READM2 **** NEW DEFAULT: FOCK/KS MATRIX MIXING SET TO 30 %
 INFORMATION **** READM2 **** NEW DEFAULT: FULL DIRECT SCF MODE
 INFORMATION **** READM2 **** NEW DEFAULT: COULOMB BIPOLAR BUFFER SET TO 32 Mb
 INFORMATION **** READM2 **** NEW DEFAULT: EXCHANGE BIPOLAR BUFFER SET TO 32 Mb

 *******************************************************************************
 NEW DEFAULT: DFT INTEGRATION GRID INCREASED TO XLGRID
 NEW DEFAULT: DIIS ACCELERATOR ACTIVE
 USE KEYWORD NODIIS TO TURN IT OFF
 *******************************************************************************

 INFORMATION **** DFTD3_INPUT **** PERFORM DISPERSION CORRECTION DFT-D3(BJ) IN THE BECKE-JOHNSON DAMPING SCHEME

 PLEASE CITE:
 (1) DFT-D3 Reference
  S. Grimme, J. Antony, S. Ehrlich, and H. Krieg, J. Chem. Phys. 132 (2010), 154104
 (2) BJ-Damping Reference
  S. Grimme, S. Ehrlich, and L. Goerigk, J. Comput. Chem. 32 (2011), 1456-1465
 (3) General DFT-D Review
  S. Grimme, A. Hansen, J. G. Brandenburg, and C. Bannwarth,
  Chem. Rev. 116 (2016), 5105-5154

 INFORMATION **** TOLINTEG **** COULOMB AND EXCHANGE SERIES TOLERANCES MODIFIED
 INFORMATION **** BIPOSIZE **** COULOMB BIPOLAR BUFFER SET TO   100000000
 INFORMATION **** MAXCYCLE **** MAX NUMBER OF SCF CYCLES SET TO          50
 *******************************************************************************
 N. OF ATOMS PER CELL        62  COULOMB OVERLAP TOL         (T1) 10**  -12
 NUMBER OF SHELLS           412  COULOMB PENETRATION TOL     (T2) 10**  -12
 NUMBER OF AO              1072  EXCHANGE OVERLAP TOL        (T3) 10**   20
 N. OF ELECTRONS PER CELL   456  EXCHANGE PSEUDO OVP (F(G))  (T4) 10**   20
 CORE ELECTRONS PER CELL    148  EXCHANGE PSEUDO OVP (P(G))  (T5) 10**   20
 N. OF SYMMETRY OPERATORS     4  POLE ORDER IN MONO ZONE                  4
 *******************************************************************************
 TYPE OF CALCULATION :  RESTRICTED CLOSED SHELL
 KOHN-SHAM HAMILTONIAN

 (EXCHANGE)[CORRELATION] FUNCTIONAL:(PERDEW-BURKE-ERNZERHOF)[PERDEW-BURKE-ERNZERHOF]


 CAPPA:IS1  3;IS2  3;IS3  3; K PTS MONK NET   6; SYMMOPS:K SPACE   8;G SPACE   4

 *******************************************************************************
 MAX NUMBER OF SCF CYCLES      50  CONVERGENCE ON DELTAP        10**-16
 WEIGHT OF F(I) IN F(I+1)      30% CONVERGENCE ON ENERGY        10**- 6
 SHRINK. FACT.(MONKH.)    3  3  3  NUMBER OF K POINTS IN THE IBZ      6
 SHRINKING FACTOR(GILAT NET)    3  NUMBER OF K POINTS(GILAT NET)      6
 *******************************************************************************
 *** K POINTS COORDINATES (OBLIQUE COORDINATES IN UNITS OF IS =  3)
   1-R(  0  0  0)   2-C(  1  0  0)   3-C(  1  1  0)   4-C(  2  1  0)
   5-C(  2  1  1)   6-C(  2  2  1)

 DIRECT LATTICE VECTORS COMPON. (A.U.)     RECIP. LATTICE VECTORS COMPON. (A.U.) 
        X            Y            Z              X            Y            Z
  -10.1368447   10.1368447   11.6896020      0.0000000    0.3099182    0.2687510
   10.1368447  -10.1368447   11.6896020      0.3099182    0.0000000    0.2687510
   10.1368447   10.1368447  -11.6896020      0.3099182    0.3099182    0.0000000

 DISK SPACE FOR EIGENVECTORS (FTN 10)    12641024 REALS

 SYMMETRY ADAPTION OF THE BLOCH FUNCTIONS ENABLED
 TTTTTTTTTTTTTTTTTTTTTTTTTTTTTT gordsh1     TELAPSE       40.15 TCPU        0.09

 MATRIX SIZE: P(G) 1748172, F(G)  875010, P(G) IRR  221328, F(G) IRR  221328
 MAX G-VECTOR INDEX FOR 1- AND 2-ELECTRON INTEGRALS  59

 TTTTTTTTTTTTTTTTTTTTTTTTTTTTTT INPUT       TELAPSE       40.20 TCPU        0.13

 NEIGHBORS OF THE NON-EQUIVALENT ATOMS

 N = NUMBER OF NEIGHBORS AT DISTANCE R
    ATOM  N     R/ANG      R/AU   NEIGHBORS (ATOM LABELS AND CELL INDICES)
   1 H    1     1.0872     2.0544   26 C    0 0 0
   1 H    1     2.1723     4.1050   17 C    0 0 0
   1 H    1     2.1759     4.1118   13 C    0 0 0
   1 H    1     2.2038     4.1645    2 H    0-1-1
   1 H    1     2.6184     4.9481   57 F    0 0 0
   1 H    1     2.6266     4.9635   49 F    0-1 0

   5 C    1     1.4037     2.6527   21 C    0 0 0
   5 C    1     1.4050     2.6550   13 C    0 0 0
   5 C    1     1.4562     2.7519    9 C    0-1 0
   5 C    1     2.3508     4.4423   53 F    0 0 0
   5 C    1     2.3644     4.4681   49 F    0-1 0
   5 C    1     2.4338     4.5992   45 N    0 0 0

   9 C    1     1.3539     2.5585   37 N    0 0 0
   9 C    1     1.3584     2.5670   29 N    0 0 0
   9 C    1     1.4562     2.7519    5 C    0 1 0
   9 C    1     2.1962     4.1502   41 N    1 1 1
   9 C    1     2.1965     4.1508   33 N    1 1 1
   9 C    1     2.5038     4.7316   21 C    0 1 0

  13 C    1     1.3417     2.5354   49 F    0-1 0
  13 C    1     1.3893     2.6254   26 C    0 0 0
  13 C    1     1.4050     2.6550    5 C    0 0 0
  13 C    1     2.1759     4.1118    1 H    0 0 0
  13 C    1     2.3439     4.4294   21 C    0 0 0
  13 C    1     2.3592     4.4582   17 C    0 0 0

  17 C    1     1.3251     2.5041   45 N    0 0 0
  17 C    1     1.3380     2.5284   57 F    0 0 0
  17 C    1     1.3948     2.6358   26 C    0 0 0
  17 C    1     2.1723     4.1050    1 H    0 0 0
  17 C    1     2.2507     4.2532   21 C    0 0 0
  17 C    1     2.3592     4.4582   13 C    0 0 0

  21 C    1     1.3173     2.4894   45 N    0 0 0
  21 C    1     1.3475     2.5465   53 F    0 0 0
  21 C    1     1.4037     2.6527    5 C    0 0 0
  21 C    1     2.2507     4.2532   17 C    0 0 0
  21 C    1     2.3439     4.4294   13 C    0 0 0
  21 C    1     2.5038     4.7316    9 C    0-1 0

  25 C    1     1.0872     2.0544    2 H    0 0 0
  25 C    1     1.3893     2.6254   14 C    0 0 0
  25 C    1     1.3948     2.6358   18 C    0 0 0
  25 C    1     2.3472     4.4356   50 F   -1 0 0
  25 C    1     2.3502     4.4413   58 F    0 0 0
  25 C    1     2.4079     4.5502   46 N    0 0 0

  29 N    1     1.3584     2.5670    9 C    0 0 0
  29 N    1     1.3744     2.5973   33 N    1 1 1
  29 N    1     2.0159     3.8095   61 ZN   1 1 0
  29 N    1     2.1872     4.1333   41 N    1 1 1
  29 N    1     2.2016     4.1604   37 N    0 0 0
  29 N    1     2.4865     4.6988    5 C    0 1 0

  33 N    1     1.3147     2.4844   41 N    0 0 0
  33 N    1     1.3744     2.5973   29 N   -1-1-1
  33 N    1     2.1901     4.1388   37 N   -1-1-1
  33 N    1     2.1965     4.1508    9 C   -1-1-1
  33 N    1     2.7036     5.1091   54 F    0 0 0
  33 N    1     2.8698     5.4232   61 ZN   0 0-1

  37 N    1     1.3539     2.5585    9 C    0 0 0
  37 N    1     1.3795     2.6068   41 N    1 1 1
  37 N    1     1.9978     3.7753   62 ZN   0 0 0
  37 N    1     2.1901     4.1388   33 N    1 1 1
  37 N    1     2.2016     4.1604   29 N    0 0 0
  37 N    1     2.5196     4.7613    5 C    0 1 0

  41 N    1     1.3147     2.4844   33 N    0 0 0
  41 N    1     1.3795     2.6068   37 N   -1-1-1
  41 N    1     2.1872     4.1333   29 N   -1-1-1
  41 N    1     2.1962     4.1502    9 C   -1-1-1
  41 N    1     2.7097     5.1206   50 F   -1-1-1
  41 N    1     2.8313     5.3503   62 ZN  -1-1-1

  45 N    1     1.3173     2.4894   21 C    0 0 0
  45 N    1     1.3251     2.5041   17 C    0 0 0
  45 N    1     2.2573     4.2656   53 F    0 0 0
  45 N    1     2.2685     4.2868   57 F    0 0 0
  45 N    1     2.4079     4.5502   26 C    0 0 0
  45 N    1     2.4338     4.5992    5 C    0 0 0

  49 F    1     1.3417     2.5354   13 C    0 1 0
  49 F    1     2.3472     4.4356   26 C    0 1 0
  49 F    1     2.3644     4.4681    5 C    0 1 0
  49 F    1     2.6266     4.9635    1 H    0 1 0
  49 F    1     2.7097     5.1206   42 N    0 0-1
  49 F    1     2.7774     5.2485   60 F    0 0 0

  53 F    1     1.3475     2.5465   21 C    0 0 0
  53 F    1     2.2573     4.2656   45 N    0 0 0
  53 F    1     2.3508     4.4423    5 C    0 0 0
  53 F    1     2.7036     5.1091   34 N    0 0 0
  53 F    1     2.8049     5.3005    9 C    0-1 0
  53 F    1     2.8157     5.3210   29 N    0-1 0

  57 F    1     1.3380     2.5284   17 C    0 0 0
  57 F    1     2.2685     4.2868   45 N    0 0 0
  57 F    1     2.3502     4.4413   26 C    0 0 0
  57 F    1     2.6184     4.9481    1 H    0 0 0
  57 F    1     2.7774     5.2485   51 F    0 0 0
  57 F    1     3.0214     5.7095   56 F    0 0 0

  61 ZN   4     2.0159     3.8095   29 N   -1-1 0   30 N   -1 0 1   31 N    0 0 1
                                    32 N   -1 0 0
  61 ZN   4     2.8698     5.4232   33 N    0 0 1   34 N   -1 0 0   35 N   -1 0 1
                                    36 N   -1-1 0
  61 ZN   4     2.9148     5.5082   53 F   -1 0 0   54 F    0 0 1   55 F   -1-1 0
                                    56 F   -1 0 1
  61 ZN   4     3.1623     5.9759    9 C   -1-1 0   10 C   -1 0 1   11 C    0 0 1
                                    12 C   -1 0 0
  61 ZN   4     3.5528     6.7137   21 C   -1 0 0   22 C    0 0 1   23 C   -1-1 0
                                    24 C   -1 0 1
  61 ZN   4     3.6862     6.9658    5 C   -1 0 0    6 C    0 0 1    7 C   -1-1 0
                                     8 C   -1 0 1

  62 ZN   4     1.9978     3.7753   37 N    0 0 0   38 N    0 0 0   39 N    1 1 0
                                    40 N    1 1 0
  62 ZN   4     2.8313     5.3503   41 N    1 1 1   42 N    0 0-1   43 N    0 1 0
                                    44 N    1 0 0
  62 ZN   4     3.0920     5.8429   49 F    0 0 0   50 F    0 0 0   51 F    1 1 0
                                    52 F    1 1 0
  62 ZN   4     3.1543     5.9607    9 C    0 0 0   10 C    0 0 0   11 C    1 1 0
                                    12 C    1 1 0
  62 ZN   4     3.7725     7.1290    5 C    0 1 0    6 C    1 0 0    7 C    0 0-1
                                     8 C    1 1 1
  62 ZN   4     3.8088     7.1976   13 C    0 1 0   14 C    1 0 0   15 C    0 0-1
                                    16 C    1 1 1


 SYMMETRY ALLOWED INTERNAL DEGREE(S) OF FREEDOM:  45
 TTTTTTTTTTTTTTTTTTTTTTTTTTTTTT SYMM        TELAPSE       41.04 TCPU        0.97
 TTTTTTTTTTTTTTTTTTTTTTTTTTTTTT INT_SCREEN  TELAPSE       41.05 TCPU        0.98
 INFORMATION **** EXCBUF **** EXCH. BIPO BUFFER: WORDS USED =           0

 DFT PARAMETERS

     ATOM       ELECTRONS   NET CHARGE   R(ANGSTROM)
   1   1  H       1.0000      0.0000     1.11000000
   5   6  C       6.0000      0.0000     0.77000000
  29   7  N       7.0000      0.0000     0.74000000
  49   9  F       9.0000      0.0000     0.72000000
  61  30  ZN     30.0000      0.0000     1.37000000

 SIZE OF GRID=     494149
 TTTTTTTTTTTTTTTTTTTTTTTTTTTTTT MAKE_GRID2  TELAPSE       41.77 TCPU        1.70
 BECKE WEIGHT FUNCTION
 RADSAFE =     2.00
 TOLERANCES - DENSITY:10**- 6; POTENTIAL:10**- 9; GRID WGT:10**-14

 RADIAL INTEGRATION  - INTERVALS (POINTS,UPPER LIMIT):            1( 75,  4.0*R)

 ANGULAR INTEGRATION - INTERVALS (ACCURACY LEVEL [N. POINTS] UPPER LIMIT):
  1(  4[  86]   0.2)  2(  8[ 194]   0.5)  3( 12[ 350]   0.9)  4( 16[ 974]   3.5)
  5( 12[ 350]9999.0)
 TTTTTTTTTTTTTTTTTTTTTTTTTTTTTT INT_CALC    TELAPSE       41.82 TCPU        1.74
 EEEEEEEEEE INT_CALC TERMINATION  DATE 01 12 2023 TIME 21:38:00.9

 *******************************************************************************
 Z:\home\sanoj\Downloads\tmp_p\newconn.mol                                       
 CRYSTAL - SCF - TYPE OF CALCULATION :  RESTRICTED CLOSED SHELL
 *******************************************************************************

 CAPPA:IS1  3;IS2  3;IS3  3; K PTS MONK NET   6; SYMMOPS:K SPACE   8;G SPACE   4

 TTTTTTTTTTTTTTTTTTTTTTTTTTTTTT SDIK        TELAPSE       42.05 TCPU        1.98

 AAAAAAAAAAAAAAAAAAAAAAAAAAAAAAAAAAAAAAAAAAAAAAAAAAAAAAAAAAAAAAAAAAAAAAAAAAAAAAA
         ATOMIC WAVEFUNCTION(S)


 NUCLEAR CHARGE  1.0  SYMMETRY SPECIES            S
 N. ELECTRONS    1.0  NUMBER OF PRIMITIVE GTOS    4
                      NUMBER OF CONTRACTED GTOS   2
                      NUMBER OF CLOSED SHELLS     0
                      OPEN SHELL OCCUPATION       1

  ZNUC SCFIT  TOTAL HF ENERGY   KINETIC ENERGY   VIRIAL THEOREM ACCURACY
   1.0   1   -4.946643675E-01  4.917913167E-01 -2.005842012E+00  9.4E-17

 NUCLEAR CHARGE  6.0  SYMMETRY SPECIES            S    P
 N. ELECTRONS    6.0  NUMBER OF PRIMITIVE GTOS    7    4
                      NUMBER OF CONTRACTED GTOS   3    2
                      NUMBER OF CLOSED SHELLS     2    0
                      OPEN SHELL OCCUPATION       0    2

  ZNUC SCFIT  TOTAL HF ENERGY   KINETIC ENERGY   VIRIAL THEOREM ACCURACY
   6.0   6   -3.750912652E+01  3.905246519E+01 -1.960480378E+00  3.7E-06

 NUCLEAR CHARGE  7.0  SYMMETRY SPECIES            S    P
 N. ELECTRONS    7.0  NUMBER OF PRIMITIVE GTOS    7    4
                      NUMBER OF CONTRACTED GTOS   3    2
                      NUMBER OF CLOSED SHELLS     2    0
                      OPEN SHELL OCCUPATION       0    3

  ZNUC SCFIT  TOTAL HF ENERGY   KINETIC ENERGY   VIRIAL THEOREM ACCURACY
   7.0   9   -5.432196661E+01  5.425066284E+01 -2.001314339E+00  1.2E-06

 NUCLEAR CHARGE  9.0  SYMMETRY SPECIES            S    P
 N. ELECTRONS    9.0  NUMBER OF PRIMITIVE GTOS    7    4
                      NUMBER OF CONTRACTED GTOS   3    2
                      NUMBER OF CLOSED SHELLS     2    0
                      OPEN SHELL OCCUPATION       0    5

  ZNUC SCFIT  TOTAL HF ENERGY   KINETIC ENERGY   VIRIAL THEOREM ACCURACY
   9.0  14   -9.927886620E+01  9.927374065E+01 -2.000051630E+00  4.0E-06

 NUCLEAR CHARGE 30.0  SYMMETRY SPECIES            S    P    D
 N. ELECTRONS   30.0  NUMBER OF PRIMITIVE GTOS   14    9    5
                      NUMBER OF CONTRACTED GTOS   5    3    2
                      NUMBER OF CLOSED SHELLS     4    2    1
                      OPEN SHELL OCCUPATION       0    0    0

  ZNUC SCFIT  TOTAL HF ENERGY   KINETIC ENERGY   VIRIAL THEOREM ACCURACY
  30.0  10   -1.777404290E+03  1.777325716E+03 -2.000044209E+00  2.5E-06

 AAAAAAAAAAAAAAAAAAAAAAAAAAAAAAAAAAAAAAAAAAAAAAAAAAAAAAAAAAAAAAAAAAAAAAAAAAAAAAA

 TOTAL ATOMIC CHARGES:
   1.0000000   1.0000000   1.0000000   1.0000000   6.0000000   6.0000000
   6.0000000   6.0000000   6.0000000   6.0000000   6.0000000   6.0000000
   6.0000000   6.0000000   6.0000000   6.0000000   6.0000000   6.0000000
   6.0000000   6.0000000   6.0000000   6.0000000   6.0000000   6.0000000
   6.0000000   6.0000000   6.0000000   6.0000000   7.0000000   7.0000000
   7.0000000   7.0000000   7.0000000   7.0000000   7.0000000   7.0000000
   7.0000000   7.0000000   7.0000000   7.0000000   7.0000000   7.0000000
   7.0000000   7.0000000   7.0000000   7.0000000   7.0000000   7.0000000
   9.0000000   9.0000000   9.0000000   9.0000000   9.0000000   9.0000000
   9.0000000   9.0000000   9.0000000   9.0000000   9.0000000   9.0000000
  30.0000000  30.0000000
 TTTTTTTTTTTTTTTTTTTTTTTTTTTTTT MOQGAD      TELAPSE       51.51 TCPU       11.41
 TTTTTTTTTTTTTTTTTTTTTTTTTTTTTT SHELLXN     TELAPSE      109.76 TCPU       65.63
 TTTTTTTTTTTTTTTTTTTTTTTTTTTTTT MONMO3      TELAPSE      111.71 TCPU       67.57
 NUMERICALLY INTEGRATED DENSITY    456.0000308627
 TTTTTTTTTTTTTTTTTTTTTTTTTTTTTT NUMDFT      TELAPSE      113.82 TCPU       69.67
 CYC   0 ETOT(AU) -6.767079316417E+03 DETOT -6.77E+03 tst  0.00E+00 PX  1.00E+00
 TTTTTTTTTTTTTTTTTTTTTTTTTTTTTT DIIS        TELAPSE      113.90 TCPU       69.76
 TTTTTTTTTTTTTTTTTTTTTTTTTTTTTT FDIK        TELAPSE      175.64 TCPU      118.68
 INSULATING STATE
 TOP OF VALENCE BANDS -    BAND    228; K    4; EIG -1.2957807E-01 AU
 TOP OF VALENCE BANDS -    BAND    228; K    1; EIG -1.3169922E-01 AU
 BOTTOM OF VIRTUAL BANDS - BAND    229; K    5; EIG -8.3453078E-02 AU
 INDIRECT ENERGY BAND GAP:   1.2551 eV
 BOTTOM OF VIRTUAL BANDS - BAND    229; K    1; EIG -8.3351104E-02 AU
 TTTTTTTTTTTTTTTTTTTTTTTTTTTTTT PDIG        TELAPSE      176.32 TCPU      119.36
 TOTAL ATOMIC CHARGES:
   1.2560842   1.2560842   1.2560842   1.2560842   6.3558173   6.3558173
   6.3558173   6.3558173   5.5543179   5.5543179   5.5543179   5.5543179
   5.3762693   5.3762693   5.3762693   5.3762693   5.0741851   5.0741851
   5.0741851   5.0741851   5.0816041   5.0816041   5.0816041   5.0816041
   6.4256508   6.4256508   6.4256508   6.4256508   7.4587307   7.4587307
   7.4587307   7.4587307   7.2284295   7.2284295   7.2284295   7.2284295
   7.4543170   7.4543170   7.4543170   7.4543170   7.1953131   7.1953131
   7.1953131   7.1953131   7.6717184   7.6717184   7.6717184   7.6717184
   9.2855830   9.2855830   9.2855830   9.2855830   9.2993989   9.2993989
   9.2993989   9.2993989   9.2812534   9.2812534   9.2812534   9.2812534
  27.9993266  28.0059829
 TTTTTTTTTTTTTTTTTTTTTTTTTTTTTT MOQGAD      TELAPSE      176.37 TCPU      119.41
 TTTTTTTTTTTTTTTTTTTTTTTTTTTTTT SHELLXN     TELAPSE      253.84 TCPU      182.72
 TTTTTTTTTTTTTTTTTTTTTTTTTTTTTT MONMO3      TELAPSE      258.33 TCPU      187.20
 NUMERICALLY INTEGRATED DENSITY    455.9999515081
 TTTTTTTTTTTTTTTTTTTTTTTTTTTTTT NUMDFT      TELAPSE      264.25 TCPU      193.11
 CYC   1 ETOT(AU) -6.760554015957E+03 DETOT  6.53E+00 tst  0.00E+00 PX  1.00E+00
 TTTTTTTTTTTTTTTTTTTTTTTTTTTTTT DIIS        TELAPSE      266.29 TCPU      195.14
 DIIS TEST: 0.11813E+02 AT SCF   CYCLE   1 - MIX   30 %
 TTTTTTTTTTTTTTTTTTTTTTTTTTTTTT FDIK        TELAPSE      282.81 TCPU      207.17
 INSULATING STATE
 TOP OF VALENCE BANDS -    BAND    228; K    2; EIG -1.8724555E-01 AU
 TOP OF VALENCE BANDS -    BAND    228; K    1; EIG -1.8747136E-01 AU
 BOTTOM OF VIRTUAL BANDS - BAND    229; K    4; EIG -1.1278498E-01 AU
 INDIRECT ENERGY BAND GAP:   2.0262 eV
 BOTTOM OF VIRTUAL BANDS - BAND    229; K    1; EIG -1.1264843E-01 AU
 TTTTTTTTTTTTTTTTTTTTTTTTTTTTTT PDIG        TELAPSE      283.49 TCPU      207.84
 TOTAL ATOMIC CHARGES:
   1.2258988   1.2258988   1.2258988   1.2258988   6.0546824   6.0546824
   6.0546824   6.0546824   6.3547978   6.3547978   6.3547978   6.3547978
   6.3305810   6.3305810   6.3305810   6.3305810   6.2403325   6.2403325
   6.2403325   6.2403325   6.3518450   6.3518450   6.3518450   6.3518450
   5.7775950   5.7775950   5.7775950   5.7775950   6.9579911   6.9579911
   6.9579911   6.9579911   6.8968195   6.8968195   6.8968195   6.8968195
   6.9350190   6.9350190   6.9350190   6.9350190   6.8611271   6.8611271
   6.8611271   6.8611271   6.1390602   6.1390602   6.1390602   6.1390602
   9.0241336   9.0241336   9.0241336   9.0241336   9.0518801   9.0518801
   9.0518801   9.0518801   8.9941716   8.9941716   8.9941716   8.9941716
  29.6208652  29.5953973
 TTTTTTTTTTTTTTTTTTTTTTTTTTTTTT MOQGAD      TELAPSE      283.54 TCPU      207.89
 TTTTTTTTTTTTTTTTTTTTTTTTTTTTTT SHELLXN     TELAPSE      355.26 TCPU      271.06
 TTTTTTTTTTTTTTTTTTTTTTTTTTTTTT MONMO3      TELAPSE      360.03 TCPU      275.82
 NUMERICALLY INTEGRATED DENSITY    455.9999274392
 TTTTTTTTTTTTTTTTTTTTTTTTTTTTTT NUMDFT      TELAPSE      365.98 TCPU      281.75
 CYC   2 ETOT(AU) -6.759742419108E+03 DETOT  8.12E-01 tst  5.07E-02 PX  6.43E-01
 TTTTTTTTTTTTTTTTTTTTTTTTTTTTTT DIIS        TELAPSE      372.44 TCPU      288.20
 DIIS TEST: 0.15738E+02 AT SCF   CYCLE   2 - DIIS ACTIVE - HISTORY:     2 CYCLES
 TTTTTTTTTTTTTTTTTTTTTTTTTTTTTT FDIK        TELAPSE      386.06 TCPU      299.62
 INSULATING STATE
 TOP OF VALENCE BANDS -    BAND    228; K    1; EIG -2.3533153E-01 AU
 BOTTOM OF VIRTUAL BANDS - BAND    229; K    6; EIG -1.0507599E-01 AU
 INDIRECT ENERGY BAND GAP:   3.5444 eV
 BOTTOM OF VIRTUAL BANDS - BAND    229; K    1; EIG -1.0459708E-01 AU
 TTTTTTTTTTTTTTTTTTTTTTTTTTTTTT PDIG        TELAPSE      386.75 TCPU      300.30
 TOTAL ATOMIC CHARGES:
   1.2125306   1.2125306   1.2125306   1.2125306   5.9603347   5.9603347
   5.9603347   5.9603347   5.8324211   5.8324211   5.8324211   5.8324211
   5.7199590   5.7199590   5.7199590   5.7199590   5.7110893   5.7110893
   5.7110893   5.7110893   5.5852825   5.5852825   5.5852825   5.5852825
   6.0891744   6.0891744   6.0891744   6.0891744   7.1332118   7.1332118
   7.1332118   7.1332118   7.1465888   7.1465888   7.1465888   7.1465888
   7.1565957   7.1565957   7.1565957   7.1565957   7.1181527   7.1181527
   7.1181527   7.1181527   7.3721387   7.3721387   7.3721387   7.3721387
   9.1668498   9.1668498   9.1668498   9.1668498   9.1392427   9.1392427
   9.1392427   9.1392427   9.1300781   9.1300781   9.1300781   9.1300781
  29.0485563  29.0568447
 TTTTTTTTTTTTTTTTTTTTTTTTTTTTTT MOQGAD      TELAPSE      386.80 TCPU      300.35
 TTTTTTTTTTTTTTTTTTTTTTTTTTTTTT SHELLXN     TELAPSE      453.62 TCPU      363.63
 TTTTTTTTTTTTTTTTTTTTTTTTTTTTTT MONMO3      TELAPSE      466.12 TCPU      376.08
 NUMERICALLY INTEGRATED DENSITY    455.9999549387
 TTTTTTTTTTTTTTTTTTTTTTTTTTTTTT NUMDFT      TELAPSE      472.06 TCPU      381.99
 CYC   3 ETOT(AU) -6.762427336908E+03 DETOT -2.68E+00 tst  1.03E-02 PX  5.37E-01
 TTTTTTTTTTTTTTTTTTTTTTTTTTTTTT DIIS        TELAPSE      477.92 TCPU      387.83
 DIIS TEST: 0.16073E+01 AT SCF   CYCLE   3 - DIIS ACTIVE - HISTORY:     3 CYCLES
 TTTTTTTTTTTTTTTTTTTTTTTTTTTTTT FDIK        TELAPSE      494.14 TCPU      401.70
 INSULATING STATE
 TOP OF VALENCE BANDS -    BAND    228; K    1; EIG -2.4565707E-01 AU
 BOTTOM OF VIRTUAL BANDS - BAND    229; K    4; EIG -1.0778772E-01 AU
 INDIRECT ENERGY BAND GAP:   3.7516 eV
 BOTTOM OF VIRTUAL BANDS - BAND    229; K    1; EIG -1.0702952E-01 AU
 TTTTTTTTTTTTTTTTTTTTTTTTTTTTTT PDIG        TELAPSE      494.82 TCPU      402.37
 TOTAL ATOMIC CHARGES:
   1.2203169   1.2203169   1.2203169   1.2203169   6.2417006   6.2417006
   6.2417006   6.2417006   5.8968984   5.8968984   5.8968984   5.8968984
   5.8173842   5.8173842   5.8173842   5.8173842   5.4969339   5.4969339
   5.4969339   5.4969339   5.5976011   5.5976011   5.5976011   5.5976011
   6.1854435   6.1854435   6.1854435   6.1854435   7.2506729   7.2506729
   7.2506729   7.2506729   7.0852101   7.0852101   7.0852101   7.0852101
   7.2127518   7.2127518   7.2127518   7.2127518   7.0383675   7.0383675
   7.0383675   7.0383675   7.0086638   7.0086638   7.0086638   7.0086638
   9.1715072   9.1715072   9.1715072   9.1715072   9.1913240   9.1913240
   9.1913240   9.1913240   9.1564122   9.1564122   9.1564122   9.1564122
  28.8572750  28.8579726
 TTTTTTTTTTTTTTTTTTTTTTTTTTTTTT MOQGAD      TELAPSE      494.87 TCPU      402.42
 TTTTTTTTTTTTTTTTTTTTTTTTTTTTTT SHELLXN     TELAPSE      568.37 TCPU      465.67
 TTTTTTTTTTTTTTTTTTTTTTTTTTTTTT MONMO3      TELAPSE      572.95 TCPU      470.23
 NUMERICALLY INTEGRATED DENSITY    455.9999475535
 TTTTTTTTTTTTTTTTTTTTTTTTTTTTTT NUMDFT      TELAPSE      578.88 TCPU      476.15
 CYC   4 ETOT(AU) -6.762589146068E+03 DETOT -1.62E-01 tst  1.91E-03 PX  1.05E-01
 TTTTTTTTTTTTTTTTTTTTTTTTTTTTTT DIIS        TELAPSE      580.16 TCPU      477.42
 DIIS TEST: 0.58631E+00 AT SCF   CYCLE   4 - DIIS ACTIVE - HISTORY:     4 CYCLES
 TTTTTTTTTTTTTTTTTTTTTTTTTTTTTT FDIK        TELAPSE      595.59 TCPU      490.41
 INSULATING STATE
 TOP OF VALENCE BANDS -    BAND    228; K    1; EIG -2.4561171E-01 AU
 BOTTOM OF VIRTUAL BANDS - BAND    229; K    6; EIG -1.0781632E-01 AU
 INDIRECT ENERGY BAND GAP:   3.7496 eV
 BOTTOM OF VIRTUAL BANDS - BAND    229; K    1; EIG -1.0713911E-01 AU
 TTTTTTTTTTTTTTTTTTTTTTTTTTTTTT PDIG        TELAPSE      596.28 TCPU      491.10
 TOTAL ATOMIC CHARGES:
   1.2143591   1.2143591   1.2143591   1.2143591   6.1494670   6.1494670
   6.1494670   6.1494670   5.8982963   5.8982963   5.8982963   5.8982963
   5.7941757   5.7941757   5.7941757   5.7941757   5.6197763   5.6197763
   5.6197763   5.6197763   5.6515526   5.6515526   5.6515526   5.6515526
   6.1295823   6.1295823   6.1295823   6.1295823   7.1751465   7.1751465
   7.1751465   7.1751465   7.1054462   7.1054462   7.1054462   7.1054462
   7.1755186   7.1755186   7.1755186   7.1755186   7.0793204   7.0793204
   7.0793204   7.0793204   7.1067842   7.1067842   7.1067842   7.1067842
   9.1572920   9.1572920   9.1572920   9.1572920   9.1652896   9.1652896
   9.1652896   9.1652896   9.1392667   9.1392667   9.1392667   9.1392667
  28.8785225  28.8763839
 TTTTTTTTTTTTTTTTTTTTTTTTTTTTTT MOQGAD      TELAPSE      596.33 TCPU      491.14
 TTTTTTTTTTTTTTTTTTTTTTTTTTTTTT SHELLXN     TELAPSE      670.61 TCPU      554.66
 TTTTTTTTTTTTTTTTTTTTTTTTTTTTTT MONMO3      TELAPSE      674.54 TCPU      558.57
 NUMERICALLY INTEGRATED DENSITY    455.9999473604
 TTTTTTTTTTTTTTTTTTTTTTTTTTTTTT NUMDFT      TELAPSE      680.54 TCPU      564.54
 CYC   5 ETOT(AU) -6.762675502659E+03 DETOT -8.64E-02 tst  4.52E-04 PX  7.37E-02
 TTTTTTTTTTTTTTTTTTTTTTTTTTTTTT DIIS        TELAPSE      687.26 TCPU      571.23
 DIIS TEST: 0.20130E-01 AT SCF   CYCLE   5 - DIIS ACTIVE - HISTORY:     5 CYCLES
 TTTTTTTTTTTTTTTTTTTTTTTTTTTTTT FDIK        TELAPSE      702.22 TCPU      584.01
 INSULATING STATE
 TOP OF VALENCE BANDS -    BAND    228; K    1; EIG -2.4321371E-01 AU
 BOTTOM OF VIRTUAL BANDS - BAND    229; K    4; EIG -1.0736183E-01 AU
 INDIRECT ENERGY BAND GAP:   3.6967 eV
 BOTTOM OF VIRTUAL BANDS - BAND    229; K    1; EIG -1.0687439E-01 AU
 TTTTTTTTTTTTTTTTTTTTTTTTTTTTTT PDIG        TELAPSE      702.90 TCPU      584.68
 TOTAL ATOMIC CHARGES:
   1.2188802   1.2188802   1.2188802   1.2188802   6.1190910   6.1190910
   6.1190910   6.1190910   5.8876049   5.8876049   5.8876049   5.8876049
   5.8165151   5.8165151   5.8165151   5.8165151   5.6215072   5.6215072
   5.6215072   5.6215072   5.6315774   5.6315774   5.6315774   5.6315774
   6.1275053   6.1275053   6.1275053   6.1275053   7.2153821   7.2153821
   7.2153821   7.2153821   7.1002960   7.1002960   7.1002960   7.1002960
   7.1923590   7.1923590   7.1923590   7.1923590   7.0553897   7.0553897
   7.0553897   7.0553897   7.1014000   7.1014000   7.1014000   7.1014000
   9.1634336   9.1634336   9.1634336   9.1634336   9.1658721   9.1658721
   9.1658721   9.1658721   9.1357467   9.1357467   9.1357467   9.1357467
  28.8942310  28.8955282
 TTTTTTTTTTTTTTTTTTTTTTTTTTTTTT MOQGAD      TELAPSE      702.95 TCPU      584.73
 TTTTTTTTTTTTTTTTTTTTTTTTTTTTTT SHELLXN     TELAPSE      776.39 TCPU      647.87
 TTTTTTTTTTTTTTTTTTTTTTTTTTTTTT MONMO3      TELAPSE      781.05 TCPU      652.52
 NUMERICALLY INTEGRATED DENSITY    455.9999474699
 TTTTTTTTTTTTTTTTTTTTTTTTTTTTTT NUMDFT      TELAPSE      787.06 TCPU      658.50
 CYC   6 ETOT(AU) -6.762676981662E+03 DETOT -1.48E-03 tst  1.22E-05 PX  1.56E-02
 TTTTTTTTTTTTTTTTTTTTTTTTTTTTTT DIIS        TELAPSE      793.61 TCPU      665.02
 DIIS TEST: 0.98001E-02 AT SCF   CYCLE   6 - DIIS ACTIVE - HISTORY:     6 CYCLES
 TTTTTTTTTTTTTTTTTTTTTTTTTTTTTT FDIK        TELAPSE      809.00 TCPU      677.88
 INSULATING STATE
 TOP OF VALENCE BANDS -    BAND    228; K    1; EIG -2.4436818E-01 AU
 BOTTOM OF VIRTUAL BANDS - BAND    229; K    4; EIG -1.0744101E-01 AU
 INDIRECT ENERGY BAND GAP:   3.7260 eV
 BOTTOM OF VIRTUAL BANDS - BAND    229; K    1; EIG -1.0690711E-01 AU
 TTTTTTTTTTTTTTTTTTTTTTTTTTTTTT PDIG        TELAPSE      809.69 TCPU      678.56
 TOTAL ATOMIC CHARGES:
   1.2173165   1.2173165   1.2173165   1.2173165   6.1315684   6.1315684
   6.1315684   6.1315684   5.9009980   5.9009980   5.9009980   5.9009980
   5.8068219   5.8068219   5.8068219   5.8068219   5.6203508   5.6203508
   5.6203508   5.6203508   5.6455069   5.6455069   5.6455069   5.6455069
   6.1231671   6.1231671   6.1231671   6.1231671   7.1808420   7.1808420
   7.1808420   7.1808420   7.1016098   7.1016098   7.1016098   7.1016098
   7.1822818   7.1822818   7.1822818   7.1822818   7.0793965   7.0793965
   7.0793965   7.0793965   7.1011599   7.1011599   7.1011599   7.1011599
   9.1593650   9.1593650   9.1593650   9.1593650   9.1645472   9.1645472
   9.1645472   9.1645472   9.1376643   9.1376643   9.1376643   9.1376643
  28.8945588  28.8950561
 TTTTTTTTTTTTTTTTTTTTTTTTTTTTTT MOQGAD      TELAPSE      809.74 TCPU      678.61
 TTTTTTTTTTTTTTTTTTTTTTTTTTTTTT SHELLXN     TELAPSE      875.05 TCPU      741.62
 TTTTTTTTTTTTTTTTTTTTTTTTTTTTTT MONMO3      TELAPSE      879.90 TCPU      746.44
 NUMERICALLY INTEGRATED DENSITY    455.9999479296
 TTTTTTTTTTTTTTTTTTTTTTTTTTTTTT NUMDFT      TELAPSE      885.88 TCPU      752.40
 CYC   7 ETOT(AU) -6.762678204875E+03 DETOT -1.22E-03 tst  9.28E-06 PX  1.04E-02
 TTTTTTTTTTTTTTTTTTTTTTTTTTTTTT DIIS        TELAPSE      886.19 TCPU      752.71
 DIIS TEST: 0.26863E-02 AT SCF   CYCLE   7 - DIIS ACTIVE - HISTORY:     7 CYCLES
 TTTTTTTTTTTTTTTTTTTTTTTTTTTTTT FDIK        TELAPSE      899.63 TCPU      763.15
 INSULATING STATE
 TOP OF VALENCE BANDS -    BAND    228; K    1; EIG -2.4460516E-01 AU
 BOTTOM OF VIRTUAL BANDS - BAND    229; K    4; EIG -1.0782373E-01 AU
 INDIRECT ENERGY BAND GAP:   3.7220 eV
 BOTTOM OF VIRTUAL BANDS - BAND    229; K    1; EIG -1.0735435E-01 AU
 TTTTTTTTTTTTTTTTTTTTTTTTTTTTTT PDIG        TELAPSE      900.30 TCPU      763.83
 TOTAL ATOMIC CHARGES:
   1.2158446   1.2158446   1.2158446   1.2158446   6.1322070   6.1322070
   6.1322070   6.1322070   5.8930980   5.8930980   5.8930980   5.8930980
   5.8032232   5.8032232   5.8032232   5.8032232   5.6215499   5.6215499
   5.6215499   5.6215499   5.6440647   5.6440647   5.6440647   5.6440647
   6.1276491   6.1276491   6.1276491   6.1276491   7.2005611   7.2005611
   7.2005611   7.2005611   7.1049123   7.1049123   7.1049123   7.1049123
   7.1808624   7.1808624   7.1808624   7.1808624   7.0622073   7.0622073
   7.0622073   7.0622073   7.1025503   7.1025503   7.1025503   7.1025503
   9.1595476   9.1595476   9.1595476   9.1595476   9.1664001   9.1664001
   9.1664001   9.1664001   9.1374658   9.1374658   9.1374658   9.1374658
  28.8961890  28.8952373
 TTTTTTTTTTTTTTTTTTTTTTTTTTTTTT MOQGAD      TELAPSE      900.35 TCPU      763.87
 TTTTTTTTTTTTTTTTTTTTTTTTTTTTTT SHELLXN     TELAPSE      964.48 TCPU      826.83
 TTTTTTTTTTTTTTTTTTTTTTTTTTTTTT MONMO3      TELAPSE      978.16 TCPU      840.48
 NUMERICALLY INTEGRATED DENSITY    455.9999476787
 TTTTTTTTTTTTTTTTTTTTTTTTTTTTTT NUMDFT      TELAPSE      984.10 TCPU      846.41
 CYC   8 ETOT(AU) -6.762678445798E+03 DETOT -2.41E-04 tst  2.80E-06 PX  5.41E-03
 TTTTTTTTTTTTTTTTTTTTTTTTTTTTTT DIIS        TELAPSE      986.77 TCPU      849.07
 DIIS TEST: 0.15084E-02 AT SCF   CYCLE   8 - DIIS ACTIVE - HISTORY:     8 CYCLES
 TTTTTTTTTTTTTTTTTTTTTTTTTTTTTT FDIK        TELAPSE      999.76 TCPU      860.61
 INSULATING STATE
 TOP OF VALENCE BANDS -    BAND    228; K    1; EIG -2.4449349E-01 AU
 BOTTOM OF VIRTUAL BANDS - BAND    229; K    4; EIG -1.0777266E-01 AU
 INDIRECT ENERGY BAND GAP:   3.7204 eV
 BOTTOM OF VIRTUAL BANDS - BAND    229; K    1; EIG -1.0724488E-01 AU
 TTTTTTTTTTTTTTTTTTTTTTTTTTTTTT PDIG        TELAPSE     1000.46 TCPU      861.31
 TOTAL ATOMIC CHARGES:
   1.2161549   1.2161549   1.2161549   1.2161549   6.1312163   6.1312163
   6.1312163   6.1312163   5.8919162   5.8919162   5.8919162   5.8919162
   5.8066976   5.8066976   5.8066976   5.8066976   5.6214007   5.6214007
   5.6214007   5.6214007   5.6404624   5.6404624   5.6404624   5.6404624
   6.1280827   6.1280827   6.1280827   6.1280827   7.1941377   7.1941377
   7.1941377   7.1941377   7.0984927   7.0984927   7.0984927   7.0984927
   7.1884222   7.1884222   7.1884222   7.1884222   7.0689776   7.0689776
   7.0689776   7.0689776   7.1019350   7.1019350   7.1019350   7.1019350
   9.1612607   9.1612607   9.1612607   9.1612607   9.1655485   9.1655485
   9.1655485   9.1655485   9.1372728   9.1372728   9.1372728   9.1372728
  28.8958116  28.8962764
 TTTTTTTTTTTTTTTTTTTTTTTTTTTTTT MOQGAD      TELAPSE     1000.50 TCPU      861.35
 TTTTTTTTTTTTTTTTTTTTTTTTTTTTTT SHELLXN     TELAPSE     1067.16 TCPU      924.74
 TTTTTTTTTTTTTTTTTTTTTTTTTTTTTT MONMO3      TELAPSE     1074.39 TCPU      931.94
 NUMERICALLY INTEGRATED DENSITY    455.9999476834
 TTTTTTTTTTTTTTTTTTTTTTTTTTTTTT NUMDFT      TELAPSE     1080.26 TCPU      937.79
 CYC   9 ETOT(AU) -6.762678617780E+03 DETOT -1.72E-04 tst  1.66E-06 PX  2.29E-03
 TTTTTTTTTTTTTTTTTTTTTTTTTTTTTT DIIS        TELAPSE     1081.41 TCPU      938.93
 DIIS TEST: 0.31716E-03 AT SCF   CYCLE   9 - DIIS ACTIVE - HISTORY:     9 CYCLES
 TTTTTTTTTTTTTTTTTTTTTTTTTTTTTT FDIK        TELAPSE     1100.25 TCPU      950.88
 INSULATING STATE
 TOP OF VALENCE BANDS -    BAND    228; K    1; EIG -2.4446429E-01 AU
 BOTTOM OF VIRTUAL BANDS - BAND    229; K    4; EIG -1.0772216E-01 AU
 INDIRECT ENERGY BAND GAP:   3.7209 eV
 BOTTOM OF VIRTUAL BANDS - BAND    229; K    1; EIG -1.0721085E-01 AU
 TTTTTTTTTTTTTTTTTTTTTTTTTTTTTT PDIG        TELAPSE     1100.93 TCPU      951.57
 TOTAL ATOMIC CHARGES:
   1.2168055   1.2168055   1.2168055   1.2168055   6.1303603   6.1303603
   6.1303603   6.1303603   5.8945740   5.8945740   5.8945740   5.8945740
   5.8077420   5.8077420   5.8077420   5.8077420   5.6205128   5.6205128
   5.6205128   5.6205128   5.6418065   5.6418065   5.6418065   5.6418065
   6.1257463   6.1257463   6.1257463   6.1257463   7.1942476   7.1942476
   7.1942476   7.1942476   7.1024381   7.1024381   7.1024381   7.1024381
   7.1833590   7.1833590   7.1833590   7.1833590   7.0689020   7.0689020
   7.0689020   7.0689020   7.1024436   7.1024436   7.1024436   7.1024436
   9.1606230   9.1606230   9.1606230   9.1606230   9.1653906   9.1653906
   9.1653906   9.1653906   9.1373095   9.1373095   9.1373095   9.1373095
  28.8954842  28.8954734
 TTTTTTTTTTTTTTTTTTTTTTTTTTTTTT MOQGAD      TELAPSE     1100.98 TCPU      951.61
 TTTTTTTTTTTTTTTTTTTTTTTTTTTTTT SHELLXN     TELAPSE     1165.93 TCPU     1015.00
 TTTTTTTTTTTTTTTTTTTTTTTTTTTTTT MONMO3      TELAPSE     1169.73 TCPU     1018.78
 NUMERICALLY INTEGRATED DENSITY    455.9999477846
 TTTTTTTTTTTTTTTTTTTTTTTTTTTTTT NUMDFT      TELAPSE     1175.68 TCPU     1024.70
 CYC  10 ETOT(AU) -6.762678661177E+03 DETOT -4.34E-05 tst  2.02E-07 PX  1.25E-03
 TTTTTTTTTTTTTTTTTTTTTTTTTTTTTT DIIS        TELAPSE     1177.92 TCPU     1026.93
 DIIS TEST: 0.33456E-04 AT SCF   CYCLE  10 - DIIS ACTIVE - HISTORY:    10 CYCLES
 TTTTTTTTTTTTTTTTTTTTTTTTTTTTTT FDIK        TELAPSE     1193.42 TCPU     1039.29
 INSULATING STATE
 TOP OF VALENCE BANDS -    BAND    228; K    1; EIG -2.4444733E-01 AU
 BOTTOM OF VIRTUAL BANDS - BAND    229; K    4; EIG -1.0773320E-01 AU
 INDIRECT ENERGY BAND GAP:   3.7202 eV
 BOTTOM OF VIRTUAL BANDS - BAND    229; K    1; EIG -1.0722490E-01 AU
 TTTTTTTTTTTTTTTTTTTTTTTTTTTTTT PDIG        TELAPSE     1194.10 TCPU     1039.96
 TOTAL ATOMIC CHARGES:
   1.2166417   1.2166417   1.2166417   1.2166417   6.1303269   6.1303269
   6.1303269   6.1303269   5.8944787   5.8944787   5.8944787   5.8944787
   5.8065431   5.8065431   5.8065431   5.8065431   5.6214310   5.6214310
   5.6214310   5.6214310   5.6422028   5.6422028   5.6422028   5.6422028
   6.1264779   6.1264779   6.1264779   6.1264779   7.1946677   7.1946677
   7.1946677   7.1946677   7.1008166   7.1008166   7.1008166   7.1008166
   7.1855920   7.1855920   7.1855920   7.1855920   7.0681914   7.0681914
   7.0681914   7.0681914   7.1021495   7.1021495   7.1021495   7.1021495
   9.1601997   9.1601997   9.1601997   9.1601997   9.1654985   9.1654985
   9.1654985   9.1654985   9.1372285   9.1372285   9.1372285   9.1372285
  28.8950784  28.8951375
 TTTTTTTTTTTTTTTTTTTTTTTTTTTTTT MOQGAD      TELAPSE     1194.14 TCPU     1040.01
 TTTTTTTTTTTTTTTTTTTTTTTTTTTTTT SHELLXN     TELAPSE     1257.91 TCPU     1103.18
 TTTTTTTTTTTTTTTTTTTTTTTTTTTTTT MONMO3      TELAPSE     1262.64 TCPU     1107.90
 NUMERICALLY INTEGRATED DENSITY    455.9999477074
 TTTTTTTTTTTTTTTTTTTTTTTTTTTTTT NUMDFT      TELAPSE     1268.59 TCPU     1113.84
 CYC  11 ETOT(AU) -6.762678664123E+03 DETOT -2.95E-06 tst  5.35E-08 PX  5.70E-04
 TTTTTTTTTTTTTTTTTTTTTTTTTTTTTT DIIS        TELAPSE     1269.10 TCPU     1114.34
 DIIS TEST: 0.16523E-04 AT SCF   CYCLE  11 - DIIS ACTIVE - HISTORY:    11 CYCLES
 TTTTTTTTTTTTTTTTTTTTTTTTTTTTTT FDIK        TELAPSE     1284.17 TCPU     1126.01
 INSULATING STATE
 TOP OF VALENCE BANDS -    BAND    228; K    1; EIG -2.4445261E-01 AU
 BOTTOM OF VIRTUAL BANDS - BAND    229; K    4; EIG -1.0771259E-01 AU
 INDIRECT ENERGY BAND GAP:   3.7209 eV
 BOTTOM OF VIRTUAL BANDS - BAND    229; K    1; EIG -1.0720200E-01 AU
 TTTTTTTTTTTTTTTTTTTTTTTTTTTTTT PDIG        TELAPSE     1284.84 TCPU     1126.69
 TOTAL ATOMIC CHARGES:
   1.2165442   1.2165442   1.2165442   1.2165442   6.1305173   6.1305173
   6.1305173   6.1305173   5.8940457   5.8940457   5.8940457   5.8940457
   5.8069673   5.8069673   5.8069673   5.8069673   5.6211225   5.6211225
   5.6211225   5.6211225   5.6418679   5.6418679   5.6418679   5.6418679
   6.1267088   6.1267088   6.1267088   6.1267088   7.1944163   7.1944163
   7.1944163   7.1944163   7.1016118   7.1016118   7.1016118   7.1016118
   7.1845000   7.1845000   7.1845000   7.1845000   7.0685612   7.0685612
   7.0685612   7.0685612   7.1020875   7.1020875   7.1020875   7.1020875
   9.1604610   9.1604610   9.1604610   9.1604610   9.1655218   9.1655218
   9.1655218   9.1655218   9.1372953   9.1372953   9.1372953   9.1372953
  28.8954766  28.8956093
 TTTTTTTTTTTTTTTTTTTTTTTTTTTTTT MOQGAD      TELAPSE     1284.89 TCPU     1126.73
 TTTTTTTTTTTTTTTTTTTTTTTTTTTTTT SHELLXN     TELAPSE     1351.45 TCPU     1190.00
 TTTTTTTTTTTTTTTTTTTTTTTTTTTTTT MONMO3      TELAPSE     1355.51 TCPU     1194.05
 NUMERICALLY INTEGRATED DENSITY    455.9999477410
 TTTTTTTTTTTTTTTTTTTTTTTTTTTTTT NUMDFT      TELAPSE     1361.46 TCPU     1199.99
 CYC  12 ETOT(AU) -6.762678666691E+03 DETOT -2.57E-06 tst  1.51E-08 PX  3.13E-04
 TTTTTTTTTTTTTTTTTTTTTTTTTTTTTT DIIS        TELAPSE     1362.24 TCPU     1200.76
 DIIS TEST: 0.21602E-05 AT SCF   CYCLE  12 - DIIS ACTIVE - HISTORY:    12 CYCLES
 TTTTTTTTTTTTTTTTTTTTTTTTTTTTTT FDIK        TELAPSE     1377.17 TCPU     1211.96
 INSULATING STATE
 TOP OF VALENCE BANDS -    BAND    228; K    1; EIG -2.4446324E-01 AU
 BOTTOM OF VIRTUAL BANDS - BAND    229; K    4; EIG -1.0772952E-01 AU
 INDIRECT ENERGY BAND GAP:   3.7207 eV
 BOTTOM OF VIRTUAL BANDS - BAND    229; K    1; EIG -1.0721901E-01 AU
 TTTTTTTTTTTTTTTTTTTTTTTTTTTTTT PDIG        TELAPSE     1377.87 TCPU     1212.65
 TOTAL ATOMIC CHARGES:
   1.2165915   1.2165915   1.2165915   1.2165915   6.1306075   6.1306075
   6.1306075   6.1306075   5.8942133   5.8942133   5.8942133   5.8942133
   5.8069703   5.8069703   5.8069703   5.8069703   5.6209625   5.6209625
   5.6209625   5.6209625   5.6419471   5.6419471   5.6419471   5.6419471
   6.1263264   6.1263264   6.1263264   6.1263264   7.1945375   7.1945375
   7.1945375   7.1945375   7.1013801   7.1013801   7.1013801   7.1013801
   7.1847218   7.1847218   7.1847218   7.1847218   7.0684317   7.0684317
   7.0684317   7.0684317   7.1023387   7.1023387   7.1023387   7.1023387
   9.1604785   9.1604785   9.1604785   9.1604785   9.1654822   9.1654822
   9.1654822   9.1654822   9.1372930   9.1372930   9.1372930   9.1372930
  28.8953947  28.8954766
 TTTTTTTTTTTTTTTTTTTTTTTTTTTTTT MOQGAD      TELAPSE     1377.91 TCPU     1212.69
 TTTTTTTTTTTTTTTTTTTTTTTTTTTTTT SHELLXN     TELAPSE     1445.39 TCPU     1275.98
 TTTTTTTTTTTTTTTTTTTTTTTTTTTTTT MONMO3      TELAPSE     1449.88 TCPU     1280.46
 NUMERICALLY INTEGRATED DENSITY    455.9999477356
 TTTTTTTTTTTTTTTTTTTTTTTTTTTTTT NUMDFT      TELAPSE     1455.81 TCPU     1286.38
 CYC  13 ETOT(AU) -6.762678666972E+03 DETOT -2.82E-07 tst  1.58E-09 PX  1.21E-04
 TTTTTTTTTTTTTTTTTTTTTTTTTTTTTT DIIS        TELAPSE     1456.68 TCPU     1287.25
 DIIS TEST: 0.71136E-06 AT SCF   CYCLE  13 - DIIS ACTIVE - HISTORY:    13 CYCLES
 TTTTTTTTTTTTTTTTTTTTTTTTTTTTTT FDIK        TELAPSE     1471.25 TCPU     1299.40
 INSULATING STATE
 TOP OF VALENCE BANDS -    BAND    228; K    1; EIG -2.4446073E-01 AU
 BOTTOM OF VIRTUAL BANDS - BAND    229; K    4; EIG -1.0772659E-01 AU
 INDIRECT ENERGY BAND GAP:   3.7207 eV
 BOTTOM OF VIRTUAL BANDS - BAND    229; K    1; EIG -1.0721633E-01 AU
 TTTTTTTTTTTTTTTTTTTTTTTTTTTTTT PDIG        TELAPSE     1471.92 TCPU     1300.07
 TOTAL ATOMIC CHARGES:
   1.2166013   1.2166013   1.2166013   1.2166013   6.1304652   6.1304652
[...]
 DIIS TEST: 0.18834E+00 AT CPHF  CYCLE   6 - DIIS ACTIVE - HISTORY:     6 CYCLES
 CYCLE   6   ALPHA  901.665198  EPSILON    3.358250  DELTA    2.6973E+00
 TTTTTTTTTTTTTTTTTTTTTTTTTTTTTT MOQGAD      TELAPSE   116704.36 TCPU   115251.88
 TTTTTTTTTTTTTTTTTTTTTTTTTTTTTT CP_MONMON   TELAPSE   116732.55 TCPU   115279.99
 DIIS TEST: 0.13101E-01 AT CPHF  CYCLE   7 - DIIS ACTIVE - HISTORY:     7 CYCLES
 CYCLE   7   ALPHA  901.979557  EPSILON    3.359072  DELTA    3.1436E-01
 TTTTTTTTTTTTTTTTTTTTTTTTTTTTTT MOQGAD      TELAPSE   117991.08 TCPU   116528.61
 TTTTTTTTTTTTTTTTTTTTTTTTTTTTTT CP_MONMON   TELAPSE   118019.23 TCPU   116556.66
 DIIS TEST: 0.17883E-02 AT CPHF  CYCLE   8 - DIIS ACTIVE - HISTORY:     8 CYCLES
 CYCLE   8   ALPHA  902.112252  EPSILON    3.359419  DELTA    1.3269E-01
 TTTTTTTTTTTTTTTTTTTTTTTTTTTTTT MOQGAD      TELAPSE   119311.72 TCPU   117828.03
 TTTTTTTTTTTTTTTTTTTTTTTTTTTTTT CP_MONMON   TELAPSE   119339.89 TCPU   117856.08
 DIIS TEST: 0.21233E-03 AT CPHF  CYCLE   9 - DIIS ACTIVE - HISTORY:     9 CYCLES
 CYCLE   9   ALPHA  902.124503  EPSILON    3.359451  DELTA    1.2251E-02
 TTTTTTTTTTTTTTTTTTTTTTTTTTTTTT MOQGAD      TELAPSE   120599.58 TCPU   119103.99
 TTTTTTTTTTTTTTTTTTTTTTTTTTTTTT CP_MONMON   TELAPSE   120627.73 TCPU   119132.04
 DIIS TEST: 0.28297E-04 AT CPHF  CYCLE  10 - DIIS ACTIVE - HISTORY:    10 CYCLES
 CYCLE  10   ALPHA  902.104210  EPSILON    3.359398  DELTA   -2.0293E-02
 TTTTTTTTTTTTTTTTTTTTTTTTTTTTTT MOQGAD      TELAPSE   121887.18 TCPU   120383.16
 TTTTTTTTTTTTTTTTTTTTTTTTTTTTTT CP_MONMON   TELAPSE   121915.38 TCPU   120411.25
 DIIS TEST: 0.18975E-04 AT CPHF  CYCLE  11 - DIIS ACTIVE - HISTORY:    11 CYCLES
 CYCLE  11   ALPHA  902.094770  EPSILON    3.359374  DELTA   -9.4395E-03
 TTTTTTTTTTTTTTTTTTTTTTTTTTTTTT MOQGAD      TELAPSE   123180.03 TCPU   121653.55
 TTTTTTTTTTTTTTTTTTTTTTTTTTTTTT CP_MONMON   TELAPSE   123208.19 TCPU   121681.56
 DIIS TEST: 0.53954E-05 AT CPHF  CYCLE  12 - DIIS ACTIVE - HISTORY:    12 CYCLES
 CYCLE  12   ALPHA  902.088740  EPSILON    3.359358  DELTA   -6.0305E-03
 TTTTTTTTTTTTTTTTTTTTTTTTTTTTTT MOQGAD      TELAPSE   124467.05 TCPU   122928.84
 TTTTTTTTTTTTTTTTTTTTTTTTTTTTTT CP_MONMON   TELAPSE   124495.25 TCPU   122956.97
 DIIS TEST: 0.50514E-06 AT CPHF  CYCLE  13 - DIIS ACTIVE - HISTORY:    13 CYCLES
 CYCLE  13   ALPHA  902.087289  EPSILON    3.359354  DELTA   -1.4508E-03
 TTTTTTTTTTTTTTTTTTTTTTTTTTTTTT MOQGAD      TELAPSE   125756.73 TCPU   124209.49
 TTTTTTTTTTTTTTTTTTTTTTTTTTTTTT CP_MONMON   TELAPSE   125784.99 TCPU   124237.65
 DIIS TEST: 0.32035E-07 AT CPHF  CYCLE  14 - DIIS ACTIVE - HISTORY:    14 CYCLES
 CYCLE  14   ALPHA  902.086666  EPSILON    3.359352  DELTA   -6.2349E-04
 TTTTTTTTTTTTTTTTTTTTTTTTTTTTTT CP_SC       TELAPSE   125930.19 TCPU   124370.58

 *******************************************************************************

 ELECTRIC FIELD APPLIED ALONG CARTESIAN DIRECTION Z

 *******************************************************************************
 THE NUMBER OF SYMMETRY OPERATORS HAS BEEN REDUCED FROM  4 TO  1

 NEW GRID IN RECIPROCAL SPACE
 *******************************************************************************
 POINTS IN THE IBZ                  14 SHRINKING FACTORS               3  3  3
 *******************************************************************************
 *** K POINTS COORDINATES (OBLIQUE COORDINATES IN UNITS OF SHRINK FAC. )
   1-R(  0  0  0)   2-C(  1  0  0)   3-C(  0  1  2)   4-C(  2  0  1)
   5-C(  0  2  0)   6-C(  1  1  0)   7-C(  1  1  1)   8-C(  1  0  1)
   9-C(  0  1  1)  10-C(  2  1  0)  11-C(  0  0  2)  12-C(  2  1  1)
  13-C(  2  1  2)  14-C(  2  2  1)

 GCALCO - MAX INDICES DIRECT LATTICE VECTOR    14    14    16
 NO.OF VECTORS CREATED 6999 STARS  486 RMAX   200.81054 BOHR
 TTTTTTTTTTTTTTTTTTTTTTTTTTTTTT gordsh1     TELAPSE   125979.21 TCPU   124418.26

 MATRIX SIZE: P(G) 1748172, F(G)  875010, P(G) IRR  877176, F(G) IRR  877176
 MAX G-VECTOR INDEX FOR 1- AND 2-ELECTRON INTEGRALS  59

 TTTTTTTTTTTTTTTTTTTTTTTTTTTTTT INPUT       TELAPSE   126014.01 TCPU   124452.75
 TTTTTTTTTTTTTTTTTTTTTTTTTTTTTT SYMM        TELAPSE   126014.01 TCPU   124452.75

 ***** NEW REFERENCE GEOMETRY *****
 TTTTTTTTTTTTTTTTTTTTTTTTTTTTTT INT_SCREEN  TELAPSE   126014.03 TCPU   124452.76
 INFORMATION **** EXCBUF **** EXCH. BIPO BUFFER: WORDS USED =           0

 DFT PARAMETERS

     ATOM       ELECTRONS   NET CHARGE   R(ANGSTROM)
   1   1  H       1.0000      0.0000     1.11000000
   5   6  C       6.0000      0.0000     0.77000000
  29   7  N       7.0000      0.0000     0.74000000
  49   9  F       9.0000      0.0000     0.72000000
  61  30  ZN     30.0000      0.0000     1.37000000

 SIZE OF GRID=    1976356
 TTTTTTTTTTTTTTTTTTTTTTTTTTTTTT MAKE_GRID2  TELAPSE   126016.13 TCPU   124454.86
 BECKE WEIGHT FUNCTION
 RADSAFE =     2.00
 TOLERANCES - DENSITY:10**- 6; POTENTIAL:10**- 9; GRID WGT:10**-14

 RADIAL INTEGRATION  - INTERVALS (POINTS,UPPER LIMIT):            1( 75,  4.0*R)

 ANGULAR INTEGRATION - INTERVALS (ACCURACY LEVEL [N. POINTS] UPPER LIMIT):
  1(  4[  86]   0.2)  2(  8[ 194]   0.5)  3( 12[ 350]   0.9)  4( 16[ 974]   3.5)
  5( 12[ 350]9999.0)
 TTTTTTTTTTTTTTTTTTTTTTTTTTTTTT INT_CALC    TELAPSE   126016.23 TCPU   124454.96
 CYCLE   0   ALPHA  547.094715  EPSILON    2.430893  DELTA    5.4709E+02
 TTTTTTTTTTTTTTTTTTTTTTTTTTTTTT MOQGAD      TELAPSE   127217.45 TCPU   125650.30
 TTTTTTTTTTTTTTTTTTTTTTTTTTTTTT CP_MONMON   TELAPSE   127245.83 TCPU   125678.60
 DIIS TEST: 0.79671E+02 AT CPHF  CYCLE   1 - MIX    0 %
 CYCLE   1   ALPHA  242.341461  EPSILON    1.633829  DELTA   -3.0475E+02
 TTTTTTTTTTTTTTTTTTTTTTTTTTTTTT MOQGAD      TELAPSE   128481.35 TCPU   126905.85
 TTTTTTTTTTTTTTTTTTTTTTTTTTTTTT CP_MONMON   TELAPSE   128509.72 TCPU   126934.14
 DIIS TEST: 0.60500E+03 AT CPHF  CYCLE   2 - DIIS ACTIVE - HISTORY:     2 CYCLES
 CYCLE   2   ALPHA  395.284835  EPSILON    2.033843  DELTA    1.5294E+02
 TTTTTTTTTTTTTTTTTTTTTTTTTTTTTT MOQGAD      TELAPSE   129749.15 TCPU   128159.38
 TTTTTTTTTTTTTTTTTTTTTTTTTTTTTT CP_MONMON   TELAPSE   129777.30 TCPU   128187.45
 DIIS TEST: 0.19146E+02 AT CPHF  CYCLE   3 - DIIS ACTIVE - HISTORY:     3 CYCLES
 CYCLE   3   ALPHA  421.659041  EPSILON    2.102823  DELTA    2.6374E+01
 TTTTTTTTTTTTTTTTTTTTTTTTTTTTTT MOQGAD      TELAPSE   131057.97 TCPU   129441.90
 TTTTTTTTTTTTTTTTTTTTTTTTTTTTTT CP_MONMON   TELAPSE   131086.31 TCPU   129470.17
 DIIS TEST: 0.54106E+01 AT CPHF  CYCLE   4 - DIIS ACTIVE - HISTORY:     4 CYCLES
 CYCLE   4   ALPHA  423.129871  EPSILON    2.106670  DELTA    1.4708E+00
 TTTTTTTTTTTTTTTTTTTTTTTTTTTTTT MOQGAD      TELAPSE   132321.92 TCPU   130698.08
 TTTTTTTTTTTTTTTTTTTTTTTTTTTTTT CP_MONMON   TELAPSE   132350.05 TCPU   130726.14
 DIIS TEST: 0.13844E+00 AT CPHF  CYCLE   5 - DIIS ACTIVE - HISTORY:     5 CYCLES
 CYCLE   5   ALPHA  423.571430  EPSILON    2.107825  DELTA    4.4156E-01
 TTTTTTTTTTTTTTTTTTTTTTTTTTTTTT MOQGAD      TELAPSE   133589.01 TCPU   131955.91
 TTTTTTTTTTTTTTTTTTTTTTTTTTTTTT CP_MONMON   TELAPSE   133617.18 TCPU   131984.01
 DIIS TEST: 0.25179E-01 AT CPHF  CYCLE   6 - DIIS ACTIVE - HISTORY:     6 CYCLES
 CYCLE   6   ALPHA  423.698196  EPSILON    2.108157  DELTA    1.2677E-01
 TTTTTTTTTTTTTTTTTTTTTTTTTTTTTT MOQGAD      TELAPSE   134855.14 TCPU   133211.19
 TTTTTTTTTTTTTTTTTTTTTTTTTTTTTT CP_MONMON   TELAPSE   134883.49 TCPU   133239.47
 DIIS TEST: 0.53998E-02 AT CPHF  CYCLE   7 - DIIS ACTIVE - HISTORY:     7 CYCLES
 CYCLE   7   ALPHA  423.705775  EPSILON    2.108177  DELTA    7.5796E-03
 TTTTTTTTTTTTTTTTTTTTTTTTTTTTTT MOQGAD      TELAPSE   136121.82 TCPU   134468.19
 TTTTTTTTTTTTTTTTTTTTTTTTTTTTTT CP_MONMON   TELAPSE   136150.19 TCPU   134496.46
 DIIS TEST: 0.11521E-02 AT CPHF  CYCLE   8 - DIIS ACTIVE - HISTORY:     8 CYCLES
 CYCLE   8   ALPHA  423.726852  EPSILON    2.108232  DELTA    2.1076E-02
 TTTTTTTTTTTTTTTTTTTTTTTTTTTTTT MOQGAD      TELAPSE   137433.03 TCPU   135771.55
 TTTTTTTTTTTTTTTTTTTTTTTTTTTTTT CP_MONMON   TELAPSE   137461.18 TCPU   135799.62
 DIIS TEST: 0.71051E-04 AT CPHF  CYCLE   9 - DIIS ACTIVE - HISTORY:     9 CYCLES
 CYCLE   9   ALPHA  423.720396  EPSILON    2.108215  DELTA   -6.4559E-03
 TTTTTTTTTTTTTTTTTTTTTTTTTTTTTT MOQGAD      TELAPSE   138694.12 TCPU   137021.46
 TTTTTTTTTTTTTTTTTTTTTTTTTTTTTT CP_MONMON   TELAPSE   138722.28 TCPU   137049.28
 DIIS TEST: 0.16648E-04 AT CPHF  CYCLE  10 - DIIS ACTIVE - HISTORY:    10 CYCLES
 CYCLE  10   ALPHA  423.714978  EPSILON    2.108201  DELTA   -5.4180E-03
 TTTTTTTTTTTTTTTTTTTTTTTTTTTTTT MOQGAD      TELAPSE   139996.44 TCPU   138316.98
 TTTTTTTTTTTTTTTTTTTTTTTTTTTTTT CP_MONMON   TELAPSE   140024.94 TCPU   138344.86
 DIIS TEST: 0.11615E-05 AT CPHF  CYCLE  11 - DIIS ACTIVE - HISTORY:    11 CYCLES
 CYCLE  11   ALPHA  423.714356  EPSILON    2.108199  DELTA   -6.2136E-04
 TTTTTTTTTTTTTTTTTTTTTTTTTTTTTT CP_SC       TELAPSE   140152.60 TCPU   138457.40

 *******************************************************************************

 POLARIZABILITY (ALPHA), DIELECTRIC (EPSILON) AND FIRST-ORDER ELECTRIC
 SUSCEPTIBILITY (CHI(1)) TENSORS (INDEPENDENT COMPONENTS)

  FR.(eV) COMP.   ALPHA(Re,Im)           EPSILON(Re,Im)                CHI(1)
  2.331   XX     902.0870       0.0000       3.3594       0.0000       2.3594
  2.331   XY      -0.0019       0.0000      -0.0000       0.0000      -0.0000
  2.331   XZ      -0.0000       0.0000      -0.0000       0.0000      -0.0000
  2.331   YY     902.0867       0.0000       3.3594       0.0000       2.3594
  2.331   YZ      -0.0000       0.0000      -0.0000       0.0000      -0.0000
  2.331   ZZ     423.7144       0.0000       2.1082       0.0000       1.1082

 DIELECTRIC TENSOR

 TENSOR IN PRINCIPAL AXES SYSTEM
 AA  3.359358E+00 BB  3.359348E+00 CC  2.108199E+00

 REFRACTIVE INDICES 
 AA  1.451964E+00 BB  1.832852E+00 CC  1.832855E+00

 OPTICALLY ANISOTROPIC - UNIAXIAL CRYSTAL

 BIREFRINGENCE =  0.3809 (NEGATIVE) - OBLATE OPTICAL ELLIPSOID

 EPSILON=N**2=1+CHI(1)=1+ALPHA*4*PI/V,   4*PI/V=   0.00262 BOHR**(-3)
 ALPHA IN BOHR**3; EPSILON AND CHI(1) ARE DIMENSIONLESS.
 *******************************************************************************


  Pockels Effect beta(-omega;omega,0) with omega=   1.1653 eV


 SIZE OF GRID=    1976356
 TTTTTTTTTTTTTTTTTTTTTTTTTTTTTT MAKE_GRID2  TELAPSE   140670.57 TCPU   138969.58
 BECKE WEIGHT FUNCTION
 RADSAFE =     2.00
 TOLERANCES - DENSITY:10**- 6; POTENTIAL:10**- 9; GRID WGT:10**-14

 RADIAL INTEGRATION  - INTERVALS (POINTS,UPPER LIMIT):            1( 75,  4.0*R)

 ANGULAR INTEGRATION - INTERVALS (ACCURACY LEVEL [N. POINTS] UPPER LIMIT):
  1(  4[  86]   0.2)  2(  8[ 194]   0.5)  3( 12[ 350]   0.9)  4( 16[ 974]   3.5)
  5( 12[ 350]9999.0)

 SIZE OF GRID=    1976356
 TTTTTTTTTTTTTTTTTTTTTTTTTTTTTT MAKE_GRID2  TELAPSE   140675.86 TCPU   138974.58
 BECKE WEIGHT FUNCTION
 RADSAFE =     2.00
 TOLERANCES - DENSITY:10**- 6; POTENTIAL:10**- 9; GRID WGT:10**-14

 RADIAL INTEGRATION  - INTERVALS (POINTS,UPPER LIMIT):            1( 75,  4.0*R)

 ANGULAR INTEGRATION - INTERVALS (ACCURACY LEVEL [N. POINTS] UPPER LIMIT):
  1(  4[  86]   0.2)  2(  8[ 194]   0.5)  3( 12[ 350]   0.9)  4( 16[ 974]   3.5)
  5( 12[ 350]9999.0)
 *******************************************************************************

 DC-POCKELS AND SECOND ELECTRIC SUSCEPTIBILITY (CHI(2))
 TENSORS (INDEPENDENT COMPONENTS)

BETA                                         CHI(2)       d(MKS)       d(cgs)
 *******************************************************************************

     XXX         -0.1043E-02  -0.1364E-05  -0.1326E-05  -0.3165E-07
     XXY         -0.5521E-04  -0.7219E-07  -0.7020E-07  -0.1675E-08
     XXZ         -0.1312E+03  -0.1715E+00  -0.1668E+00  -0.3979E-02
     XYX         -0.1926E-03  -0.2519E-06  -0.2449E-06  -0.5843E-08
     XYY         -0.7372E-03  -0.9640E-06  -0.9373E-06  -0.2236E-07
     XYZ         -0.2098E+03  -0.2744E+00  -0.2668E+00  -0.6364E-02
     XZX         -0.1305E+03  -0.1706E+00  -0.1659E+00  -0.3957E-02
     XZY         -0.2024E+03  -0.2646E+00  -0.2573E+00  -0.6139E-02
     XZZ         -0.6849E-03  -0.8957E-06  -0.8709E-06  -0.2078E-07
     YXX         -0.1740E-03  -0.2276E-06  -0.2213E-06  -0.5280E-08
     YXY         -0.7158E-03  -0.9361E-06  -0.9102E-06  -0.2171E-07
     YXZ         -0.2098E+03  -0.2743E+00  -0.2668E+00  -0.6364E-02
     YYX         -0.7093E-04  -0.9275E-07  -0.9019E-07  -0.2152E-08
     YYY         -0.2190E-03  -0.2863E-06  -0.2784E-06  -0.6642E-08
     YYZ          0.1312E+03   0.1715E+00   0.1668E+00   0.3979E-02
     YZX         -0.2024E+03  -0.2646E+00  -0.2573E+00  -0.6139E-02
     YZY          0.1305E+03   0.1706E+00   0.1659E+00   0.3958E-02
     YZZ         -0.1050E-03  -0.1374E-06  -0.1336E-06  -0.3186E-08
     ZXX         -0.1305E+03  -0.1706E+00  -0.1659E+00  -0.3957E-02
     ZXY         -0.2024E+03  -0.2646E+00  -0.2573E+00  -0.6138E-02
     ZXZ         -0.6498E-03  -0.8498E-06  -0.8263E-06  -0.1971E-07
     ZYX         -0.2024E+03  -0.2646E+00  -0.2573E+00  -0.6138E-02
     ZYY          0.1305E+03   0.1706E+00   0.1659E+00   0.3958E-02
     ZYZ         -0.1006E-03  -0.1316E-06  -0.1279E-06  -0.3052E-08
     ZZX         -0.1611E-03  -0.2107E-06  -0.2049E-06  -0.4887E-08
     ZZY          0.1279E-04   0.1673E-07   0.1627E-07   0.3881E-09
     ZZZ          0.1096E-01   0.1433E-04   0.1393E-04   0.3323E-06
 *******************************************************************************
 CHI(2) = BETA*2PI/V

 BETA AND CHI(2) IN A.U.:    [BETA] = M**(-1/2) L**(7/2) T
                             [CHI(2)] = 1/F
                             (L=LENGTH, M=MASS, T=TIME, F=FIELD INTENSITY)

 ELECTRIC SUSCEPTIBILITY IN THE SECOND HARMONIC GENERATION (SHG) CONVENTION IS:
                   d(A.U.)= 1/2 CHI(2)
                   d(MKS) = d(A.U.)/0.514220632 pm/V
                   d(CGS) = d(A.U.)/(4PI*1.7152535)  10**(-7) esu

 FIELD INTENSITY: 1 A.U. = 0.514220632*10**(11) V/m = 1.7152535*10**7 esu
 BEWARE:                CHI(2)=P/(E0*F**2)   (MKS)
                        CHI(2)=P/F**2        (CGS)
 WHERE P IS THE POLARIZATION VECTOR AND F IS THE APPLIED ELECTRIC FIELD.
 CONSISTENCY IS  PRESERVED BY MULTIPLYING THE CGS VALUE TIMES THE PERMITTIVITY
 OF THE VACUUM, E0 (CONVERSION FACTORS FROM www.physics.nist.gov/constants).
 IN PARENTHESIS: BETA BEFORE SYMMETRIZATION.

  SHG Effect beta(-2omega;omega,omega) with omega=   1.1653 eV


 SIZE OF GRID=    1976356
 TTTTTTTTTTTTTTTTTTTTTTTTTTTTTT MAKE_GRID2  TELAPSE   141109.35 TCPU   139405.89
 BECKE WEIGHT FUNCTION
 RADSAFE =     2.00
 TOLERANCES - DENSITY:10**- 6; POTENTIAL:10**- 9; GRID WGT:10**-14

 RADIAL INTEGRATION  - INTERVALS (POINTS,UPPER LIMIT):            1( 75,  4.0*R)

 ANGULAR INTEGRATION - INTERVALS (ACCURACY LEVEL [N. POINTS] UPPER LIMIT):
  1(  4[  86]   0.2)  2(  8[ 194]   0.5)  3( 12[ 350]   0.9)  4( 16[ 974]   3.5)
  5( 12[ 350]9999.0)

 SIZE OF GRID=    1976356
 TTTTTTTTTTTTTTTTTTTTTTTTTTTTTT MAKE_GRID2  TELAPSE   141111.83 TCPU   139408.36
 BECKE WEIGHT FUNCTION
 RADSAFE =     2.00
 TOLERANCES - DENSITY:10**- 6; POTENTIAL:10**- 9; GRID WGT:10**-14

 RADIAL INTEGRATION  - INTERVALS (POINTS,UPPER LIMIT):            1( 75,  4.0*R)

 ANGULAR INTEGRATION - INTERVALS (ACCURACY LEVEL [N. POINTS] UPPER LIMIT):
  1(  4[  86]   0.2)  2(  8[ 194]   0.5)  3( 12[ 350]   0.9)  4( 16[ 974]   3.5)
  5( 12[ 350]9999.0)
 *******************************************************************************

 SECOND HARMONIC GENERATION (SHG)  AND SECOND ELECTRIC SUSCEPTIBILITY (CHI(2))
 TENSORS (INDEPENDENT COMPONENTS)

BETA                                         CHI(2)       d(MKS)       d(cgs)
 *******************************************************************************

     XXX         -0.2295E-02  -0.3002E-05  -0.2919E-05  -0.6963E-07
     XXY         -0.2572E-03  -0.3364E-06  -0.3271E-06  -0.7803E-08
     XXZ         -0.1707E+03  -0.2232E+00  -0.2171E+00  -0.5179E-02
     XYX         -0.2572E-03  -0.3364E-06  -0.3271E-06  -0.7803E-08
     XYY         -0.1103E-02  -0.1443E-05  -0.1403E-05  -0.3347E-07
     XYZ         -0.1952E+03  -0.2552E+00  -0.2482E+00  -0.5921E-02
     XZX         -0.1707E+03  -0.2232E+00  -0.2171E+00  -0.5179E-02
     XZY         -0.1952E+03  -0.2552E+00  -0.2482E+00  -0.5921E-02
     XZZ         -0.8499E-03  -0.1111E-05  -0.1081E-05  -0.2578E-07
     YXX         -0.2266E-03  -0.2963E-06  -0.2881E-06  -0.6874E-08
     YXY         -0.8325E-03  -0.1089E-05  -0.1059E-05  -0.2525E-07
     YXZ         -0.1952E+03  -0.2552E+00  -0.2482E+00  -0.5920E-02
     YYX         -0.8325E-03  -0.1089E-05  -0.1059E-05  -0.2525E-07
     YYY         -0.4008E-03  -0.5241E-06  -0.5096E-06  -0.1216E-07
     YYZ          0.1707E+03   0.2233E+00   0.2171E+00   0.5179E-02
     YZX         -0.1952E+03  -0.2552E+00  -0.2482E+00  -0.5920E-02
     YZY          0.1707E+03   0.2233E+00   0.2171E+00   0.5179E-02
     YZZ         -0.1409E-03  -0.1843E-06  -0.1792E-06  -0.4276E-08
     ZXX         -0.1595E+03  -0.2086E+00  -0.2028E+00  -0.4839E-02
     ZXY         -0.1964E+03  -0.2569E+00  -0.2498E+00  -0.5958E-02
     ZXZ         -0.7017E-03  -0.9176E-06  -0.8922E-06  -0.2128E-07
     ZYX         -0.1964E+03  -0.2569E+00  -0.2498E+00  -0.5958E-02
     ZYY          0.1595E+03   0.2086E+00   0.2029E+00   0.4839E-02
     ZYZ         -0.1001E-03  -0.1309E-06  -0.1273E-06  -0.3038E-08
     ZZX         -0.7017E-03  -0.9176E-06  -0.8922E-06  -0.2128E-07
     ZZY         -0.1001E-03  -0.1309E-06  -0.1273E-06  -0.3038E-08
     ZZZ          0.1685E-01   0.2203E-04   0.2142E-04   0.5111E-06
 *******************************************************************************
 CHI(2) = BETA*2PI/V

 BETA AND CHI(2) IN A.U.:    [BETA] = M**(-1/2) L**(7/2) T
                             [CHI(2)] = 1/F
                             (L=LENGTH, M=MASS, T=TIME, F=FIELD INTENSITY)

 ELECTRIC SUSCEPTIBILITY IN THE SECOND HARMONIC GENERATION (SHG) CONVENTION IS:
                   d(A.U.)= 1/2 CHI(2)
                   d(MKS) = d(A.U.)/0.514220632 pm/V
                   d(CGS) = d(A.U.)/(4PI*1.7152535)  10**(-7) esu

 FIELD INTENSITY: 1 A.U. = 0.514220632*10**(11) V/m = 1.7152535*10**7 esu
 BEWARE:                CHI(2)=P/(E0*F**2)   (MKS)
                        CHI(2)=P/F**2        (CGS)
 WHERE P IS THE POLARIZATION VECTOR AND F IS THE APPLIED ELECTRIC FIELD.
 CONSISTENCY IS  PRESERVED BY MULTIPLYING THE CGS VALUE TIMES THE PERMITTIVITY
 OF THE VACUUM, E0 (CONVERSION FACTORS FROM www.physics.nist.gov/constants).
 IN PARENTHESIS: BETA BEFORE SYMMETRIZATION.

 *******************************************************************************


 GCALCO - MAX INDICES DIRECT LATTICE VECTOR    14    14    16
 NO.OF VECTORS CREATED 6999 STARS  486 RMAX   200.81054 BOHR

 CAPPA:IS1  3;IS2  3;IS3  3; K PTS MONK NET   6; SYMMOPS:K SPACE   8;G SPACE   4

 TTTTTTTTTTTTTTTTTTTTTTTTTTTTTT END         TELAPSE   141112.22 TCPU   139408.74
 EEEEEEEEEE TERMINATION  DATE 03 12 2023 TIME 12:49:11.3
NODE    0 CPU TIME =    139408.740
NODE    1 CPU TIME =    140302.914
NODE    2 CPU TIME =    139972.826
NODE    3 CPU TIME =    139816.095
NODE    4 CPU TIME =    140028.837
NODE    5 CPU TIME =    140179.229
NODE    6 CPU TIME =    140018.441
NODE    7 CPU TIME =    139848.590
NODE    8 CPU TIME =    139724.761
NODE    9 CPU TIME =    139970.226
NODE   10 CPU TIME =    138800.474
NODE   11 CPU TIME =    138579.430
NODE   12 CPU TIME =    138376.500
NODE   13 CPU TIME =    138759.319
NODE   14 CPU TIME =    138556.844
NODE   15 CPU TIME =    138556.479
NODE   16 CPU TIME =    138423.573
NODE   17 CPU TIME =    138479.802
NODE   18 CPU TIME =    138579.896
NODE   19 CPU TIME =    138406.199
NODE   20 CPU TIME =    138620.501
NODE   21 CPU TIME =    138675.967
NODE   22 CPU TIME =    138608.141
NODE   23 CPU TIME =    138369.839
    TOTAL CPU TIME =   3339063.624
trying normal rsh (/usr/bin/rsh)
exec: No such file or directory
trying normal rsh (/usr/bin/rsh)
exec: No such file or directory
trying normal rsh (/usr/bin/rsh)
exec: No such file or directory
trying normal rsh (/usr/bin/rsh)
exec: No such file or directory
