Loading crystal17/1.0.2/intel/19.0
  Loading requirement: intel/19.0 ompi/4.0.1/intel/19.0
 PROCESS            1  OF           24  WORKING
 PROCESS            5  OF           24  WORKING
 PROCESS           10  OF           24  WORKING
 PROCESS           18  OF           24  WORKING
 PROCESS            0  OF           24  WORKING
 PROCESS           23  OF           24  WORKING
 PROCESS            2  OF           24  WORKING
 PROCESS            3  OF           24  WORKING
 PROCESS            4  OF           24  WORKING
 PROCESS            6  OF           24  WORKING
 PROCESS            7  OF           24  WORKING
 PROCESS            8  OF           24  WORKING
 PROCESS            9  OF           24  WORKING
 PROCESS           11  OF           24  WORKING
 PROCESS           12  OF           24  WORKING
 PROCESS           13  OF           24  WORKING
 PROCESS           15  OF           24  WORKING
 PROCESS           16  OF           24  WORKING
 PROCESS           17  OF           24  WORKING
 PROCESS           19  OF           24  WORKING
 PROCESS           20  OF           24  WORKING
 PROCESS           21  OF           24  WORKING
 PROCESS           22  OF           24  WORKING
 PROCESS           14  OF           24  WORKING

         
 *******************************************************************************
 *                                                                             *
 *                               CRYSTAL17                                     *
 *                      public : 1.0.2 - March 1st, 2018                       *
 *                       HTTP://WWW.CRYSTAL.UNITO.IT                           *
 *                                                                             *
 *                              MAIN AUTHORS                                   *
 *                                                                             *
 *  R. DOVESI(1,11), V.R. SAUNDERS(2), C. ROETTI(1,11), R. ORLANDO(1,11),      *
 *  C.M. ZICOVICH-WILSON(1,3), F. PASCALE(4), B. CIVALLERI(1,11),              *
 *  K. DOLL(5), N.M. HARRISON(2,6), I.J. BUSH(7), Ph. D'ARCO(8),               *
 *  M. LLUNELL(9), M. CAUSA'(10), Y. NOEL(8), L. MASCHIO(1,11), A. ERBA(1,11)  *
 *  M. RE'RAT(14), S. CASASSA(1,11)                                            *
 *                                                                             *
 *        CONTRIBUTIONS TO THE CODE HAVE ALSO BEEN GIVEN BY                    *
 *                                                                             *
 *  M. FERRABONE(1,11), M. DE LA PIERRE(1,11), M. FERRERO(1,11),               *
 *  J. BAIMA(1,11), E. ALBANESE(1,11), M.F. PEINTINGER(12), R. BAST(13),       *
 *  B. KIRTMAN(15), V. LACIVITA(1,11), R. DEMICHELIS(1,16)                     *
 *  G. BRANDEBURG(17), S. SALUSTRO(1,11), G. SANSONE(1,11)                     *
 *  M.T. RUGGIERO(18)                                                          *
 *                                                                             *
 * (1) THEORETICAL CHEMISTRY GROUP - UNIVERSITA' DI TORINO - TORINO (ITALY)    *
 * (2) COMPUTATIONAL SCIENCE & ENGINEERING DEPARTMENT - STFC DARESBURY (UK)    *
 * (3) UNIVERSIDAD AUTONOMA DEL ESTADO DE MORELOS - CUERNAVACA (MEXICO)        *
 * (4) UNIVERSITE' DE LORRAINE - NANCY (FRANCE)                                *
 * (5) UNIVERSITAET STUTTGART- STUTTGART (GERMANY)                             *
 * (6) IMPERIAL COLLEGE - LONDON (UK)                                          *
 * (7) OXFORD E-RESEARCH CENTRE - OXFORD (UK)                                  *
 * (8) UPMC - SORBONNE UNIVERSITES - PARIS (FRANCE)                            *
 * (9) UNIVERSIDAD DE BARCELONA - BARCELONA (SPAIN)                            *
 *(10) UNIVERSITA' DI NAPOLI "FEDERICO II" - NAPOLI (ITALY)                    *
 *(11) NIS - NANOSTRUCTURED INTERFACES AND SURFACES - TORINO (ITALY)           *
 *(12) MPI FUER CHEMISCHE ENERGIEKONVERSION - MUELHEIM AN DER RUHR (GERMANY)   *
 *(13) UNIVERSITY OF TROMSO - TROMSO (NORWAY)                                  *
 *(14) UNIVERSITE' DE PAU ET DES PAYS DE L'ADOUR - PAU (FRANCE)                *
 *(15) UNIVERSITY OF CALIFORNIA SANTA BARBARA - SANTA BARBARA (USA)            *
 *(16) CURTIN UNIVERSITY - PERTH (AUSTRALIA)                                   *
 *(17) UNIVERSITY COLLEGE LONDON - LONDON (UK)                                 *
 *(18) CAMBRIDGE UNIVERSITY - CAMBRIDGE (UK)                                   *
 *                                                                             *
 *******************************************************************************
 EEEEEEEEEE STARTING  DATE 02 12 2023 TIME 22:52:12.8
 Z:\home\sanoj\Downloads\tmp_p\newconn.mol                                       

 CRYSTAL CALCULATION
 (INPUT ACCORDING TO THE INTERNATIONAL TABLES FOR X-RAY CRYSTALLOGRAPHY)
 CRYSTAL FAMILY                       :  TETRAGONAL  
 CRYSTAL CLASS  (GROTH - 1921)        :  TETRAGONAL DISPHENOIDAL              

 SPACE GROUP (NONCENTROSYMMETRIC)     :  I -4            

 LATTICE PARAMETERS  (ANGSTROMS AND DEGREES) - CONVENTIONAL CELL
        A           B           C        ALPHA        BETA       GAMMA
    10.86265    10.86265    11.79955    90.00000    90.00000    90.00000


 NUMBER OF IRREDUCIBLE ATOMS IN THE CONVENTIONAL CELL:   17

 INPUT COORDINATES

 ATOM AT. N.              COORDINATES
   1   1     4.657400000000E-01  8.250600000000E-01  4.176500000000E-01
   2   6     2.696700000000E-01  8.146600000000E-01  3.832300000000E-01
   3   6     2.542500000000E-01 -5.259000000000E-02  3.789900000000E-01
   4   6     1.738600000000E-01  7.298200000000E-01  3.666000000000E-01
   5   6     3.219900000000E-01  5.676100000000E-01  3.714300000000E-01
   6   6     3.879500000000E-01  7.648800000000E-01  3.984100000000E-01
   7   6     8.007000000000E-01  3.954000000000E-01  3.612100000000E-01
   8   7     3.462500000000E-01  2.303000000000E-02  3.436100000000E-01
   9   7     3.037600000000E-01  1.419000000000E-01  3.539300000000E-01
  10   7     1.560400000000E-01  1.715000000000E-02  4.085800000000E-01
  11   7     1.897700000000E-01  1.385000000000E-01  3.917700000000E-01
  12   7     4.133400000000E-01  6.444400000000E-01  3.911300000000E-01
  13   9     5.669000000000E-02  7.672800000000E-01  3.571300000000E-01
  14   9     1.101600000000E-01  5.210700000000E-01  3.478000000000E-01
  15   9     3.459500000000E-01  4.476000000000E-01  3.610700000000E-01
  16  30     0.000000000000E+00  5.000000000000E-01  7.500000000000E-01
  17  30     0.000000000000E+00  0.000000000000E+00  5.000000000000E-01

 *******************************************************************************

 << INFORMATION >>: FROM NOW ON, ALL COORDINATES REFER TO THE PRIMITIVE CELL

 *******************************************************************************

 LATTICE PARAMETERS  (ANGSTROMS AND DEGREES) - PRIMITIVE CELL
       A          B          C        ALPHA      BETA     GAMMA        VOLUME
    9.68535    9.68535    9.68535   111.78082 111.78082 104.94467    696.157249

 COORDINATES OF THE EQUIVALENT ATOMS (FRACTIONAL UNITS)

 N. ATOM EQUIV AT. N.          X                  Y                  Z

   1   1   1    1 H     2.42710000000E-01 -1.16610000000E-01  2.90800000000E-01
   2   1   2    1 H    -4.07410000000E-01 -4.80900000000E-02 -2.90800000000E-01
   3   1   3    1 H     1.16610000000E-01  4.07410000000E-01  3.59320000000E-01
   4   1   4    1 H     4.80900000000E-02 -2.42710000000E-01 -3.59320000000E-01

   5   2   1    6 C     1.97890000000E-01 -3.47100000000E-01  8.43300000000E-02
   6   2   2    6 C    -4.31430000000E-01  1.13560000000E-01 -8.43300000000E-02
   7   2   3    6 C     3.47100000000E-01  4.31430000000E-01 -4.55010000000E-01
   8   2   4    6 C    -1.13560000000E-01 -1.97890000000E-01  4.55010000000E-01

   9   3   1    6 C     3.26400000000E-01 -3.66760000000E-01  2.01660000000E-01
  10   3   2    6 C     4.31580000000E-01  1.24740000000E-01 -2.01660000000E-01
  11   3   3    6 C     3.66760000000E-01 -4.31580000000E-01 -3.06840000000E-01
  12   3   4    6 C    -1.24740000000E-01 -3.26400000000E-01  3.06840000000E-01

  13   4   1    6 C     9.64200000000E-02 -4.59540000000E-01 -9.63200000000E-02
  14   4   2    6 C    -3.63220000000E-01  1.92740000000E-01  9.63200000000E-02
  15   4   3    6 C     4.59540000000E-01  3.63220000000E-01 -4.44040000000E-01
  16   4   4    6 C    -1.92740000000E-01 -9.64200000000E-02  4.44040000000E-01

  17   5   1    6 C    -6.09600000000E-02 -3.06580000000E-01 -1.10400000000E-01
  18   5   2    6 C    -1.96180000000E-01  4.94400000000E-02  1.10400000000E-01
  19   5   3    6 C     3.06580000000E-01  1.96180000000E-01  2.45620000000E-01
  20   5   4    6 C    -4.94400000000E-02  6.09600000000E-02 -2.45620000000E-01

  21   6   1    6 C     1.63290000000E-01 -2.13640000000E-01  1.52830000000E-01
  22   6   2    6 C    -3.66470000000E-01  1.04600000000E-02 -1.52830000000E-01
  23   6   3    6 C     2.13640000000E-01  3.66470000000E-01  3.76930000000E-01
  24   6   4    6 C    -1.04600000000E-02 -1.63290000000E-01 -3.76930000000E-01

  25   7   1    6 C    -2.43390000000E-01  1.61910000000E-01  1.96100000000E-01
  26   7   2    6 C    -3.41900000000E-02 -4.39490000000E-01 -1.96100000000E-01
  27   7   3    6 C    -1.61910000000E-01  3.41900000000E-02 -4.05300000000E-01
  28   7   4    6 C     4.39490000000E-01  2.43390000000E-01  4.05300000000E-01

  29   8   1    7 N     3.66640000000E-01 -3.10140000000E-01  3.69280000000E-01
  30   8   2    7 N     3.20580000000E-01 -2.64000000000E-03 -3.69280000000E-01
  31   8   3    7 N     3.10140000000E-01 -3.20580000000E-01 -3.23220000000E-01
  32   8   4    7 N     2.64000000000E-03 -3.66640000000E-01  3.23220000000E-01

  33   9   1    7 N     4.95830000000E-01 -3.42310000000E-01  4.45660000000E-01
  34   9   2    7 N     2.12030000000E-01  5.01700000000E-02 -4.45660000000E-01
  35   9   3    7 N     3.42310000000E-01 -2.12030000000E-01 -1.61860000000E-01
  36   9   4    7 N    -5.01700000000E-02 -4.95830000000E-01  1.61860000000E-01

  37  10   1    7 N     4.25730000000E-01 -4.35380000000E-01  1.73190000000E-01
  38  10   2    7 N     3.91430000000E-01  2.52540000000E-01 -1.73190000000E-01
  39  10   3    7 N     4.35380000000E-01 -3.91430000000E-01 -1.38890000000E-01
  40  10   4    7 N    -2.52540000000E-01 -4.25730000000E-01  1.38890000000E-01

  41  11   1    7 N    -4.69730000000E-01 -4.18460000000E-01  3.28270000000E-01
  42  11   2    7 N     2.53270000000E-01  2.02000000000E-01 -3.28270000000E-01
  43  11   3    7 N     4.18460000000E-01 -2.53270000000E-01 -5.12700000000E-02
  44  11   4    7 N    -2.02000000000E-01  4.69730000000E-01  5.12700000000E-02

  45  12   1    7 N     3.55700000000E-02 -1.95530000000E-01  5.77800000000E-02
  46  12   2    7 N    -2.53310000000E-01 -2.22100000000E-02 -5.77800000000E-02
  47  12   3    7 N     1.95530000000E-01  2.53310000000E-01  2.31100000000E-01
  48  12   4    7 N     2.22100000000E-02 -3.55700000000E-02 -2.31100000000E-01

  49  13   1    9 F     1.24410000000E-01  4.13820000000E-01 -1.76030000000E-01
  50  13   2    9 F    -4.10150000000E-01  3.00440000000E-01  1.76030000000E-01
  51  13   3    9 F    -4.13820000000E-01  4.10150000000E-01 -2.89410000000E-01
  52  13   4    9 F    -3.00440000000E-01 -1.24410000000E-01  2.89410000000E-01

  53  14   1    9 F    -1.31130000000E-01  4.57960000000E-01 -3.68770000000E-01
  54  14   2    9 F    -1.73270000000E-01  2.37640000000E-01  3.68770000000E-01
  55  14   3    9 F    -4.57960000000E-01  1.73270000000E-01  4.10910000000E-01
  56  14   4    9 F    -2.37640000000E-01  1.31130000000E-01 -4.10910000000E-01

  57  15   1    9 F    -1.91330000000E-01 -2.92980000000E-01 -2.06450000000E-01
  58  15   2    9 F    -8.65300000000E-02  1.51200000000E-02  2.06450000000E-01
  59  15   3    9 F     2.92980000000E-01  8.65300000000E-02  1.01650000000E-01
  60  15   4    9 F    -1.51200000000E-02  1.91330000000E-01 -1.01650000000E-01

  61  16   1   30 ZN    2.50000000000E-01 -2.50000000000E-01 -5.00000000000E-01

  62  17   1   30 ZN   -5.00000000000E-01 -5.00000000000E-01  0.00000000000E+00

 NUMBER OF SYMMETRY OPERATORS         :    4
 *******************************************************************************
 * GEOMETRY EDITING - INPUT COORDINATES ARE GIVEN IN ANGSTROM         
 *******************************************************************************

 GEOMETRY NOW FULLY CONSISTENT WITH THE GROUP

 GCALCO - MAX INDICES DIRECT LATTICE VECTOR    14    14    15
 NO.OF VECTORS CREATED 6999 STARS  488 RMAX   198.50792 BOHR

 GEOMETRY FOR WAVE FUNCTION - DIMENSIONALITY OF THE SYSTEM    3
 (NON PERIODIC DIRECTION: LATTICE PARAMETER FORMALLY SET TO 500)
 *******************************************************************************
 LATTICE PARAMETERS (ANGSTROMS AND DEGREES) - BOHR = 0.5291772083 ANGSTROM
 PRIMITIVE CELL - CENTRING CODE 6/0 VOLUME=   696.157249 - DENSITY  2.213 g/cm^3
         A              B              C           ALPHA      BETA       GAMMA 
     9.68534842     9.68534842     9.68534842   111.780816 111.780816 104.944669
 *******************************************************************************
 ATOMS IN THE ASYMMETRIC UNIT   17 - ATOMS IN THE UNIT CELL:   62
     ATOM                 X/A                 Y/B                 Z/C    
 *******************************************************************************
      1 T   1 H     2.427100000000E-01 -1.166100000000E-01  2.908000000000E-01
      2 F   1 H    -4.074100000000E-01 -4.809000000000E-02 -2.908000000000E-01
      3 F   1 H     1.166100000000E-01  4.074100000000E-01  3.593200000000E-01
      4 F   1 H     4.809000000000E-02 -2.427100000000E-01 -3.593200000000E-01
      5 T   6 C     1.978900000000E-01 -3.471000000000E-01  8.433000000000E-02
      6 F   6 C    -4.314300000000E-01  1.135600000000E-01 -8.433000000000E-02
      7 F   6 C     3.471000000000E-01  4.314300000000E-01 -4.550100000000E-01
      8 F   6 C    -1.135600000000E-01 -1.978900000000E-01  4.550100000000E-01
      9 T   6 C     3.264000000000E-01 -3.667600000000E-01  2.016600000000E-01
     10 F   6 C     4.315800000000E-01  1.247400000000E-01 -2.016600000000E-01
     11 F   6 C     3.667600000000E-01 -4.315800000000E-01 -3.068400000000E-01
     12 F   6 C    -1.247400000000E-01 -3.264000000000E-01  3.068400000000E-01
     13 T   6 C     9.642000000000E-02 -4.595400000000E-01 -9.632000000000E-02
     14 F   6 C    -3.632200000000E-01  1.927400000000E-01  9.632000000000E-02
     15 F   6 C     4.595400000000E-01  3.632200000000E-01 -4.440400000000E-01
     16 F   6 C    -1.927400000000E-01 -9.642000000000E-02  4.440400000000E-01
     17 T   6 C    -6.096000000000E-02 -3.065800000000E-01 -1.104000000000E-01
     18 F   6 C    -1.961800000000E-01  4.944000000000E-02  1.104000000000E-01
     19 F   6 C     3.065800000000E-01  1.961800000000E-01  2.456200000000E-01
     20 F   6 C    -4.944000000000E-02  6.096000000000E-02 -2.456200000000E-01
     21 T   6 C     1.632900000000E-01 -2.136400000000E-01  1.528300000000E-01
     22 F   6 C    -3.664700000000E-01  1.046000000000E-02 -1.528300000000E-01
     23 F   6 C     2.136400000000E-01  3.664700000000E-01  3.769300000000E-01
     24 F   6 C    -1.046000000000E-02 -1.632900000000E-01 -3.769300000000E-01
     25 T   6 C    -2.433900000000E-01  1.619100000000E-01  1.961000000000E-01
     26 F   6 C    -3.419000000000E-02 -4.394900000000E-01 -1.961000000000E-01
     27 F   6 C    -1.619100000000E-01  3.419000000000E-02 -4.053000000000E-01
     28 F   6 C     4.394900000000E-01  2.433900000000E-01  4.053000000000E-01
     29 T   7 N     3.666400000000E-01 -3.101400000000E-01  3.692800000000E-01
     30 F   7 N     3.205800000000E-01 -2.640000000000E-03 -3.692800000000E-01
     31 F   7 N     3.101400000000E-01 -3.205800000000E-01 -3.232200000000E-01
     32 F   7 N     2.640000000000E-03 -3.666400000000E-01  3.232200000000E-01
     33 T   7 N     4.958300000000E-01 -3.423100000000E-01  4.456600000000E-01
     34 F   7 N     2.120300000000E-01  5.017000000000E-02 -4.456600000000E-01
     35 F   7 N     3.423100000000E-01 -2.120300000000E-01 -1.618600000000E-01
     36 F   7 N    -5.017000000000E-02 -4.958300000000E-01  1.618600000000E-01
     37 T   7 N     4.257300000000E-01 -4.353800000000E-01  1.731900000000E-01
     38 F   7 N     3.914300000000E-01  2.525400000000E-01 -1.731900000000E-01
     39 F   7 N     4.353800000000E-01 -3.914300000000E-01 -1.388900000000E-01
     40 F   7 N    -2.525400000000E-01 -4.257300000000E-01  1.388900000000E-01
     41 T   7 N    -4.697300000000E-01 -4.184600000000E-01  3.282700000000E-01
     42 F   7 N     2.532700000000E-01  2.020000000000E-01 -3.282700000000E-01
     43 F   7 N     4.184600000000E-01 -2.532700000000E-01 -5.127000000000E-02
     44 F   7 N    -2.020000000000E-01  4.697300000000E-01  5.127000000000E-02
     45 T   7 N     3.557000000000E-02 -1.955300000000E-01  5.778000000000E-02
     46 F   7 N    -2.533100000000E-01 -2.221000000000E-02 -5.778000000000E-02
     47 F   7 N     1.955300000000E-01  2.533100000000E-01  2.311000000000E-01
     48 F   7 N     2.221000000000E-02 -3.557000000000E-02 -2.311000000000E-01
     49 T   9 F     1.244100000000E-01  4.138200000000E-01 -1.760300000000E-01
     50 F   9 F    -4.101500000000E-01  3.004400000000E-01  1.760300000000E-01
     51 F   9 F    -4.138200000000E-01  4.101500000000E-01 -2.894100000000E-01
     52 F   9 F    -3.004400000000E-01 -1.244100000000E-01  2.894100000000E-01
     53 T   9 F    -1.311300000000E-01  4.579600000000E-01 -3.687700000000E-01
     54 F   9 F    -1.732700000000E-01  2.376400000000E-01  3.687700000000E-01
     55 F   9 F    -4.579600000000E-01  1.732700000000E-01  4.109100000000E-01
     56 F   9 F    -2.376400000000E-01  1.311300000000E-01 -4.109100000000E-01
     57 T   9 F    -1.913300000000E-01 -2.929800000000E-01 -2.064500000000E-01
     58 F   9 F    -8.653000000000E-02  1.512000000000E-02  2.064500000000E-01
     59 F   9 F     2.929800000000E-01  8.653000000000E-02  1.016500000000E-01
     60 F   9 F    -1.512000000000E-02  1.913300000000E-01 -1.016500000000E-01
     61 T  30 ZN    2.500000000000E-01 -2.500000000000E-01  5.000000000000E-01
     62 T  30 ZN   -5.000000000000E-01  5.000000000000E-01  0.000000000000E+00

 TRANSFORMATION MATRIX PRIMITIVE-CRYSTALLOGRAPHIC CELL
  0.0000  1.0000  1.0000  1.0000  0.0000  1.0000  1.0000  1.0000  0.0000

 *******************************************************************************
 CRYSTALLOGRAPHIC CELL (VOLUME=       1392.31449888)
         A              B              C           ALPHA      BETA       GAMMA 
    10.86265313    10.86265313    11.79955210    90.000000  90.000000  90.000000

 COORDINATES IN THE CRYSTALLOGRAPHIC CELL
     ATOM                 X/A                 Y/B                 Z/C    
 *******************************************************************************
      1 T   1 H    -3.426000000000E-02  3.250600000000E-01 -8.235000000000E-02
      2 F   1 H     3.426000000000E-02 -3.250600000000E-01 -8.235000000000E-02
      3 F   1 H     3.250600000000E-01  3.426000000000E-02  8.235000000000E-02
      4 F   1 H    -3.250600000000E-01 -3.426000000000E-02  8.235000000000E-02
      5 T   6 C    -2.303300000000E-01  3.146600000000E-01 -1.167700000000E-01
      6 F   6 C     2.303300000000E-01 -3.146600000000E-01 -1.167700000000E-01
      7 F   6 C     3.146600000000E-01  2.303300000000E-01  1.167700000000E-01
      8 F   6 C    -3.146600000000E-01 -2.303300000000E-01  1.167700000000E-01
      9 T   6 C     2.542500000000E-01 -5.259000000000E-02  3.789900000000E-01
     10 F   6 C    -2.542500000000E-01  5.259000000000E-02  3.789900000000E-01
     11 F   6 C    -5.259000000000E-02 -2.542500000000E-01 -3.789900000000E-01
     12 F   6 C     5.259000000000E-02  2.542500000000E-01 -3.789900000000E-01
     13 T   6 C    -3.261400000000E-01  2.298200000000E-01 -1.334000000000E-01
     14 F   6 C     3.261400000000E-01 -2.298200000000E-01 -1.334000000000E-01
     15 F   6 C     2.298200000000E-01  3.261400000000E-01  1.334000000000E-01
     16 F   6 C    -2.298200000000E-01 -3.261400000000E-01  1.334000000000E-01
     17 T   6 C    -1.780100000000E-01  6.761000000000E-02 -1.285700000000E-01
     18 F   6 C     1.780100000000E-01 -6.761000000000E-02 -1.285700000000E-01
     19 F   6 C     6.761000000000E-02  1.780100000000E-01  1.285700000000E-01
     20 F   6 C    -6.761000000000E-02 -1.780100000000E-01  1.285700000000E-01
     21 T   6 C    -1.120500000000E-01  2.648800000000E-01 -1.015900000000E-01
     22 F   6 C     1.120500000000E-01 -2.648800000000E-01 -1.015900000000E-01
     23 F   6 C     2.648800000000E-01  1.120500000000E-01  1.015900000000E-01
     24 F   6 C    -2.648800000000E-01 -1.120500000000E-01  1.015900000000E-01
     25 T   6 C     3.007000000000E-01 -1.046000000000E-01 -1.387900000000E-01
     26 F   6 C    -3.007000000000E-01  1.046000000000E-01 -1.387900000000E-01
     27 F   6 C    -1.046000000000E-01 -3.007000000000E-01  1.387900000000E-01
     28 F   6 C     1.046000000000E-01  3.007000000000E-01  1.387900000000E-01
     29 T   7 N     3.462500000000E-01  2.303000000000E-02  3.436100000000E-01
     30 F   7 N    -3.462500000000E-01 -2.303000000000E-02  3.436100000000E-01
     31 F   7 N     2.303000000000E-02 -3.462500000000E-01 -3.436100000000E-01
     32 F   7 N    -2.303000000000E-02  3.462500000000E-01 -3.436100000000E-01
     33 T   7 N    -1.962400000000E-01 -3.581000000000E-01 -1.460700000000E-01
     34 F   7 N     1.962400000000E-01  3.581000000000E-01 -1.460700000000E-01
     35 F   7 N    -3.581000000000E-01  1.962400000000E-01  1.460700000000E-01
     36 F   7 N     3.581000000000E-01 -1.962400000000E-01  1.460700000000E-01
     37 T   7 N     1.560400000000E-01  1.715000000000E-02  4.085800000000E-01
     38 F   7 N    -1.560400000000E-01 -1.715000000000E-02  4.085800000000E-01
     39 F   7 N     1.715000000000E-02 -1.560400000000E-01 -4.085800000000E-01
     40 F   7 N    -1.715000000000E-02  1.560400000000E-01 -4.085800000000E-01
     41 T   7 N     1.897700000000E-01  1.385000000000E-01  3.917700000000E-01
     42 F   7 N    -1.897700000000E-01 -1.385000000000E-01  3.917700000000E-01
     43 F   7 N     1.385000000000E-01 -1.897700000000E-01 -3.917700000000E-01
     44 F   7 N    -1.385000000000E-01  1.897700000000E-01 -3.917700000000E-01
     45 T   7 N    -8.666000000000E-02  1.444400000000E-01 -1.088700000000E-01
     46 F   7 N     8.666000000000E-02 -1.444400000000E-01 -1.088700000000E-01
     47 F   7 N     1.444400000000E-01  8.666000000000E-02  1.088700000000E-01
     48 F   7 N    -1.444400000000E-01 -8.666000000000E-02  1.088700000000E-01
     49 T   9 F     5.669000000000E-02 -2.327200000000E-01  3.571300000000E-01
     50 F   9 F    -5.669000000000E-02  2.327200000000E-01  3.571300000000E-01
     51 F   9 F    -2.327200000000E-01 -5.669000000000E-02 -3.571300000000E-01
     52 F   9 F     2.327200000000E-01  5.669000000000E-02 -3.571300000000E-01
     53 T   9 F    -3.898400000000E-01  2.107000000000E-02 -1.522000000000E-01
     54 F   9 F     3.898400000000E-01 -2.107000000000E-02 -1.522000000000E-01
     55 F   9 F     2.107000000000E-02  3.898400000000E-01  1.522000000000E-01
     56 F   9 F    -2.107000000000E-02 -3.898400000000E-01  1.522000000000E-01
     57 T   9 F    -1.540500000000E-01 -5.240000000000E-02 -1.389300000000E-01
     58 F   9 F     1.540500000000E-01  5.240000000000E-02 -1.389300000000E-01
     59 F   9 F    -5.240000000000E-02  1.540500000000E-01  1.389300000000E-01
     60 F   9 F     5.240000000000E-02 -1.540500000000E-01  1.389300000000E-01
     61 T  30 ZN   -5.000000000000E-01  0.000000000000E+00  2.500000000000E-01
     62 T  30 ZN    0.000000000000E+00  0.000000000000E+00  5.000000000000E-01

 T = ATOM BELONGING TO THE ASYMMETRIC UNIT

 ****    4 SYMMOPS - TRANSLATORS IN FRACTIONAL UNITS
 **** MATRICES AND TRANSLATORS IN THE CRYSTALLOGRAPHIC REFERENCE FRAME
   V INV                    ROTATION MATRICES                   TRANSLATORS
   1   1  1.00  0.00  0.00  0.00  1.00  0.00  0.00  0.00  1.00  0.00  0.00  0.00
   2   2  0.00  1.00 -1.00  1.00  0.00 -1.00  0.00 -0.00 -1.00  0.00  0.00  0.00
   3   4  0.00 -1.00  0.00 -0.00 -1.00  1.00  1.00 -1.00 -0.00  0.00  0.00  0.00
   4   3 -1.00  0.00  1.00 -1.00 -0.00  0.00 -1.00  1.00  0.00  0.00  0.00  0.00

 DIRECT LATTICE VECTORS CARTESIAN COMPONENTS (ANGSTROM)
          X                    Y                    Z
  -0.543132656580E+01   0.543132656580E+01   0.589977604900E+01
   0.543132656580E+01  -0.543132656580E+01   0.589977604900E+01
   0.543132656580E+01   0.543132656580E+01  -0.589977604900E+01


 CARTESIAN COORDINATES - PRIMITIVE CELL
 *******************************************************************************
 *      ATOM          X(ANGSTROM)         Y(ANGSTROM)         Z(ANGSTROM)
 *******************************************************************************
    1     1 H    -3.721544962886E-01  3.531014026958E+00 -9.716931152703E-01
    2     1 H     3.721544962886E-01 -3.531014026958E+00 -9.716931152703E-01
    3     1 H     3.531014026958E+00  3.721544962886E-01  9.716931152703E-01
    4     1 H    -3.531014026958E+00 -3.721544962886E-01  9.716931152703E-01
    5     6 C    -2.501994895801E+00  3.418042434389E+00 -1.377833698483E+00
    6     6 C     2.501994895801E+00 -3.418042434389E+00 -1.377833698483E+00
    7     6 C     3.418042434389E+00  2.501994895801E+00  1.377833698483E+00
    8     6 C    -3.418042434389E+00 -2.501994895801E+00  1.377833698483E+00
    9     6 C     2.761829558709E+00 -5.712669281908E-01  4.471912249621E+00
   10     6 C    -2.761829558709E+00  5.712669281908E-01  4.471912249621E+00
   11     6 C    -5.712669281908E-01 -2.761829558709E+00 -4.471912249621E+00
   12     6 C     5.712669281908E-01  2.761829558709E+00 -4.471912249621E+00
   13     6 C    -3.542745692340E+00  2.496454942704E+00 -1.574060249873E+00
   14     6 C     3.542745692340E+00 -2.496454942704E+00 -1.574060249873E+00
   15     6 C     2.496454942704E+00  3.542745692340E+00  1.574060249873E+00
   16     6 C    -2.496454942704E+00 -3.542745692340E+00  1.574060249873E+00
   17     6 C    -1.933660883956E+00  7.344239782275E-01 -1.517068413240E+00
   18     6 C     1.933660883956E+00 -7.344239782275E-01 -1.517068413240E+00
   19     6 C     7.344239782275E-01  1.933660883956E+00  1.517068413240E+00
   20     6 C    -7.344239782275E-01 -1.933660883956E+00  1.517068413240E+00
   21     6 C    -1.217160283396E+00  2.877299561498E+00 -1.198716497636E+00
   22     6 C     1.217160283396E+00 -2.877299561498E+00 -1.198716497636E+00
   23     6 C     2.877299561498E+00  1.217160283396E+00  1.198716497636E+00
   24     6 C    -2.877299561498E+00 -1.217160283396E+00  1.198716497636E+00
   25     6 C     3.266399796672E+00 -1.136233517565E+00 -1.637659835681E+00
   26     6 C    -3.266399796672E+00  1.136233517565E+00 -1.637659835681E+00
   27     6 C    -1.136233517565E+00 -3.266399796672E+00  1.637659835681E+00
   28     6 C     1.136233517565E+00  3.266399796672E+00  1.637659835681E+00
   29     7 N     3.761193646816E+00  2.501669016207E-01  4.054444096394E+00
   30     7 N    -3.761193646817E+00 -2.501669016207E-01  4.054444096394E+00
   31     7 N     2.501669016207E-01 -3.761193646817E+00 -4.054444096394E+00
   32     7 N    -2.501669016207E-01  3.761193646817E+00 -4.054444096394E+00
   33     7 N    -2.131687050545E+00 -3.889916086426E+00 -1.723560574955E+00
   34     7 N     2.131687050545E+00  3.889916086426E+00 -1.723560574955E+00
   35     7 N    -3.889916086426E+00  2.131687050545E+00  1.723560574955E+00
   36     7 N     3.889916086426E+00 -2.131687050545E+00  1.723560574955E+00
   37     7 N     1.695008394655E+00  1.862945012069E-01  4.821060996201E+00
   38     7 N    -1.695008394655E+00 -1.862945012069E-01  4.821060996201E+00
   39     7 N     1.862945012069E-01 -1.695008394655E+00 -4.821060996201E+00
   40     7 N    -1.862945012069E-01  1.695008394655E+00 -4.821060996201E+00
   41     7 N     2.061405684784E+00  1.504477458727E+00  4.622710525433E+00
   42     7 N    -2.061405684784E+00 -1.504477458727E+00  4.622710525433E+00
   43     7 N     1.504477458727E+00 -2.061405684784E+00 -4.622710525433E+00
   44     7 N    -1.504477458727E+00  2.061405684784E+00 -4.622710525433E+00
   45     7 N    -9.413575203845E-01  1.569001618328E+00 -1.284617236909E+00
   46     7 N     9.413575203845E-01 -1.569001618328E+00 -1.284617236909E+00
   47     7 N     1.569001618328E+00  9.413575203845E-01  1.284617236909E+00
   48     7 N    -1.569001618328E+00 -9.413575203845E-01  1.284617236909E+00
   49     9 F     6.158038060304E-01 -2.527956636786E+00  4.213974040759E+00
   50     9 F    -6.158038060304E-01  2.527956636786E+00  4.213974040759E+00
   51     9 F    -2.527956636786E+00 -6.158038060304E-01 -4.213974040759E+00
   52     9 F     2.527956636786E+00  6.158038060304E-01 -4.213974040759E+00
   53     9 F    -4.234696696823E+00  2.288761014828E-01 -1.795891829316E+00
   54     9 F     4.234696696823E+00 -2.288761014828E-01 -1.795891829316E+00
   55     9 F     2.288761014828E-01  4.234696696823E+00  1.795891829316E+00
   56     9 F    -2.288761014828E-01 -4.234696696823E+00  1.795891829316E+00
   57     9 F    -1.673391714923E+00 -5.692030240958E-01 -1.639311772975E+00
   58     9 F     1.673391714923E+00  5.692030240958E-01 -1.639311772975E+00
   59     9 F    -5.692030240958E-01  1.673391714923E+00  1.639311772975E+00
   60     9 F     5.692030240958E-01 -1.673391714923E+00  1.639311772975E+00
   61    30 ZN    5.431326565800E+00  0.000000000000E+00 -8.849664073500E+00
   62    30 ZN    0.000000000000E+00  0.000000000000E+00  5.899776049000E+00

 *******************************************************************************
 STARTING BASIS SET HANDLING 
 *******************************************************************************

 Loading internal basis set: POB-DZVPP           

 Please cite in your publication:
 Peintinger, M. F., Oliveira, D. V. and Bredow, T. (2013), Generally applicable 
 solid-state Gaussian basis sets, in preparation                                
                                                                                
                    

 *******************************************************************************
 LOCAL ATOMIC FUNCTIONS BASIS SET
 *******************************************************************************
   ATOM   X(AU)   Y(AU)   Z(AU)  N. TYPE  EXPONENT  S COEF   P COEF   D/F/G COEF
 *******************************************************************************
   1 H   -0.703   6.673  -1.836
                                  1 S  
                                         2.263E+01 1.441E-02 0.000E+00 0.000E+00
                                         3.236E+00 1.072E-01 0.000E+00 0.000E+00
                                         7.304E-01 3.846E-01 0.000E+00 0.000E+00
                                  2 S  
                                         1.417E-01 1.000E+00 0.000E+00 0.000E+00
                           3-     5 P  
                                         3.944E-01 0.000E+00 1.000E+00 0.000E+00
                           6-     8 P  
                                         1.006E-01 0.000E+00 1.000E+00 0.000E+00
   2 H    0.703  -6.673  -1.836
   3 H    6.673   0.703   1.836
   4 H   -6.673  -0.703   1.836
   5 C   -4.728   6.459  -2.604
                                 33 S  
                                         1.238E+03 5.457E-03 0.000E+00 0.000E+00
                                         1.863E+02 4.064E-02 0.000E+00 0.000E+00
                                         4.225E+01 1.803E-01 0.000E+00 0.000E+00
                                         1.168E+01 4.632E-01 0.000E+00 0.000E+00
                                         3.593E+00 4.409E-01 0.000E+00 0.000E+00
                                 34 S  
                                         5.281E+00 1.000E+00 0.000E+00 0.000E+00
                                 35 S  
                                         4.447E-01 1.000E+00 0.000E+00 0.000E+00
                          36-    38 P  
                                         9.468E+00 0.000E+00 3.839E-02 0.000E+00
                                         2.010E+00 0.000E+00 2.112E-01 0.000E+00
                                         5.477E-01 0.000E+00 5.133E-01 0.000E+00
                          39-    41 P  
                                         1.604E-01 0.000E+00 1.000E+00 0.000E+00
                          42-    46 D  
                                         6.070E-01 0.000E+00 0.000E+00 1.000E+00
                          47-    51 D  
                                         2.939E-01 0.000E+00 0.000E+00 1.000E+00
   6 C    4.728  -6.459  -2.604
   7 C    6.459   4.728   2.604
   8 C   -6.459  -4.728   2.604
   9 C    5.219  -1.080   8.451
  10 C   -5.219   1.080   8.451
  11 C   -1.080  -5.219  -8.451
  12 C    1.080   5.219  -8.451
  13 C   -6.695   4.718  -2.975
  14 C    6.695  -4.718  -2.975
  15 C    4.718   6.695   2.975
  16 C   -4.718  -6.695   2.975
  17 C   -3.654   1.388  -2.867
  18 C    3.654  -1.388  -2.867
  19 C    1.388   3.654   2.867
  20 C   -1.388  -3.654   2.867
  21 C   -2.300   5.437  -2.265
  22 C    2.300  -5.437  -2.265
  23 C    5.437   2.300   2.265
  24 C   -5.437  -2.300   2.265
  25 C    6.173  -2.147  -3.095
  26 C   -6.173   2.147  -3.095
  27 C   -2.147  -6.173   3.095
  28 C    2.147   6.173   3.095
  29 N    7.108   0.473   7.662
                                489 S  
                                         1.713E+03-5.393E-03 0.000E+00 0.000E+00
                                         2.576E+02-4.022E-02 0.000E+00 0.000E+00
                                         5.846E+01-1.793E-01 0.000E+00 0.000E+00
                                         1.620E+01-4.638E-01 0.000E+00 0.000E+00
                                         5.005E+00-4.417E-01 0.000E+00 0.000E+00
                                490 S  
                                         6.217E-01 1.000E+00 0.000E+00 0.000E+00
                                491 S  
                                         2.921E-01 1.000E+00 0.000E+00 0.000E+00
                         492-   494 P  
                                         1.357E+01 0.000E+00-4.007E-02 0.000E+00
                                         2.926E+00 0.000E+00-2.181E-01 0.000E+00
                                         7.993E-01 0.000E+00-5.129E-01 0.000E+00
                         495-   497 P  
                                         2.244E-01 0.000E+00 1.000E+00 0.000E+00
                         498-   502 D  
                                         3.118E-01 0.000E+00 0.000E+00 1.000E+00
  30 N   -7.108  -0.473   7.662
  31 N    0.473  -7.108  -7.662
  32 N   -0.473   7.108  -7.662
  33 N   -4.028  -7.351  -3.257
  34 N    4.028   7.351  -3.257
  35 N   -7.351   4.028   3.257
  36 N    7.351  -4.028   3.257
  37 N    3.203   0.352   9.110
  38 N   -3.203  -0.352   9.110
  39 N    0.352  -3.203  -9.110
  40 N   -0.352   3.203  -9.110
  41 N    3.895   2.843   8.736
  42 N   -3.895  -2.843   8.736
  43 N    2.843  -3.895  -8.736
  44 N   -2.843   3.895  -8.736
  45 N   -1.779   2.965  -2.428
  46 N    1.779  -2.965  -2.428
  47 N    2.965   1.779   2.428
  48 N   -2.965  -1.779   2.428
  49 F    1.164  -4.777   7.963
                                769 S  
                                         2.895E+03-5.341E-03 0.000E+00 0.000E+00
                                         4.354E+02-3.990E-02 0.000E+00 0.000E+00
                                         9.884E+01-1.791E-01 0.000E+00 0.000E+00
                                         2.749E+01-4.676E-01 0.000E+00 0.000E+00
                                         8.541E+00-4.465E-01 0.000E+00 0.000E+00
                                770 S  
                                         1.123E+00 1.000E+00 0.000E+00 0.000E+00
                                771 S  
                                         3.743E-01 1.000E+00 0.000E+00 0.000E+00
                         772-   774 P  
                                         2.270E+01 0.000E+00-4.521E-02 0.000E+00
                                         4.987E+00 0.000E+00-2.375E-01 0.000E+00
                                         1.349E+00 0.000E+00-5.129E-01 0.000E+00
                         775-   777 P  
                                         3.474E-01 0.000E+00 1.000E+00 0.000E+00
                         778-   782 D  
                                         9.203E-01 0.000E+00 0.000E+00 1.000E+00
                         783-   787 D  
                                         3.977E-01 0.000E+00 0.000E+00 1.000E+00
  50 F   -1.164   4.777   7.963
  51 F   -4.777  -1.164  -7.963
  52 F    4.777   1.164  -7.963
  53 F   -8.002   0.433  -3.394
  54 F    8.002  -0.433  -3.394
  55 F    0.433   8.002   3.394
  56 F   -0.433  -8.002   3.394
  57 F   -3.162  -1.076  -3.098
  58 F    3.162   1.076  -3.098
  59 F   -1.076   3.162   3.098
  60 F    1.076  -3.162   3.098
  61 ZN  10.264   0.000 -16.723
                                997 S  
                                         8.200E+04 1.421E-03 0.000E+00 0.000E+00
                                         1.231E+04 1.089E-02 0.000E+00 0.000E+00
                                         2.801E+03 5.406E-02 0.000E+00 0.000E+00
                                         7.910E+02 1.885E-01 0.000E+00 0.000E+00
                                         2.576E+02 3.835E-01 0.000E+00 0.000E+00
                                         8.881E+01 2.972E-01 0.000E+00 0.000E+00
                                998 S  
                                         1.719E+02-1.105E-01 0.000E+00 0.000E+00
                                         2.030E+01 6.461E-01 0.000E+00 0.000E+00
                                         8.346E+00 4.422E-01 0.000E+00 0.000E+00
                                999 S  
                                         1.485E+01-2.271E-01 0.000E+00 0.000E+00
                                         2.450E+00 7.243E-01 0.000E+00 0.000E+00
                                         9.985E-01 4.484E-01 0.000E+00 0.000E+00
                               1000 S  
                                         1.493E+00 1.000E+00 0.000E+00 0.000E+00
                               1001 S  
                                         1.830E-01 1.000E+00 0.000E+00 0.000E+00
                        1002-  1004 P  
                                         1.072E+03 0.000E+00 9.277E-03 0.000E+00
                                         2.527E+02 0.000E+00 6.954E-02 0.000E+00
                                         8.010E+01 0.000E+00 2.716E-01 0.000E+00
                                         2.890E+01 0.000E+00 5.340E-01 0.000E+00
                                         1.077E+01 0.000E+00 3.450E-01 0.000E+00
                        1005-  1007 P  
                                         5.645E+00 0.000E+00 3.413E-01 0.000E+00
                                         2.168E+00 0.000E+00 5.639E-01 0.000E+00
                                         8.054E-01 0.000E+00 2.368E-01 0.000E+00
                        1008-  1010 P  
                                         2.721E-01 0.000E+00 1.000E+00 0.000E+00
                        1011-  1015 D  
                                         5.609E+01 0.000E+00 0.000E+00 2.959E-02
                                         1.575E+01 0.000E+00 0.000E+00 1.587E-01
                                         5.312E+00 0.000E+00 0.000E+00 3.798E-01
                                         1.774E+00 0.000E+00 0.000E+00 4.690E-01
                        1016-  1020 D  
                                         5.073E-01 0.000E+00 0.000E+00 1.000E+00
                        1021-  1027 F  
                                         2.814E+00 0.000E+00 0.000E+00 1.000E+00
                        1028-  1034 F  
                                         1.300E+00 0.000E+00 0.000E+00 1.000E+00
  62 ZN   0.000   0.000  11.149

 *******************************************************************************
 FINISHED BASIS SET HANDLING 
 *******************************************************************************

 INFORMATION **** SET_MPP **** PCRYSTAL CALCULATION
 INFORMATION **** READM2 **** NEW DEFAULT: FOCK/KS MATRIX MIXING SET TO 30 %
 INFORMATION **** READM2 **** NEW DEFAULT: FULL DIRECT SCF MODE
 INFORMATION **** READM2 **** NEW DEFAULT: COULOMB BIPOLAR BUFFER SET TO 32 Mb
 INFORMATION **** READM2 **** NEW DEFAULT: EXCHANGE BIPOLAR BUFFER SET TO 32 Mb

 *******************************************************************************
 NEW DEFAULT: DFT INTEGRATION GRID INCREASED TO XLGRID
 NEW DEFAULT: DIIS ACCELERATOR ACTIVE
 USE KEYWORD NODIIS TO TURN IT OFF
 *******************************************************************************

 INFORMATION **** DFTD3_INPUT **** PERFORM DISPERSION CORRECTION DFT-D3(BJ) IN THE BECKE-JOHNSON DAMPING SCHEME

 PLEASE CITE:
 (1) DFT-D3 Reference
  S. Grimme, J. Antony, S. Ehrlich, and H. Krieg, J. Chem. Phys. 132 (2010), 154104
 (2) BJ-Damping Reference
  S. Grimme, S. Ehrlich, and L. Goerigk, J. Comput. Chem. 32 (2011), 1456-1465
 (3) General DFT-D Review
  S. Grimme, A. Hansen, J. G. Brandenburg, and C. Bannwarth,
  Chem. Rev. 116 (2016), 5105-5154

 INFORMATION **** TOLINTEG **** COULOMB AND EXCHANGE SERIES TOLERANCES MODIFIED
 INFORMATION **** BIPOSIZE **** COULOMB BIPOLAR BUFFER SET TO   100000000
 INFORMATION **** MAXCYCLE **** MAX NUMBER OF SCF CYCLES SET TO          50
 *******************************************************************************
 N. OF ATOMS PER CELL        62  COULOMB OVERLAP TOL         (T1) 10**  -12
 NUMBER OF SHELLS           412  COULOMB PENETRATION TOL     (T2) 10**  -12
 NUMBER OF AO              1072  EXCHANGE OVERLAP TOL        (T3) 10**   20
 N. OF ELECTRONS PER CELL   456  EXCHANGE PSEUDO OVP (F(G))  (T4) 10**   20
 CORE ELECTRONS PER CELL    148  EXCHANGE PSEUDO OVP (P(G))  (T5) 10**   20
 N. OF SYMMETRY OPERATORS     4  POLE ORDER IN MONO ZONE                  4
 *******************************************************************************
 TYPE OF CALCULATION :  RESTRICTED CLOSED SHELL
 KOHN-SHAM HAMILTONIAN

 (EXCHANGE)[CORRELATION] FUNCTIONAL:(PERDEW-BURKE-ERNZERHOF)[PERDEW-BURKE-ERNZERHOF]


 CAPPA:IS1  3;IS2  3;IS3  3; K PTS MONK NET   6; SYMMOPS:K SPACE   8;G SPACE   4

 *******************************************************************************
 MAX NUMBER OF SCF CYCLES      50  CONVERGENCE ON DELTAP        10**-16
 WEIGHT OF F(I) IN F(I+1)      30% CONVERGENCE ON ENERGY        10**- 6
 SHRINK. FACT.(MONKH.)    3  3  3  NUMBER OF K POINTS IN THE IBZ      6
 SHRINKING FACTOR(GILAT NET)    3  NUMBER OF K POINTS(GILAT NET)      6
 *******************************************************************************
 *** K POINTS COORDINATES (OBLIQUE COORDINATES IN UNITS OF IS =  3)
   1-R(  0  0  0)   2-C(  1  0  0)   3-C(  1  1  0)   4-C(  2  1  0)
   5-C(  2  1  1)   6-C(  2  2  1)

 DIRECT LATTICE VECTORS COMPON. (A.U.)     RECIP. LATTICE VECTORS COMPON. (A.U.) 
        X            Y            Z              X            Y            Z
  -10.2637198   10.2637198   11.1489610      0.0000000    0.3060871    0.2817834
   10.2637198  -10.2637198   11.1489610      0.3060871    0.0000000    0.2817834
   10.2637198   10.2637198  -11.1489610      0.3060871    0.3060871    0.0000000

 DISK SPACE FOR EIGENVECTORS (FTN 10)    12641024 REALS

 SYMMETRY ADAPTION OF THE BLOCH FUNCTIONS ENABLED
 TTTTTTTTTTTTTTTTTTTTTTTTTTTTTT gordsh1     TELAPSE       21.37 TCPU        0.08

 MATRIX SIZE: P(G) 1786428, F(G)  894138, P(G) IRR  226119, F(G) IRR  226119
 MAX G-VECTOR INDEX FOR 1- AND 2-ELECTRON INTEGRALS  59

 TTTTTTTTTTTTTTTTTTTTTTTTTTTTTT INPUT       TELAPSE       21.41 TCPU        0.12

 NEIGHBORS OF THE NON-EQUIVALENT ATOMS

 N = NUMBER OF NEIGHBORS AT DISTANCE R
    ATOM  N     R/ANG      R/AU   NEIGHBORS (ATOM LABELS AND CELL INDICES)
   1 H    1     1.0922     2.0640   21 C    0 0 0
   1 H    1     2.0667     3.9056   45 N    0 0 0
   1 H    1     2.1712     4.1029    5 C    0 0 0
   1 H    1     2.6388     4.9866   34 N    0 0 0
   1 H    1     2.6594     5.0256   29 N    0-1 0
   1 H    1     2.6930     5.0890    9 C    0-1 0

   5 C    1     1.4039     2.6530   13 C    0 0 0
   5 C    1     1.4054     2.6559   21 C    0 0 0
   5 C    1     1.4526     2.7450    9 C    0-1 0
   5 C    1     2.1712     4.1029    1 H    0 0 0
   5 C    1     2.3900     4.5165   49 F    0-1 0
   5 C    1     2.4204     4.5739   26 C    0 0 0

   9 C    1     1.3542     2.5591   37 N    0 0 0
   9 C    1     1.3593     2.5688   29 N    0 0 0
   9 C    1     1.4526     2.7450    5 C    0 1 0
   9 C    1     2.1959     4.1497   41 N    0 0 0
   9 C    1     2.2000     4.1574   33 N    1 1 1
   9 C    1     2.4684     4.6646   21 C    0 1 0

  13 C    1     1.3409     2.5339   49 F    0-1 0
  13 C    1     1.3895     2.6257   26 C    0 0 0
  13 C    1     1.4039     2.6530    5 C    0 0 0
  13 C    1     2.3812     4.4997   53 F    0 0 0
  13 C    1     2.3863     4.5094   21 C    0 0 0
  13 C    1     2.3869     4.5105   17 C    0 0 0

  17 C    1     1.3173     2.4893   45 N    0 0 0
  17 C    1     1.3350     2.5227   57 F    0 0 0
  17 C    1     1.3972     2.6403   26 C    0 0 0
  17 C    1     2.2818     4.3120   21 C    0 0 0
  17 C    1     2.3724     4.4831   53 F    0 0 0
  17 C    1     2.3869     4.5105   13 C    0 0 0

  21 C    1     1.0922     2.0640    1 H    0 0 0
  21 C    1     1.3398     2.5319   45 N    0 0 0
  21 C    1     1.4054     2.6559    5 C    0 0 0
  21 C    1     2.2818     4.3120   17 C    0 0 0
  21 C    1     2.3863     4.5094   13 C    0 0 0
  21 C    1     2.4684     4.6646    9 C    0-1 0

  25 C    1     1.3364     2.5254   54 F    0 0 0
  25 C    1     1.3895     2.6257   14 C    0 0 0
  25 C    1     1.3972     2.6403   18 C    0 0 0
  25 C    1     2.3337     4.4101   58 F    0 0 0
  25 C    1     2.3505     4.4418   50 F   -1 0 0
  25 C    1     2.3912     4.5187   46 N    0 0 0

  29 N    1     1.3593     2.5688    9 C    0 0 0
  29 N    1     1.3767     2.6015   33 N    1 1 1
  29 N    1     2.0179     3.8133   61 ZN   1 1 0
  29 N    1     2.1876     4.1339   41 N    0 0 0
  29 N    1     2.2047     4.1664   37 N    0 0 0
  29 N    1     2.4564     4.6419    5 C    0 1 0

  33 N    1     1.3168     2.4884   41 N   -1-1-1
  33 N    1     1.3767     2.6015   29 N   -1-1-1
  33 N    1     2.1970     4.1518   37 N   -1-1-1
  33 N    1     2.2000     4.1574    9 C   -1-1-1
  33 N    1     2.6388     4.9866    2 H    0 0 0
  33 N    1     2.9024     5.4847   61 ZN   0 0-1

  37 N    1     1.3542     2.5591    9 C    0 0 0
  37 N    1     1.3825     2.6125   41 N    0 0 0
  37 N    1     2.0178     3.8130   62 ZN   0 0 0
  37 N    1     2.1970     4.1518   33 N    1 1 1
  37 N    1     2.2047     4.1664   29 N    0 0 0
  37 N    1     2.5399     4.7997    5 C    0 1 0

  41 N    1     1.3168     2.4884   33 N    1 1 1
  41 N    1     1.3825     2.6125   37 N    0 0 0
  41 N    1     2.1876     4.1339   29 N    0 0 0
  41 N    1     2.1959     4.1497    9 C    0 0 0
  41 N    1     2.8537     5.3928   62 ZN   0 0 0
  41 N    1     2.8952     5.4711   50 F    0 0 0

  45 N    1     1.3173     2.4893   17 C    0 0 0
  45 N    1     1.3398     2.5319   21 C    0 0 0
  45 N    1     2.0667     3.9056    1 H    0 0 0
  45 N    1     2.2877     4.3231   57 F    0 0 0
  45 N    1     2.3912     4.5187   26 C    0 0 0
  45 N    1     2.4214     4.5758    5 C    0 0 0

  49 F    1     1.3409     2.5339   13 C    0 1 0
  49 F    1     2.3505     4.4418   26 C    0 1 0
  49 F    1     2.3900     4.5165    5 C    0 1 0
  49 F    1     2.7132     5.1272   60 F    0 0 0
  49 F    1     2.7391     5.1761   53 F    0 1 0
  49 F    1     2.8952     5.4711   42 N    0 0 0

  53 F    1     1.3364     2.5254   26 C    0 0 0
  53 F    1     2.3724     4.4831   17 C    0 0 0
  53 F    1     2.3812     4.4997   13 C    0 0 0
  53 F    1     2.4366     4.6046   54 F    0-1-1
  53 F    1     2.6873     5.0783   57 F    0 0 0
  53 F    1     2.7391     5.1761   49 F    0-1 0

  57 F    1     1.3350     2.5227   17 C    0 0 0
  57 F    1     2.2877     4.3231   45 N    0 0 0
  57 F    1     2.3337     4.4101   26 C    0 0 0
  57 F    1     2.6873     5.0783   53 F    0 0 0
  57 F    1     2.7132     5.1272   51 F    0 0 0
  57 F    1     2.8218     5.3324   46 N    0 0 0

  61 ZN   4     2.0179     3.8133   29 N   -1-1 0   30 N   -1 0 1   31 N    0 0 1
                                    32 N   -1 0 0
  61 ZN   4     2.7682     5.2311    1 H   -1 0 0    2 H    0 0 1    3 H   -1-1 0
                                     4 H   -1 0 1
  61 ZN   4     2.9024     5.4847   33 N    0 0 1   34 N   -1 0 0   35 N   -1 0 1
                                    36 N   -1-1 0
  61 ZN   4     3.1256     5.9065    9 C   -1-1 0   10 C   -1 0 1   11 C    0 0 1
                                    12 C   -1 0 0
  61 ZN   4     3.3273     6.2877   21 C   -1 0 0   22 C    0 0 1   23 C   -1-1 0
                                    24 C   -1 0 1
  61 ZN   4     3.5756     6.7568    5 C   -1 0 0    6 C    0 0 1    7 C   -1-1 0
                                     8 C   -1 0 1

  62 ZN   4     2.0178     3.8130   37 N    0 0 0   38 N    0 0 0   39 N    1 1 0
                                    40 N    1 1 0
  62 ZN   4     2.8537     5.3928   41 N    0 0 0   42 N    0 0 0   43 N    1 1 0
                                    44 N    1 1 0
  62 ZN   4     3.1003     5.8587   49 F    0 0 0   50 F    0 0 0   51 F    1 1 0
                                    52 F    1 1 0
  62 ZN   4     3.1611     5.9737    9 C    0 0 0   10 C    0 0 0   11 C    1 1 0
                                    12 C    1 1 0
  62 ZN   4     3.8122     7.2040    5 C    0 1 0    6 C    1 0 0    7 C    0 0-1
                                     8 C    1 1 1
  62 ZN   4     3.8286     7.2349   13 C    0 1 0   14 C    1 0 0   15 C    0 0-1
                                    16 C    1 1 1


 SYMMETRY ALLOWED INTERNAL DEGREE(S) OF FREEDOM:  45
 TTTTTTTTTTTTTTTTTTTTTTTTTTTTTT SYMM        TELAPSE       21.95 TCPU        0.66
 TTTTTTTTTTTTTTTTTTTTTTTTTTTTTT INT_SCREEN  TELAPSE       21.96 TCPU        0.66
 INFORMATION **** EXCBUF **** EXCH. BIPO BUFFER: WORDS USED =           0

 DFT PARAMETERS

     ATOM       ELECTRONS   NET CHARGE   R(ANGSTROM)
   1   1  H       1.0000      0.0000     1.11000000
   5   6  C       6.0000      0.0000     0.77000000
  29   7  N       7.0000      0.0000     0.74000000
  49   9  F       9.0000      0.0000     0.72000000
  61  30  ZN     30.0000      0.0000     1.37000000

 SIZE OF GRID=     490030
 TTTTTTTTTTTTTTTTTTTTTTTTTTTTTT MAKE_GRID2  TELAPSE       22.68 TCPU        1.38
 BECKE WEIGHT FUNCTION
 RADSAFE =     2.00
 TOLERANCES - DENSITY:10**- 6; POTENTIAL:10**- 9; GRID WGT:10**-14

 RADIAL INTEGRATION  - INTERVALS (POINTS,UPPER LIMIT):            1( 75,  4.0*R)

 ANGULAR INTEGRATION - INTERVALS (ACCURACY LEVEL [N. POINTS] UPPER LIMIT):
  1(  4[  86]   0.2)  2(  8[ 194]   0.5)  3( 12[ 350]   0.9)  4( 16[ 974]   3.5)
  5( 12[ 350]9999.0)
 TTTTTTTTTTTTTTTTTTTTTTTTTTTTTT INT_CALC    TELAPSE       22.73 TCPU        1.43
 EEEEEEEEEE INT_CALC TERMINATION  DATE 02 12 2023 TIME 22:52:35.5

 *******************************************************************************
 Z:\home\sanoj\Downloads\tmp_p\newconn.mol                                       
 CRYSTAL - SCF - TYPE OF CALCULATION :  RESTRICTED CLOSED SHELL
 *******************************************************************************

 CAPPA:IS1  3;IS2  3;IS3  3; K PTS MONK NET   6; SYMMOPS:K SPACE   8;G SPACE   4

 TTTTTTTTTTTTTTTTTTTTTTTTTTTTTT SDIK        TELAPSE       22.96 TCPU        1.66

 AAAAAAAAAAAAAAAAAAAAAAAAAAAAAAAAAAAAAAAAAAAAAAAAAAAAAAAAAAAAAAAAAAAAAAAAAAAAAAA
         ATOMIC WAVEFUNCTION(S)


 NUCLEAR CHARGE  1.0  SYMMETRY SPECIES            S
 N. ELECTRONS    1.0  NUMBER OF PRIMITIVE GTOS    4
                      NUMBER OF CONTRACTED GTOS   2
                      NUMBER OF CLOSED SHELLS     0
                      OPEN SHELL OCCUPATION       1

  ZNUC SCFIT  TOTAL HF ENERGY   KINETIC ENERGY   VIRIAL THEOREM ACCURACY
   1.0   1   -4.946643675E-01  4.917913167E-01 -2.005842012E+00  9.4E-17

 NUCLEAR CHARGE  6.0  SYMMETRY SPECIES            S    P
 N. ELECTRONS    6.0  NUMBER OF PRIMITIVE GTOS    7    4
                      NUMBER OF CONTRACTED GTOS   3    2
                      NUMBER OF CLOSED SHELLS     2    0
                      OPEN SHELL OCCUPATION       0    2

  ZNUC SCFIT  TOTAL HF ENERGY   KINETIC ENERGY   VIRIAL THEOREM ACCURACY
   6.0   6   -3.750912652E+01  3.905246519E+01 -1.960480378E+00  3.7E-06

 NUCLEAR CHARGE  7.0  SYMMETRY SPECIES            S    P
 N. ELECTRONS    7.0  NUMBER OF PRIMITIVE GTOS    7    4
                      NUMBER OF CONTRACTED GTOS   3    2
                      NUMBER OF CLOSED SHELLS     2    0
                      OPEN SHELL OCCUPATION       0    3

  ZNUC SCFIT  TOTAL HF ENERGY   KINETIC ENERGY   VIRIAL THEOREM ACCURACY
   7.0   9   -5.432196661E+01  5.425066284E+01 -2.001314339E+00  1.2E-06

 NUCLEAR CHARGE  9.0  SYMMETRY SPECIES            S    P
 N. ELECTRONS    9.0  NUMBER OF PRIMITIVE GTOS    7    4
                      NUMBER OF CONTRACTED GTOS   3    2
                      NUMBER OF CLOSED SHELLS     2    0
                      OPEN SHELL OCCUPATION       0    5

  ZNUC SCFIT  TOTAL HF ENERGY   KINETIC ENERGY   VIRIAL THEOREM ACCURACY
   9.0  14   -9.927886620E+01  9.927374065E+01 -2.000051630E+00  4.0E-06

 NUCLEAR CHARGE 30.0  SYMMETRY SPECIES            S    P    D
 N. ELECTRONS   30.0  NUMBER OF PRIMITIVE GTOS   14    9    5
                      NUMBER OF CONTRACTED GTOS   5    3    2
                      NUMBER OF CLOSED SHELLS     4    2    1
                      OPEN SHELL OCCUPATION       0    0    0

  ZNUC SCFIT  TOTAL HF ENERGY   KINETIC ENERGY   VIRIAL THEOREM ACCURACY
  30.0  10   -1.777404290E+03  1.777325716E+03 -2.000044209E+00  2.5E-06

 AAAAAAAAAAAAAAAAAAAAAAAAAAAAAAAAAAAAAAAAAAAAAAAAAAAAAAAAAAAAAAAAAAAAAAAAAAAAAAA

 TOTAL ATOMIC CHARGES:
   1.0000000   1.0000000   1.0000000   1.0000000   6.0000000   6.0000000
   6.0000000   6.0000000   6.0000000   6.0000000   6.0000000   6.0000000
   6.0000000   6.0000000   6.0000000   6.0000000   6.0000000   6.0000000
   6.0000000   6.0000000   6.0000000   6.0000000   6.0000000   6.0000000
   6.0000000   6.0000000   6.0000000   6.0000000   7.0000000   7.0000000
   7.0000000   7.0000000   7.0000000   7.0000000   7.0000000   7.0000000
   7.0000000   7.0000000   7.0000000   7.0000000   7.0000000   7.0000000
   7.0000000   7.0000000   7.0000000   7.0000000   7.0000000   7.0000000
   9.0000000   9.0000000   9.0000000   9.0000000   9.0000000   9.0000000
   9.0000000   9.0000000   9.0000000   9.0000000   9.0000000   9.0000000
  30.0000000  30.0000000
 TTTTTTTTTTTTTTTTTTTTTTTTTTTTTT MOQGAD      TELAPSE       25.33 TCPU        4.02
 TTTTTTTTTTTTTTTTTTTTTTTTTTTTTT SHELLXN     TELAPSE       84.38 TCPU       60.54
 TTTTTTTTTTTTTTTTTTTTTTTTTTTTTT MONMO3      TELAPSE       88.41 TCPU       64.55
 NUMERICALLY INTEGRATED DENSITY    456.0001056117
 TTTTTTTTTTTTTTTTTTTTTTTTTTTTTT NUMDFT      TELAPSE       90.56 TCPU       66.70
 CYC   0 ETOT(AU) -6.767027955933E+03 DETOT -6.77E+03 tst  0.00E+00 PX  1.00E+00
 TTTTTTTTTTTTTTTTTTTTTTTTTTTTTT DIIS        TELAPSE       90.65 TCPU       66.79
 TTTTTTTTTTTTTTTTTTTTTTTTTTTTTT FDIK        TELAPSE      137.86 TCPU      105.81
 INSULATING STATE
 TOP OF VALENCE BANDS -    BAND    228; K    4; EIG -1.3338660E-01 AU
 TOP OF VALENCE BANDS -    BAND    228; K    1; EIG -1.3383892E-01 AU
 BOTTOM OF VIRTUAL BANDS - BAND    229; K    4; EIG -8.7520612E-02 AU
 DIRECT ENERGY BAND GAP:   1.2481 eV
 BOTTOM OF VIRTUAL BANDS - BAND    229; K    1; EIG -8.6653007E-02 AU
 TTTTTTTTTTTTTTTTTTTTTTTTTTTTTT PDIG        TELAPSE      138.54 TCPU      106.49
 TOTAL ATOMIC CHARGES:
   1.4005603   1.4005603   1.4005603   1.4005603   6.2279630   6.2279630
   6.2279630   6.2279630   5.5199962   5.5199962   5.5199962   5.5199962
   5.4810818   5.4810818   5.4810818   5.4810818   5.2051402   5.2051402
   5.2051402   5.2051402   5.9475184   5.9475184   5.9475184   5.9475184
   5.5185538   5.5185538   5.5185538   5.5185538   7.4045314   7.4045314
   7.4045314   7.4045314   7.2086968   7.2086968   7.2086968   7.2086968
   7.4261983   7.4261983   7.4261983   7.4261983   7.1907286   7.1907286
   7.1907286   7.1907286   7.6471329   7.6471329   7.6471329   7.6471329
   9.2889613   9.2889613   9.2889613   9.2889613   9.3099305   9.3099305
   9.3099305   9.3099305   9.2850644   9.2850644   9.2850644   9.2850644
  27.7760665  27.9757019
 TTTTTTTTTTTTTTTTTTTTTTTTTTTTTT MOQGAD      TELAPSE      138.59 TCPU      106.53
 TTTTTTTTTTTTTTTTTTTTTTTTTTTTTT SHELLXN     TELAPSE      207.24 TCPU      172.88
 TTTTTTTTTTTTTTTTTTTTTTTTTTTTTT MONMO3      TELAPSE      211.88 TCPU      177.50
 NUMERICALLY INTEGRATED DENSITY    456.0000435224
 TTTTTTTTTTTTTTTTTTTTTTTTTTTTTT NUMDFT      TELAPSE      217.82 TCPU      183.42
 CYC   1 ETOT(AU) -6.760399273349E+03 DETOT  6.63E+00 tst  0.00E+00 PX  1.00E+00
 TTTTTTTTTTTTTTTTTTTTTTTTTTTTTT DIIS        TELAPSE      219.13 TCPU      184.72
 DIIS TEST: 0.13133E+02 AT SCF   CYCLE   1 - MIX   30 %
 TTTTTTTTTTTTTTTTTTTTTTTTTTTTTT FDIK        TELAPSE      233.13 TCPU      197.20
 INSULATING STATE
 TOP OF VALENCE BANDS -    BAND    228; K    6; EIG -1.4801439E-01 AU
 TOP OF VALENCE BANDS -    BAND    228; K    1; EIG -1.4825956E-01 AU
 BOTTOM OF VIRTUAL BANDS - BAND    229; K    6; EIG -1.1371265E-01 AU
 DIRECT ENERGY BAND GAP:   0.9334 eV
 BOTTOM OF VIRTUAL BANDS - BAND    229; K    1; EIG -1.0886029E-01 AU
 TTTTTTTTTTTTTTTTTTTTTTTTTTTTTT PDIG        TELAPSE      233.80 TCPU      197.86
 TOTAL ATOMIC CHARGES:
   1.4276663   1.4276663   1.4276663   1.4276663   6.1107917   6.1107917
   6.1107917   6.1107917   6.2589728   6.2589728   6.2589728   6.2589728
   6.2881357   6.2881357   6.2881357   6.2881357   6.2276548   6.2276548
   6.2276548   6.2276548   6.1950931   6.1950931   6.1950931   6.1950931
   5.9720241   5.9720241   5.9720241   5.9720241   6.9636611   6.9636611
   6.9636611   6.9636611   6.8818328   6.8818328   6.8818328   6.8818328
   6.9128990   6.9128990   6.9128990   6.9128990   6.8751894   6.8751894
   6.8751894   6.8751894   6.0760518   6.0760518   6.0760518   6.0760518
   9.0186829   9.0186829   9.0186829   9.0186829   8.9881836   8.9881836
   8.9881836   8.9881836   8.9649398   8.9649398   8.9649398   8.9649398
  29.7804059  29.5724781
 TTTTTTTTTTTTTTTTTTTTTTTTTTTTTT MOQGAD      TELAPSE      233.85 TCPU      197.91
 TTTTTTTTTTTTTTTTTTTTTTTTTTTTTT SHELLXN     TELAPSE      300.80 TCPU      264.60
 TTTTTTTTTTTTTTTTTTTTTTTTTTTTTT MONMO3      TELAPSE      306.77 TCPU      270.56
 NUMERICALLY INTEGRATED DENSITY    456.0000344562
 TTTTTTTTTTTTTTTTTTTTTTTTTTTTTT NUMDFT      TELAPSE      312.74 TCPU      276.50
 CYC   2 ETOT(AU) -6.759270476495E+03 DETOT  1.13E+00 tst  7.84E-02 PX  7.43E-01
 TTTTTTTTTTTTTTTTTTTTTTTTTTTTTT DIIS        TELAPSE      313.16 TCPU      276.92
 DIIS TEST: 0.19425E+02 AT SCF   CYCLE   2 - DIIS ACTIVE - HISTORY:     2 CYCLES
 TTTTTTTTTTTTTTTTTTTTTTTTTTTTTT FDIK        TELAPSE      329.10 TCPU      287.53
 INSULATING STATE
 TOP OF VALENCE BANDS -    BAND    228; K    1; EIG -2.4713176E-01 AU
 BOTTOM OF VIRTUAL BANDS - BAND    229; K    6; EIG -1.1349184E-01 AU
 INDIRECT ENERGY BAND GAP:   3.6365 eV
 BOTTOM OF VIRTUAL BANDS - BAND    229; K    1; EIG -1.1046363E-01 AU
 TTTTTTTTTTTTTTTTTTTTTTTTTTTTTT PDIG        TELAPSE      329.77 TCPU      288.20
 TOTAL ATOMIC CHARGES:
   1.3146262   1.3146262   1.3146262   1.3146262   5.9403428   5.9403428
   5.9403428   5.9403428   5.8289574   5.8289574   5.8289574   5.8289574
   5.6589025   5.6589025   5.6589025   5.6589025   5.7768596   5.7768596
   5.7768596   5.7768596   6.1044579   6.1044579   6.1044579   6.1044579
   5.5631457   5.5631457   5.5631457   5.5631457   7.0795894   7.0795894
   7.0795894   7.0795894   7.1314553   7.1314553   7.1314553   7.1314553
   7.1039554   7.1039554   7.1039554   7.1039554   7.0797816   7.0797816
   7.0797816   7.0797816   7.4615107   7.4615107   7.4615107   7.4615107
   9.1379085   9.1379085   9.1379085   9.1379085   9.1487141   9.1487141
   9.1487141   9.1487141   9.1170834   9.1170834   9.1170834   9.1170834
  29.1283729  29.0824654
 TTTTTTTTTTTTTTTTTTTTTTTTTTTTTT MOQGAD      TELAPSE      329.82 TCPU      288.25
 TTTTTTTTTTTTTTTTTTTTTTTTTTTTTT SHELLXN     TELAPSE      399.75 TCPU      354.09
 TTTTTTTTTTTTTTTTTTTTTTTTTTTTTT MONMO3      TELAPSE      404.07 TCPU      358.40
 NUMERICALLY INTEGRATED DENSITY    456.0000530689
 TTTTTTTTTTTTTTTTTTTTTTTTTTTTTT NUMDFT      TELAPSE      409.96 TCPU      364.27
 CYC   3 ETOT(AU) -6.762236868778E+03 DETOT -2.97E+00 tst  9.61E-03 PX  6.10E-01
 TTTTTTTTTTTTTTTTTTTTTTTTTTTTTT DIIS        TELAPSE      410.22 TCPU      364.52
 DIIS TEST: 0.24752E+01 AT SCF   CYCLE   3 - DIIS ACTIVE - HISTORY:     3 CYCLES
 TTTTTTTTTTTTTTTTTTTTTTTTTTTTTT FDIK        TELAPSE      425.76 TCPU      377.65
 INSULATING STATE
 TOP OF VALENCE BANDS -    BAND    228; K    6; EIG -2.2814785E-01 AU
 TOP OF VALENCE BANDS -    BAND    228; K    1; EIG -2.2842354E-01 AU
 BOTTOM OF VIRTUAL BANDS - BAND    229; K    6; EIG -1.1515847E-01 AU
 DIRECT ENERGY BAND GAP:   3.0746 eV
 BOTTOM OF VIRTUAL BANDS - BAND    229; K    1; EIG -1.1115062E-01 AU
 TTTTTTTTTTTTTTTTTTTTTTTTTTTTTT PDIG        TELAPSE      426.43 TCPU      378.31
 TOTAL ATOMIC CHARGES:
   1.3518729   1.3518729   1.3518729   1.3518729   6.2095920   6.2095920
   6.2095920   6.2095920   5.8107723   5.8107723   5.8107723   5.8107723
   5.8455651   5.8455651   5.8455651   5.8455651   5.5527884   5.5527884
   5.5527884   5.5527884   6.0195931   6.0195931   6.0195931   6.0195931
   5.7040462   5.7040462   5.7040462   5.7040462   7.2198311   7.2198311
   7.2198311   7.2198311   7.0633364   7.0633364   7.0633364   7.0633364
   7.2115845   7.2115845   7.2115845   7.2115845   7.0903249   7.0903249
   7.0903249   7.0903249   6.9773180   6.9773180   6.9773180   6.9773180
   9.1872229   9.1872229   9.1872229   9.1872229   9.2075171   9.2075171
   9.2075171   9.2075171   9.1534325   9.1534325   9.1534325   9.1534325
  28.7669288  28.8138819
 TTTTTTTTTTTTTTTTTTTTTTTTTTTTTT MOQGAD      TELAPSE      426.47 TCPU      378.36
 TTTTTTTTTTTTTTTTTTTTTTTTTTTTTT SHELLXN     TELAPSE      494.89 TCPU      444.34
 TTTTTTTTTTTTTTTTTTTTTTTTTTTTTT MONMO3      TELAPSE      499.18 TCPU      448.59
 NUMERICALLY INTEGRATED DENSITY    456.0000439122
 TTTTTTTTTTTTTTTTTTTTTTTTTTTTTT NUMDFT      TELAPSE      505.17 TCPU      454.56
 CYC   4 ETOT(AU) -6.762448284202E+03 DETOT -2.11E-01 tst  3.89E-03 PX  1.51E-01
 TTTTTTTTTTTTTTTTTTTTTTTTTTTTTT DIIS        TELAPSE      505.38 TCPU      454.77
 DIIS TEST: 0.99830E+00 AT SCF   CYCLE   4 - DIIS ACTIVE - HISTORY:     4 CYCLES
 TTTTTTTTTTTTTTTTTTTTTTTTTTTTTT FDIK        TELAPSE      521.14 TCPU      467.72
 INSULATING STATE
 TOP OF VALENCE BANDS -    BAND    228; K    5; EIG -2.4913676E-01 AU
 TOP OF VALENCE BANDS -    BAND    228; K    1; EIG -2.4947263E-01 AU
 BOTTOM OF VIRTUAL BANDS - BAND    229; K    6; EIG -1.1426516E-01 AU
 INDIRECT ENERGY BAND GAP:   3.6700 eV
 BOTTOM OF VIRTUAL BANDS - BAND    229; K    1; EIG -1.1031453E-01 AU
 TTTTTTTTTTTTTTTTTTTTTTTTTTTTTT PDIG        TELAPSE      521.81 TCPU      468.39
 TOTAL ATOMIC CHARGES:
   1.3431357   1.3431357   1.3431357   1.3431357   6.1104926   6.1104926
   6.1104926   6.1104926   5.8254501   5.8254501   5.8254501   5.8254501
   5.7880655   5.7880655   5.7880655   5.7880655   5.6925847   5.6925847
   5.6925847   5.6925847   6.0644212   6.0644212   6.0644212   6.0644212
   5.7011776   5.7011776   5.7011776   5.7011776   7.1938871   7.1938871
   7.1938871   7.1938871   7.1096808   7.1096808   7.1096808   7.1096808
   7.1315180   7.1315180   7.1315180   7.1315180   7.0554543   7.0554543
   7.0554543   7.0554543   7.1119678   7.1119678   7.1119678   7.1119678
   9.1568966   9.1568966   9.1568966   9.1568966   9.1576947   9.1576947
   9.1576947   9.1576947   9.1344712   9.1344712   9.1344712   9.1344712
  28.8465495  28.8458595
 TTTTTTTTTTTTTTTTTTTTTTTTTTTTTT MOQGAD      TELAPSE      521.86 TCPU      468.44
 TTTTTTTTTTTTTTTTTTTTTTTTTTTTTT SHELLXN     TELAPSE      590.13 TCPU      534.07
 TTTTTTTTTTTTTTTTTTTTTTTTTTTTTT MONMO3      TELAPSE      594.76 TCPU      538.69
 NUMERICALLY INTEGRATED DENSITY    456.0000438013
 TTTTTTTTTTTTTTTTTTTTTTTTTTTTTT NUMDFT      TELAPSE      600.68 TCPU      544.59
 CYC   5 ETOT(AU) -6.762595315762E+03 DETOT -1.47E-01 tst  7.68E-04 PX  1.11E-01
 TTTTTTTTTTTTTTTTTTTTTTTTTTTTTT DIIS        TELAPSE      601.13 TCPU      545.04
 DIIS TEST: 0.59975E-01 AT SCF   CYCLE   5 - DIIS ACTIVE - HISTORY:     5 CYCLES
 TTTTTTTTTTTTTTTTTTTTTTTTTTTTTT FDIK        TELAPSE      616.58 TCPU      557.06
 INSULATING STATE
 TOP OF VALENCE BANDS -    BAND    228; K    1; EIG -2.4637986E-01 AU
 BOTTOM OF VIRTUAL BANDS - BAND    229; K    6; EIG -1.1315881E-01 AU
 INDIRECT ENERGY BAND GAP:   3.6251 eV
 BOTTOM OF VIRTUAL BANDS - BAND    229; K    1; EIG -1.0966493E-01 AU
 TTTTTTTTTTTTTTTTTTTTTTTTTTTTTT PDIG        TELAPSE      617.25 TCPU      557.73
 TOTAL ATOMIC CHARGES:
   1.3418660   1.3418660   1.3418660   1.3418660   6.1121129   6.1121129
   6.1121129   6.1121129   5.8366464   5.8366464   5.8366464   5.8366464
   5.8037940   5.8037940   5.8037940   5.8037940   5.6717426   5.6717426
   5.6717426   5.6717426   6.0451180   6.0451180   6.0451180   6.0451180
   5.6637345   5.6637345   5.6637345   5.6637345   7.1323053   7.1323053
   7.1323053   7.1323053   7.0478689   7.0478689   7.0478689   7.0478689
   7.2003649   7.2003649   7.2003649   7.2003649   7.1065936   7.1065936
   7.1065936   7.1065936   7.1318602   7.1318602   7.1318602   7.1318602
   9.1638992   9.1638992   9.1638992   9.1638992   9.1748235   9.1748235
   9.1748235   9.1748235   9.1300874   9.1300874   9.1300874   9.1300874
  28.8663255  28.8824052
 TTTTTTTTTTTTTTTTTTTTTTTTTTTTTT MOQGAD      TELAPSE      617.30 TCPU      557.78
 TTTTTTTTTTTTTTTTTTTTTTTTTTTTTT SHELLXN     TELAPSE      686.29 TCPU      623.43
 TTTTTTTTTTTTTTTTTTTTTTTTTTTTTT MONMO3      TELAPSE      691.81 TCPU      628.93
 NUMERICALLY INTEGRATED DENSITY    456.0000442017
 TTTTTTTTTTTTTTTTTTTTTTTTTTTTTT NUMDFT      TELAPSE      697.77 TCPU      634.87
 CYC   6 ETOT(AU) -6.762593999473E+03 DETOT  1.32E-03 tst  9.26E-05 PX  2.29E-02
 TTTTTTTTTTTTTTTTTTTTTTTTTTTTTT DIIS        TELAPSE      697.94 TCPU      635.04
 DIIS TEST: 0.67608E-01 AT SCF   CYCLE   6 - DIIS ACTIVE - HISTORY:     6 CYCLES
 TTTTTTTTTTTTTTTTTTTTTTTTTTTTTT FDIK        TELAPSE      710.43 TCPU      645.61
 INSULATING STATE
 TOP OF VALENCE BANDS -    BAND    228; K    1; EIG -2.4674172E-01 AU
 BOTTOM OF VIRTUAL BANDS - BAND    229; K    6; EIG -1.1404846E-01 AU
 INDIRECT ENERGY BAND GAP:   3.6108 eV
 BOTTOM OF VIRTUAL BANDS - BAND    229; K    1; EIG -1.1007925E-01 AU
 TTTTTTTTTTTTTTTTTTTTTTTTTTTTTT PDIG        TELAPSE      711.11 TCPU      646.29
 TOTAL ATOMIC CHARGES:
   1.3421507   1.3421507   1.3421507   1.3421507   6.1072666   6.1072666
   6.1072666   6.1072666   5.8367919   5.8367919   5.8367919   5.8367919
   5.7995340   5.7995340   5.7995340   5.7995340   5.6686516   5.6686516
   5.6686516   5.6686516   6.0594718   6.0594718   6.0594718   6.0594718
   5.6663449   5.6663449   5.6663449   5.6663449   7.1828567   7.1828567
   7.1828567   7.1828567   7.0982417   7.0982417   7.0982417   7.0982417
   7.1463125   7.1463125   7.1463125   7.1463125   7.0643394   7.0643394
   7.0643394   7.0643394   7.1265241   7.1265241   7.1265241   7.1265241
   9.1586413   9.1586413   9.1586413   9.1586413   9.1742742   9.1742742
   9.1742742   9.1742742   9.1306001   9.1306001   9.1306001   9.1306001
  28.8709241  28.8810699
 TTTTTTTTTTTTTTTTTTTTTTTTTTTTTT MOQGAD      TELAPSE      711.16 TCPU      646.33
 TTTTTTTTTTTTTTTTTTTTTTTTTTTTTT SHELLXN     TELAPSE      779.38 TCPU      712.07
 TTTTTTTTTTTTTTTTTTTTTTTTTTTTTT MONMO3      TELAPSE      783.49 TCPU      716.16
 NUMERICALLY INTEGRATED DENSITY    456.0000451700
 TTTTTTTTTTTTTTTTTTTTTTTTTTTTTT NUMDFT      TELAPSE      789.42 TCPU      722.07
 CYC   7 ETOT(AU) -6.762602692117E+03 DETOT -8.69E-03 tst  4.87E-05 PX  1.78E-02
 TTTTTTTTTTTTTTTTTTTTTTTTTTTTTT DIIS        TELAPSE      789.62 TCPU      722.26
 DIIS TEST: 0.10856E-01 AT SCF   CYCLE   7 - DIIS ACTIVE - HISTORY:     7 CYCLES
 TTTTTTTTTTTTTTTTTTTTTTTTTTTTTT FDIK        TELAPSE      804.15 TCPU      734.65
 INSULATING STATE
 TOP OF VALENCE BANDS -    BAND    228; K    5; EIG -2.4734645E-01 AU
 TOP OF VALENCE BANDS -    BAND    228; K    1; EIG -2.4740134E-01 AU
 BOTTOM OF VIRTUAL BANDS - BAND    229; K    6; EIG -1.1375760E-01 AU
 INDIRECT ENERGY BAND GAP:   3.6351 eV
 BOTTOM OF VIRTUAL BANDS - BAND    229; K    1; EIG -1.0990070E-01 AU
 TTTTTTTTTTTTTTTTTTTTTTTTTTTTTT PDIG        TELAPSE      804.81 TCPU      735.31
 TOTAL ATOMIC CHARGES:
   1.3409787   1.3409787   1.3409787   1.3409787   6.1042639   6.1042639
   6.1042639   6.1042639   5.8302590   5.8302590   5.8302590   5.8302590
   5.7944238   5.7944238   5.7944238   5.7944238   5.6809331   5.6809331
   5.6809331   5.6809331   6.0559218   6.0559218   6.0559218   6.0559218
   5.6806385   5.6806385   5.6806385   5.6806385   7.1686360   7.1686360
   7.1686360   7.1686360   7.0872833   7.0872833   7.0872833   7.0872833
   7.1588879   7.1588879   7.1588879   7.1588879   7.0789188   7.0789188
   7.0789188   7.0789188   7.1242571   7.1242571   7.1242571   7.1242571
   9.1596232   9.1596232   9.1596232   9.1596232   9.1672284   9.1672284
   9.1672284   9.1672284   9.1321764   9.1321764   9.1321764   9.1321764
  28.8662808  28.8760002
 TTTTTTTTTTTTTTTTTTTTTTTTTTTTTT MOQGAD      TELAPSE      804.86 TCPU      735.36
 TTTTTTTTTTTTTTTTTTTTTTTTTTTTTT SHELLXN     TELAPSE      873.19 TCPU      801.35
 TTTTTTTTTTTTTTTTTTTTTTTTTTTTTT MONMO3      TELAPSE      877.68 TCPU      805.83
 NUMERICALLY INTEGRATED DENSITY    456.0000449956
 TTTTTTTTTTTTTTTTTTTTTTTTTTTTTT NUMDFT      TELAPSE      883.67 TCPU      811.80
 CYC   8 ETOT(AU) -6.762604142345E+03 DETOT -1.45E-03 tst  4.89E-06 PX  7.66E-03
 TTTTTTTTTTTTTTTTTTTTTTTTTTTTTT DIIS        TELAPSE      883.94 TCPU      812.07
 DIIS TEST: 0.10787E-02 AT SCF   CYCLE   8 - DIIS ACTIVE - HISTORY:     8 CYCLES
 TTTTTTTTTTTTTTTTTTTTTTTTTTTTTT FDIK        TELAPSE      899.25 TCPU      824.27
 INSULATING STATE
 TOP OF VALENCE BANDS -    BAND    228; K    1; EIG -2.4730168E-01 AU
 BOTTOM OF VIRTUAL BANDS - BAND    229; K    6; EIG -1.1398914E-01 AU
 INDIRECT ENERGY BAND GAP:   3.6276 eV
 BOTTOM OF VIRTUAL BANDS - BAND    229; K    1; EIG -1.1011928E-01 AU
 TTTTTTTTTTTTTTTTTTTTTTTTTTTTTT PDIG        TELAPSE      899.92 TCPU      824.93
 TOTAL ATOMIC CHARGES:
   1.3400163   1.3400163   1.3400163   1.3400163   6.1114418   6.1114418
   6.1114418   6.1114418   5.8298719   5.8298719   5.8298719   5.8298719
   5.7931802   5.7931802   5.7931802   5.7931802   5.6727250   5.6727250
   5.6727250   5.6727250   6.0578914   6.0578914   6.0578914   6.0578914
   5.6739862   5.6739862   5.6739862   5.6739862   7.1727555   7.1727555
   7.1727555   7.1727555   7.0836734   7.0836734   7.0836734   7.0836734
   7.1627653   7.1627653   7.1627653   7.1627653   7.0724453   7.0724453
   7.0724453   7.0724453   7.1295185   7.1295185   7.1295185   7.1295185
   9.1610896   9.1610896   9.1610896   9.1610896   9.1691591   9.1691591
   9.1691591   9.1691591   9.1320926   9.1320926   9.1320926   9.1320926
  28.8708377  28.8787145
 TTTTTTTTTTTTTTTTTTTTTTTTTTTTTT MOQGAD      TELAPSE      899.96 TCPU      824.98
 TTTTTTTTTTTTTTTTTTTTTTTTTTTTTT SHELLXN     TELAPSE      969.50 TCPU      890.66
 TTTTTTTTTTTTTTTTTTTTTTTTTTTTTT MONMO3      TELAPSE      974.19 TCPU      895.34
 NUMERICALLY INTEGRATED DENSITY    456.0000446522
 TTTTTTTTTTTTTTTTTTTTTTTTTTTTTT NUMDFT      TELAPSE      980.22 TCPU      901.34
 CYC   9 ETOT(AU) -6.762604217557E+03 DETOT -7.52E-05 tst  1.40E-06 PX  3.83E-03
 TTTTTTTTTTTTTTTTTTTTTTTTTTTTTT DIIS        TELAPSE      980.75 TCPU      901.87
 DIIS TEST: 0.59787E-03 AT SCF   CYCLE   9 - DIIS ACTIVE - HISTORY:     9 CYCLES
 TTTTTTTTTTTTTTTTTTTTTTTTTTTTTT FDIK        TELAPSE      994.18 TCPU      912.79
 INSULATING STATE
 TOP OF VALENCE BANDS -    BAND    228; K    1; EIG -2.4729314E-01 AU
 BOTTOM OF VIRTUAL BANDS - BAND    229; K    6; EIG -1.1379799E-01 AU
 INDIRECT ENERGY BAND GAP:   3.6326 eV
 BOTTOM OF VIRTUAL BANDS - BAND    229; K    1; EIG -1.0992586E-01 AU
 TTTTTTTTTTTTTTTTTTTTTTTTTTTTTT PDIG        TELAPSE      994.85 TCPU      913.45
 TOTAL ATOMIC CHARGES:
   1.3407068   1.3407068   1.3407068   1.3407068   6.1068032   6.1068032
   6.1068032   6.1068032   5.8307342   5.8307342   5.8307342   5.8307342
   5.7956161   5.7956161   5.7956161   5.7956161   5.6754249   5.6754249
   5.6754249   5.6754249   6.0555220   6.0555220   6.0555220   6.0555220
   5.6751827   5.6751827   5.6751827   5.6751827   7.1691599   7.1691599
   7.1691599   7.1691599   7.0878427   7.0878427   7.0878427   7.0878427
   7.1585423   7.1585423   7.1585423   7.1585423   7.0771186   7.0771186
   7.0771186   7.0771186   7.1278999   7.1278999   7.1278999   7.1278999
   9.1603065   9.1603065   9.1603065   9.1603065   9.1703222   9.1703222
   9.1703222   9.1703222   9.1319230   9.1319230   9.1319230   9.1319230
  28.8690894  28.8784915
 TTTTTTTTTTTTTTTTTTTTTTTTTTTTTT MOQGAD      TELAPSE      994.89 TCPU      913.50
 TTTTTTTTTTTTTTTTTTTTTTTTTTTTTT SHELLXN     TELAPSE     1063.29 TCPU      979.42
 TTTTTTTTTTTTTTTTTTTTTTTTTTTTTT MONMO3      TELAPSE     1067.65 TCPU      983.76
 NUMERICALLY INTEGRATED DENSITY    456.0000449188
 TTTTTTTTTTTTTTTTTTTTTTTTTTTTTT NUMDFT      TELAPSE     1073.67 TCPU      989.76
 CYC  10 ETOT(AU) -6.762604302482E+03 DETOT -8.49E-05 tst  5.47E-07 PX  1.49E-03
 TTTTTTTTTTTTTTTTTTTTTTTTTTTTTT DIIS        TELAPSE     1074.55 TCPU      990.64
 DIIS TEST: 0.92680E-04 AT SCF   CYCLE  10 - DIIS ACTIVE - HISTORY:    10 CYCLES
 TTTTTTTTTTTTTTTTTTTTTTTTTTTTTT FDIK        TELAPSE     1089.84 TCPU     1003.26
 INSULATING STATE
 TOP OF VALENCE BANDS -    BAND    228; K    1; EIG -2.4727391E-01 AU
 BOTTOM OF VIRTUAL BANDS - BAND    229; K    6; EIG -1.1387761E-01 AU
 INDIRECT ENERGY BAND GAP:   3.6299 eV
 BOTTOM OF VIRTUAL BANDS - BAND    229; K    1; EIG -1.1001252E-01 AU
 TTTTTTTTTTTTTTTTTTTTTTTTTTTTTT PDIG        TELAPSE     1090.51 TCPU     1003.93
 TOTAL ATOMIC CHARGES:
   1.3406891   1.3406891   1.3406891   1.3406891   6.1067912   6.1067912
   6.1067912   6.1067912   5.8311583   5.8311583   5.8311583   5.8311583
   5.7948941   5.7948941   5.7948941   5.7948941   5.6762756   5.6762756
   5.6762756   5.6762756   6.0566553   6.0566553   6.0566553   6.0566553
   5.6753409   5.6753409   5.6753409   5.6753409   7.1707554   7.1707554
   7.1707554   7.1707554   7.0858123   7.0858123   7.0858123   7.0858123
   7.1606314   7.1606314   7.1606314   7.1606314   7.0758643   7.0758643
   7.0758643   7.0758643   7.1276478   7.1276478   7.1276478   7.1276478
   9.1600356   9.1600356   9.1600356   9.1600356   9.1690734   9.1690734
   9.1690734   9.1690734   9.1319480   9.1319480   9.1319480   9.1319480
  28.8683415  28.8773676
 TTTTTTTTTTTTTTTTTTTTTTTTTTTTTT MOQGAD      TELAPSE     1090.56 TCPU     1003.97
 TTTTTTTTTTTTTTTTTTTTTTTTTTTTTT SHELLXN     TELAPSE     1158.82 TCPU     1069.60
 TTTTTTTTTTTTTTTTTTTTTTTTTTTTTT MONMO3      TELAPSE     1163.42 TCPU     1074.18
 NUMERICALLY INTEGRATED DENSITY    456.0000448908
 TTTTTTTTTTTTTTTTTTTTTTTTTTTTTT NUMDFT      TELAPSE     1169.46 TCPU     1080.21
 CYC  11 ETOT(AU) -6.762604316789E+03 DETOT -1.43E-05 tst  5.95E-08 PX  1.13E-03
 TTTTTTTTTTTTTTTTTTTTTTTTTTTTTT DIIS        TELAPSE     1174.33 TCPU     1085.06
 DIIS TEST: 0.17300E-04 AT SCF   CYCLE  11 - DIIS ACTIVE - HISTORY:    11 CYCLES
 TTTTTTTTTTTTTTTTTTTTTTTTTTTTTT FDIK        TELAPSE     1195.01 TCPU     1099.73
 INSULATING STATE
 TOP OF VALENCE BANDS -    BAND    228; K    1; EIG -2.4729613E-01 AU
 BOTTOM OF VIRTUAL BANDS - BAND    229; K    6; EIG -1.1384075E-01 AU
 INDIRECT ENERGY BAND GAP:   3.6315 eV
 BOTTOM OF VIRTUAL BANDS - BAND    229; K    1; EIG -1.0997383E-01 AU
 TTTTTTTTTTTTTTTTTTTTTTTTTTTTTT PDIG        TELAPSE     1195.67 TCPU     1100.39
 TOTAL ATOMIC CHARGES:
   1.3405878   1.3405878   1.3405878   1.3405878   6.1075859   6.1075859
   6.1075859   6.1075859   5.8306377   5.8306377   5.8306377   5.8306377
   5.7945980   5.7945980   5.7945980   5.7945980   5.6755230   5.6755230
   5.6755230   5.6755230   6.0564752   6.0564752   6.0564752   6.0564752
   5.6757531   5.6757531   5.6757531   5.6757531   7.1699504   7.1699504
   7.1699504   7.1699504   7.0866579   7.0866579   7.0866579   7.0866579
   7.1597886   7.1597886   7.1597886   7.1597886   7.0762148   7.0762148
   7.0762148   7.0762148   7.1278177   7.1278177   7.1278177   7.1278177
   9.1603543   9.1603543   9.1603543   9.1603543   9.1692817   9.1692817
   9.1692817   9.1692817   9.1320498   9.1320498   9.1320498   9.1320498
  28.8688890  28.8780072
 TTTTTTTTTTTTTTTTTTTTTTTTTTTTTT MOQGAD      TELAPSE     1195.72 TCPU     1100.43
 TTTTTTTTTTTTTTTTTTTTTTTTTTTTTT SHELLXN     TELAPSE     1280.48 TCPU     1166.23
 TTTTTTTTTTTTTTTTTTTTTTTTTTTTTT MONMO3      TELAPSE     1285.72 TCPU     1171.46
 NUMERICALLY INTEGRATED DENSITY    456.0000448619
 TTTTTTTTTTTTTTTTTTTTTTTTTTTTTT NUMDFT      TELAPSE     1291.68 TCPU     1177.40
 CYC  12 ETOT(AU) -6.762604319105E+03 DETOT -2.32E-06 tst  1.24E-08 PX  2.56E-04
 TTTTTTTTTTTTTTTTTTTTTTTTTTTTTT DIIS        TELAPSE     1328.63 TCPU     1214.24
 DIIS TEST: 0.31735E-05 AT SCF   CYCLE  12 - DIIS ACTIVE - HISTORY:    12 CYCLES
 TTTTTTTTTTTTTTTTTTTTTTTTTTTTTT FDIK        TELAPSE     1347.58 TCPU     1225.29
 INSULATING STATE
 TOP OF VALENCE BANDS -    BAND    228; K    1; EIG -2.4729118E-01 AU
 BOTTOM OF VIRTUAL BANDS - BAND    229; K    6; EIG -1.1385047E-01 AU
 INDIRECT ENERGY BAND GAP:   3.6311 eV
 BOTTOM OF VIRTUAL BANDS - BAND    229; K    1; EIG -1.0998268E-01 AU
 TTTTTTTTTTTTTTTTTTTTTTTTTTTTTT PDIG        TELAPSE     1348.25 TCPU     1225.96
 TOTAL ATOMIC CHARGES:
   1.3406298   1.3406298   1.3406298   1.3406298   6.1072353   6.1072353
   6.1072353   6.1072353   5.8306941   5.8306941   5.8306941   5.8306941
   5.7948489   5.7948489   5.7948489   5.7948489   5.6758201   5.6758201
   5.6758201   5.6758201   6.0563068   6.0563068   6.0563068   6.0563068
   5.6755494   5.6755494   5.6755494   5.6755494   7.1704331   7.1704331
   7.1704331   7.1704331   7.0862960   7.0862960   7.0862960   7.0862960
   7.1600486   7.1600486   7.1600486   7.1600486   7.0760597   7.0760597
   7.0760597   7.0760597   7.1277812   7.1277812   7.1277812   7.1277812
   9.1602551   9.1602551   9.1602551   9.1602551   9.1694144   9.1694144
   9.1694144   9.1694144   9.1319990   9.1319990   9.1319990   9.1319990
  28.8686742  28.8778396
 TTTTTTTTTTTTTTTTTTTTTTTTTTTTTT MOQGAD      TELAPSE     1348.30 TCPU     1226.00
 TTTTTTTTTTTTTTTTTTTTTTTTTTTTTT SHELLXN     TELAPSE     1420.82 TCPU     1291.71
 TTTTTTTTTTTTTTTTTTTTTTTTTTTTTT MONMO3      TELAPSE     1424.96 TCPU     1295.83
 NUMERICALLY INTEGRATED DENSITY    456.0000448695
 TTTTTTTTTTTTTTTTTTTTTTTTTTTTTT NUMDFT      TELAPSE     1430.92 TCPU     1301.77
 CYC  13 ETOT(AU) -6.762604319511E+03 DETOT -4.06E-07 tst  2.72E-09 PX  1.31E-04
 TTTTTTTTTTTTTTTTTTTTTTTTTTTTTT DIIS        TELAPSE     1451.59 TCPU     1322.38
 DIIS TEST: 0.77158E-06 AT SCF   CYCLE  13 - DIIS ACTIVE - HISTORY:    13 CYCLES
 TTTTTTTTTTTTTTTTTTTTTTTTTTTTTT FDIK        TELAPSE     1483.14 TCPU     1333.92
 INSULATING STATE
 TOP OF VALENCE BANDS -    BAND    228; K    1; EIG -2.4728954E-01 AU
 BOTTOM OF VIRTUAL BANDS - BAND    229; K    6; EIG -1.1385184E-01 AU
 INDIRECT ENERGY BAND GAP:   3.6310 eV
 BOTTOM OF VIRTUAL BANDS - BAND    229; K    1; EIG -1.0998501E-01 AU
[...]
 DIIS TEST: 0.31338E+00 AT CPHF  CYCLE   6 - DIIS ACTIVE - HISTORY:     6 CYCLES
 CYCLE   6   ALPHA  928.379236  EPSILON    3.483312  DELTA    3.8934E+00
 TTTTTTTTTTTTTTTTTTTTTTTTTTTTTT MOQGAD      TELAPSE   142459.40 TCPU   140735.00
 TTTTTTTTTTTTTTTTTTTTTTTTTTTTTT CP_MONMON   TELAPSE   142488.80 TCPU   140764.34
 DIIS TEST: 0.18425E-01 AT CPHF  CYCLE   7 - DIIS ACTIVE - HISTORY:     7 CYCLES
 CYCLE   7   ALPHA  928.777687  EPSILON    3.484378  DELTA    3.9845E-01
 TTTTTTTTTTTTTTTTTTTTTTTTTTTTTT MOQGAD      TELAPSE   143961.60 TCPU   142218.94
 TTTTTTTTTTTTTTTTTTTTTTTTTTTTTT CP_MONMON   TELAPSE   143990.77 TCPU   142248.04
 DIIS TEST: 0.17773E-02 AT CPHF  CYCLE   8 - DIIS ACTIVE - HISTORY:     8 CYCLES
 CYCLE   8   ALPHA  928.910475  EPSILON    3.484733  DELTA    1.3279E-01
 TTTTTTTTTTTTTTTTTTTTTTTTTTTTTT MOQGAD      TELAPSE   145465.26 TCPU   143703.85
 TTTTTTTTTTTTTTTTTTTTTTTTTTTTTT CP_MONMON   TELAPSE   145494.49 TCPU   143732.98
 DIIS TEST: 0.34557E-03 AT CPHF  CYCLE   9 - DIIS ACTIVE - HISTORY:     9 CYCLES
 CYCLE   9   ALPHA  928.917577  EPSILON    3.484752  DELTA    7.1017E-03
 TTTTTTTTTTTTTTTTTTTTTTTTTTTTTT MOQGAD      TELAPSE   146946.11 TCPU   145174.92
 TTTTTTTTTTTTTTTTTTTTTTTTTTTTTT CP_MONMON   TELAPSE   146978.82 TCPU   145203.98
 DIIS TEST: 0.38622E-04 AT CPHF  CYCLE  10 - DIIS ACTIVE - HISTORY:    10 CYCLES
 CYCLE  10   ALPHA  928.903875  EPSILON    3.484716  DELTA   -1.3701E-02
 TTTTTTTTTTTTTTTTTTTTTTTTTTTTTT MOQGAD      TELAPSE   148434.33 TCPU   146638.94
 TTTTTTTTTTTTTTTTTTTTTTTTTTTTTT CP_MONMON   TELAPSE   148463.57 TCPU   146668.08
 DIIS TEST: 0.63030E-05 AT CPHF  CYCLE  11 - DIIS ACTIVE - HISTORY:    11 CYCLES
 CYCLE  11   ALPHA  928.887589  EPSILON    3.484672  DELTA   -1.6287E-02
 TTTTTTTTTTTTTTTTTTTTTTTTTTTTTT MOQGAD      TELAPSE   149921.01 TCPU   148110.15
 TTTTTTTTTTTTTTTTTTTTTTTTTTTTTT CP_MONMON   TELAPSE   149950.45 TCPU   148139.49
 DIIS TEST: 0.12422E-05 AT CPHF  CYCLE  12 - DIIS ACTIVE - HISTORY:    12 CYCLES
 CYCLE  12   ALPHA  928.884342  EPSILON    3.484663  DELTA   -3.2467E-03
 TTTTTTTTTTTTTTTTTTTTTTTTTTTTTT MOQGAD      TELAPSE   151437.34 TCPU   149619.32
 TTTTTTTTTTTTTTTTTTTTTTTTTTTTTT CP_MONMON   TELAPSE   151466.59 TCPU   149648.47
 DIIS TEST: 0.16695E-05 AT CPHF  CYCLE  13 - DIIS ACTIVE - HISTORY:    13 CYCLES
 CYCLE  13   ALPHA  928.883375  EPSILON    3.484661  DELTA   -9.6689E-04
 TTTTTTTTTTTTTTTTTTTTTTTTTTTTTT CP_SC       TELAPSE   151649.79 TCPU   149814.39

 *******************************************************************************

 ELECTRIC FIELD APPLIED ALONG CARTESIAN DIRECTION Z

 *******************************************************************************
 THE NUMBER OF SYMMETRY OPERATORS HAS BEEN REDUCED FROM  4 TO  1

 NEW GRID IN RECIPROCAL SPACE
 *******************************************************************************
 POINTS IN THE IBZ                  14 SHRINKING FACTORS               3  3  3
 *******************************************************************************
 *** K POINTS COORDINATES (OBLIQUE COORDINATES IN UNITS OF SHRINK FAC. )
   1-R(  0  0  0)   2-C(  1  0  0)   3-C(  0  1  2)   4-C(  2  0  1)
   5-C(  0  2  0)   6-C(  1  1  0)   7-C(  1  1  1)   8-C(  1  0  1)
   9-C(  0  1  1)  10-C(  2  1  0)  11-C(  0  0  2)  12-C(  2  1  1)
  13-C(  2  1  2)  14-C(  2  2  1)

 GCALCO - MAX INDICES DIRECT LATTICE VECTOR    14    14    15
 NO.OF VECTORS CREATED 6999 STARS  488 RMAX   198.50792 BOHR
 TTTTTTTTTTTTTTTTTTTTTTTTTTTTTT gordsh1     TELAPSE   151699.92 TCPU   149862.68

 MATRIX SIZE: P(G) 1786428, F(G)  894138, P(G) IRR  896304, F(G) IRR  896304
 MAX G-VECTOR INDEX FOR 1- AND 2-ELECTRON INTEGRALS  59

 TTTTTTTTTTTTTTTTTTTTTTTTTTTTTT INPUT       TELAPSE   151736.19 TCPU   149898.72
 TTTTTTTTTTTTTTTTTTTTTTTTTTTTTT SYMM        TELAPSE   151736.19 TCPU   149898.73

 ***** NEW REFERENCE GEOMETRY *****
 TTTTTTTTTTTTTTTTTTTTTTTTTTTTTT INT_SCREEN  TELAPSE   151736.21 TCPU   149898.74
 INFORMATION **** EXCBUF **** EXCH. BIPO BUFFER: WORDS USED =           0

 DFT PARAMETERS

     ATOM       ELECTRONS   NET CHARGE   R(ANGSTROM)
   1   1  H       1.0000      0.0000     1.11000000
   5   6  C       6.0000      0.0000     0.77000000
  29   7  N       7.0000      0.0000     0.74000000
  49   9  F       9.0000      0.0000     0.72000000
  61  30  ZN     30.0000      0.0000     1.37000000

 SIZE OF GRID=    1959884
 TTTTTTTTTTTTTTTTTTTTTTTTTTTTTT MAKE_GRID2  TELAPSE   151738.31 TCPU   149900.84
 BECKE WEIGHT FUNCTION
 RADSAFE =     2.00
 TOLERANCES - DENSITY:10**- 6; POTENTIAL:10**- 9; GRID WGT:10**-14

 RADIAL INTEGRATION  - INTERVALS (POINTS,UPPER LIMIT):            1( 75,  4.0*R)

 ANGULAR INTEGRATION - INTERVALS (ACCURACY LEVEL [N. POINTS] UPPER LIMIT):
  1(  4[  86]   0.2)  2(  8[ 194]   0.5)  3( 12[ 350]   0.9)  4( 16[ 974]   3.5)
  5( 12[ 350]9999.0)
 TTTTTTTTTTTTTTTTTTTTTTTTTTTTTT INT_CALC    TELAPSE   151738.42 TCPU   149900.94
 CYCLE   0   ALPHA  544.908149  EPSILON    2.457569  DELTA    5.4491E+02
 TTTTTTTTTTTTTTTTTTTTTTTTTTTTTT MOQGAD      TELAPSE   153144.87 TCPU   151300.33
 TTTTTTTTTTTTTTTTTTTTTTTTTTTTTT CP_MONMON   TELAPSE   153174.31 TCPU   151329.66
 DIIS TEST: 0.64941E+02 AT CPHF  CYCLE   1 - MIX    0 %
 CYCLE   1   ALPHA  274.148730  EPSILON    1.733318  DELTA   -2.7076E+02
 TTTTTTTTTTTTTTTTTTTTTTTTTTTTTT MOQGAD      TELAPSE   154627.83 TCPU   152773.96
 TTTTTTTTTTTTTTTTTTTTTTTTTTTTTT CP_MONMON   TELAPSE   154657.20 TCPU   152803.25
 DIIS TEST: 0.44776E+03 AT CPHF  CYCLE   2 - DIIS ACTIVE - HISTORY:     2 CYCLES
 CYCLE   2   ALPHA  400.817425  EPSILON    2.072142  DELTA    1.2667E+02
 TTTTTTTTTTTTTTTTTTTTTTTTTTTTTT MOQGAD      TELAPSE   156128.98 TCPU   154262.80
 TTTTTTTTTTTTTTTTTTTTTTTTTTTTTT CP_MONMON   TELAPSE   156158.28 TCPU   154292.03
 DIIS TEST: 0.20235E+02 AT CPHF  CYCLE   3 - DIIS ACTIVE - HISTORY:     3 CYCLES
 CYCLE   3   ALPHA  427.152516  EPSILON    2.142586  DELTA    2.6335E+01
 TTTTTTTTTTTTTTTTTTTTTTTTTTTTTT MOQGAD      TELAPSE   157637.10 TCPU   155757.55
 TTTTTTTTTTTTTTTTTTTTTTTTTTTTTT CP_MONMON   TELAPSE   157668.13 TCPU   155786.97
 DIIS TEST: 0.42421E+01 AT CPHF  CYCLE   4 - DIIS ACTIVE - HISTORY:     4 CYCLES
 CYCLE   4   ALPHA  427.920101  EPSILON    2.144639  DELTA    7.6758E-01
 TTTTTTTTTTTTTTTTTTTTTTTTTTTTTT MOQGAD      TELAPSE   159102.95 TCPU   157210.18
 TTTTTTTTTTTTTTTTTTTTTTTTTTTTTT CP_MONMON   TELAPSE   159132.28 TCPU   157239.40
 DIIS TEST: 0.17218E+00 AT CPHF  CYCLE   5 - DIIS ACTIVE - HISTORY:     5 CYCLES
 CYCLE   5   ALPHA  428.240052  EPSILON    2.145495  DELTA    3.1995E-01
 TTTTTTTTTTTTTTTTTTTTTTTTTTTTTT MOQGAD      TELAPSE   160543.73 TCPU   158639.38
 TTTTTTTTTTTTTTTTTTTTTTTTTTTTTT CP_MONMON   TELAPSE   160573.09 TCPU   158668.65
 DIIS TEST: 0.16814E-01 AT CPHF  CYCLE   6 - DIIS ACTIVE - HISTORY:     6 CYCLES
 CYCLE   6   ALPHA  428.349455  EPSILON    2.145788  DELTA    1.0940E-01
 TTTTTTTTTTTTTTTTTTTTTTTTTTTTTT MOQGAD      TELAPSE   161982.06 TCPU   160067.76
 TTTTTTTTTTTTTTTTTTTTTTTTTTTTTT CP_MONMON   TELAPSE   162011.38 TCPU   160096.95
 DIIS TEST: 0.28840E-02 AT CPHF  CYCLE   7 - DIIS ACTIVE - HISTORY:     7 CYCLES
 CYCLE   7   ALPHA  428.356395  EPSILON    2.145806  DELTA    6.9402E-03
 TTTTTTTTTTTTTTTTTTTTTTTTTTTTTT MOQGAD      TELAPSE   163471.68 TCPU   161551.69
 TTTTTTTTTTTTTTTTTTTTTTTTTTTTTT CP_MONMON   TELAPSE   163501.05 TCPU   161580.98
 DIIS TEST: 0.13046E-02 AT CPHF  CYCLE   8 - DIIS ACTIVE - HISTORY:     8 CYCLES
 CYCLE   8   ALPHA  428.367929  EPSILON    2.145837  DELTA    1.1534E-02
 TTTTTTTTTTTTTTTTTTTTTTTTTTTTTT MOQGAD      TELAPSE   164901.75 TCPU   162970.55
 TTTTTTTTTTTTTTTTTTTTTTTTTTTTTT CP_MONMON   TELAPSE   164931.12 TCPU   162999.83
 DIIS TEST: 0.59125E-04 AT CPHF  CYCLE   9 - DIIS ACTIVE - HISTORY:     9 CYCLES
 CYCLE   9   ALPHA  428.360440  EPSILON    2.145817  DELTA   -7.4889E-03
 TTTTTTTTTTTTTTTTTTTTTTTTTTTTTT MOQGAD      TELAPSE   166389.09 TCPU   164452.94
 TTTTTTTTTTTTTTTTTTTTTTTTTTTTTT CP_MONMON   TELAPSE   166418.44 TCPU   164482.18
 DIIS TEST: 0.61609E-04 AT CPHF  CYCLE  10 - DIIS ACTIVE - HISTORY:    10 CYCLES
 CYCLE  10   ALPHA  428.358101  EPSILON    2.145811  DELTA   -2.3387E-03
 TTTTTTTTTTTTTTTTTTTTTTTTTTTTTT MOQGAD      TELAPSE   167831.46 TCPU   165886.92
 TTTTTTTTTTTTTTTTTTTTTTTTTTTTTT CP_MONMON   TELAPSE   167860.79 TCPU   165916.15
 DIIS TEST: 0.19375E-04 AT CPHF  CYCLE  11 - DIIS ACTIVE - HISTORY:    11 CYCLES
 CYCLE  11   ALPHA  428.356501  EPSILON    2.145806  DELTA   -1.6000E-03
 TTTTTTTTTTTTTTTTTTTTTTTTTTTTTT MOQGAD      TELAPSE   169298.59 TCPU   167343.10
 TTTTTTTTTTTTTTTTTTTTTTTTTTTTTT CP_MONMON   TELAPSE   169327.97 TCPU   167372.32
 DIIS TEST: 0.51839E-06 AT CPHF  CYCLE  12 - DIIS ACTIVE - HISTORY:    12 CYCLES
 CYCLE  12   ALPHA  428.356031  EPSILON    2.145805  DELTA   -4.7019E-04
 TTTTTTTTTTTTTTTTTTTTTTTTTTTTTT CP_SC       TELAPSE   169451.36 TCPU   167490.21

 *******************************************************************************

 POLARIZABILITY (ALPHA), DIELECTRIC (EPSILON) AND FIRST-ORDER ELECTRIC
 SUSCEPTIBILITY (CHI(1)) TENSORS (INDEPENDENT COMPONENTS)

  FR.(eV) COMP.   ALPHA(Re,Im)           EPSILON(Re,Im)                CHI(1)
  2.331   XX     928.8825       0.0000       3.4847       0.0000       2.4847
  2.331   XY      -0.0004       0.0000      -0.0000       0.0000      -0.0000
  2.331   XZ       0.0000       0.0000       0.0000       0.0000       0.0000
  2.331   YY     928.8834       0.0000       3.4847       0.0000       2.4847
  2.331   YZ      -0.0000       0.0000      -0.0000       0.0000      -0.0000
  2.331   ZZ     428.3560       0.0000       2.1458       0.0000       1.1458

 DIELECTRIC TENSOR

 TENSOR IN PRINCIPAL AXES SYSTEM
 AA  3.484658E+00 BB  3.484661E+00 CC  2.145805E+00

 REFRACTIVE INDICES 
 AA  1.464857E+00 BB  1.866724E+00 CC  1.866725E+00

 OPTICALLY ANISOTROPIC - UNIAXIAL CRYSTAL

 BIREFRINGENCE =  0.4019 (NEGATIVE) - OBLATE OPTICAL ELLIPSOID

 EPSILON=N**2=1+CHI(1)=1+ALPHA*4*PI/V,   4*PI/V=   0.00267 BOHR**(-3)
 ALPHA IN BOHR**3; EPSILON AND CHI(1) ARE DIMENSIONLESS.
 *******************************************************************************


  Pockels Effect beta(-omega;omega,0) with omega=   1.1653 eV


 SIZE OF GRID=    1959884
 TTTTTTTTTTTTTTTTTTTTTTTTTTTTTT MAKE_GRID2  TELAPSE   169982.14 TCPU   168015.60
 BECKE WEIGHT FUNCTION
 RADSAFE =     2.00
 TOLERANCES - DENSITY:10**- 6; POTENTIAL:10**- 9; GRID WGT:10**-14

 RADIAL INTEGRATION  - INTERVALS (POINTS,UPPER LIMIT):            1( 75,  4.0*R)

 ANGULAR INTEGRATION - INTERVALS (ACCURACY LEVEL [N. POINTS] UPPER LIMIT):
  1(  4[  86]   0.2)  2(  8[ 194]   0.5)  3( 12[ 350]   0.9)  4( 16[ 974]   3.5)
  5( 12[ 350]9999.0)

 SIZE OF GRID=    1959884
 TTTTTTTTTTTTTTTTTTTTTTTTTTTTTT MAKE_GRID2  TELAPSE   169987.11 TCPU   168019.79
 BECKE WEIGHT FUNCTION
 RADSAFE =     2.00
 TOLERANCES - DENSITY:10**- 6; POTENTIAL:10**- 9; GRID WGT:10**-14

 RADIAL INTEGRATION  - INTERVALS (POINTS,UPPER LIMIT):            1( 75,  4.0*R)

 ANGULAR INTEGRATION - INTERVALS (ACCURACY LEVEL [N. POINTS] UPPER LIMIT):
  1(  4[  86]   0.2)  2(  8[ 194]   0.5)  3( 12[ 350]   0.9)  4( 16[ 974]   3.5)
  5( 12[ 350]9999.0)
 *******************************************************************************

 DC-POCKELS AND SECOND ELECTRIC SUSCEPTIBILITY (CHI(2))
 TENSORS (INDEPENDENT COMPONENTS)

BETA                                         CHI(2)       d(MKS)       d(cgs)
 *******************************************************************************

     XXX         -0.1891E-03  -0.2530E-06  -0.2460E-06  -0.5868E-08
     XXY          0.6693E-04   0.8951E-07   0.8704E-07   0.2076E-08
     XXZ          0.1580E+03   0.2113E+00   0.2055E+00   0.4902E-02
     XYX         -0.2314E-03  -0.3095E-06  -0.3009E-06  -0.7179E-08
     XYY          0.3623E-04   0.4846E-07   0.4712E-07   0.1124E-08
     XYZ          0.3424E+02   0.4579E-01   0.4453E-01   0.1062E-02
     XZX          0.1538E+03   0.2057E+00   0.2000E+00   0.4771E-02
     XZY          0.4094E+02   0.5476E-01   0.5324E-01   0.1270E-02
     XZZ         -0.3027E-03  -0.4049E-06  -0.3937E-06  -0.9393E-08
     YXX         -0.3568E-03  -0.4772E-06  -0.4640E-06  -0.1107E-07
     YXY          0.1526E-04   0.2041E-07   0.1984E-07   0.4734E-09
     YXZ          0.3424E+02   0.4579E-01   0.4453E-01   0.1062E-02
     YYX          0.3057E-04   0.4089E-07   0.3976E-07   0.9485E-09
     YYY         -0.7997E-03  -0.1070E-05  -0.1040E-05  -0.2481E-07
     YYZ         -0.1580E+03  -0.2113E+00  -0.2055E+00  -0.4902E-02
     YZX          0.4094E+02   0.5476E-01   0.5324E-01   0.1270E-02
     YZY         -0.1538E+03  -0.2057E+00  -0.2000E+00  -0.4771E-02
     YZZ         -0.1186E-04  -0.1586E-07  -0.1542E-07  -0.3678E-09
     ZXX          0.1538E+03   0.2057E+00   0.2000E+00   0.4771E-02
     ZXY          0.4094E+02   0.5476E-01   0.5324E-01   0.1270E-02
     ZXZ         -0.2465E-03  -0.3297E-06  -0.3206E-06  -0.7649E-08
     ZYX          0.4094E+02   0.5476E-01   0.5324E-01   0.1270E-02
     ZYY         -0.1538E+03  -0.2057E+00  -0.2000E+00  -0.4771E-02
     ZYZ         -0.1254E-04  -0.1678E-07  -0.1631E-07  -0.3892E-09
     ZZX         -0.2899E-03  -0.3877E-06  -0.3770E-06  -0.8994E-08
     ZZY         -0.1646E-04  -0.2202E-07  -0.2141E-07  -0.5107E-09
     ZZZ         -0.7181E-03  -0.9604E-06  -0.9339E-06  -0.2228E-07
 *******************************************************************************
 CHI(2) = BETA*2PI/V

 BETA AND CHI(2) IN A.U.:    [BETA] = M**(-1/2) L**(7/2) T
                             [CHI(2)] = 1/F
                             (L=LENGTH, M=MASS, T=TIME, F=FIELD INTENSITY)

 ELECTRIC SUSCEPTIBILITY IN THE SECOND HARMONIC GENERATION (SHG) CONVENTION IS:
                   d(A.U.)= 1/2 CHI(2)
                   d(MKS) = d(A.U.)/0.514220632 pm/V
                   d(CGS) = d(A.U.)/(4PI*1.7152535)  10**(-7) esu

 FIELD INTENSITY: 1 A.U. = 0.514220632*10**(11) V/m = 1.7152535*10**7 esu
 BEWARE:                CHI(2)=P/(E0*F**2)   (MKS)
                        CHI(2)=P/F**2        (CGS)
 WHERE P IS THE POLARIZATION VECTOR AND F IS THE APPLIED ELECTRIC FIELD.
 CONSISTENCY IS  PRESERVED BY MULTIPLYING THE CGS VALUE TIMES THE PERMITTIVITY
 OF THE VACUUM, E0 (CONVERSION FACTORS FROM www.physics.nist.gov/constants).
 IN PARENTHESIS: BETA BEFORE SYMMETRIZATION.

  SHG Effect beta(-2omega;omega,omega) with omega=   1.1653 eV


 SIZE OF GRID=    1959884
 TTTTTTTTTTTTTTTTTTTTTTTTTTTTTT MAKE_GRID2  TELAPSE   170429.70 TCPU   168460.40
 BECKE WEIGHT FUNCTION
 RADSAFE =     2.00
 TOLERANCES - DENSITY:10**- 6; POTENTIAL:10**- 9; GRID WGT:10**-14

 RADIAL INTEGRATION  - INTERVALS (POINTS,UPPER LIMIT):            1( 75,  4.0*R)

 ANGULAR INTEGRATION - INTERVALS (ACCURACY LEVEL [N. POINTS] UPPER LIMIT):
  1(  4[  86]   0.2)  2(  8[ 194]   0.5)  3( 12[ 350]   0.9)  4( 16[ 974]   3.5)
  5( 12[ 350]9999.0)

 SIZE OF GRID=    1959884
 TTTTTTTTTTTTTTTTTTTTTTTTTTTTTT MAKE_GRID2  TELAPSE   170432.14 TCPU   168462.83
 BECKE WEIGHT FUNCTION
 RADSAFE =     2.00
 TOLERANCES - DENSITY:10**- 6; POTENTIAL:10**- 9; GRID WGT:10**-14

 RADIAL INTEGRATION  - INTERVALS (POINTS,UPPER LIMIT):            1( 75,  4.0*R)

 ANGULAR INTEGRATION - INTERVALS (ACCURACY LEVEL [N. POINTS] UPPER LIMIT):
  1(  4[  86]   0.2)  2(  8[ 194]   0.5)  3( 12[ 350]   0.9)  4( 16[ 974]   3.5)
  5( 12[ 350]9999.0)
 *******************************************************************************

 SECOND HARMONIC GENERATION (SHG)  AND SECOND ELECTRIC SUSCEPTIBILITY (CHI(2))
 TENSORS (INDEPENDENT COMPONENTS)

BETA                                         CHI(2)       d(MKS)       d(cgs)
 *******************************************************************************

     XXX         -0.2627E-03  -0.3513E-06  -0.3416E-06  -0.8150E-08
     XXY         -0.1878E-03  -0.2512E-06  -0.2442E-06  -0.5827E-08
     XXZ          0.2435E+03   0.3257E+00   0.3167E+00   0.7554E-02
     XYX         -0.1878E-03  -0.2512E-06  -0.2442E-06  -0.5827E-08
     XYY          0.1915E-04   0.2561E-07   0.2490E-07   0.5941E-09
     XYZ          0.5652E+02   0.7559E-01   0.7350E-01   0.1754E-02
     XZX          0.2435E+03   0.3257E+00   0.3167E+00   0.7554E-02
     XZY          0.5652E+02   0.7559E-01   0.7350E-01   0.1754E-02
     XZZ         -0.3611E-03  -0.4830E-06  -0.4696E-06  -0.1120E-07
     YXX          0.7929E-03   0.1060E-05   0.1031E-05   0.2460E-07
     YXY          0.6387E-04   0.8542E-07   0.8306E-07   0.1982E-08
     YXZ          0.5652E+02   0.7559E-01   0.7350E-01   0.1754E-02
     YYX          0.6387E-04   0.8542E-07   0.8306E-07   0.1982E-08
     YYY          0.3944E-04   0.5274E-07   0.5129E-07   0.1224E-08
     YYZ         -0.2435E+03  -0.3257E+00  -0.3167E+00  -0.7555E-02
     YZX          0.5652E+02   0.7559E-01   0.7350E-01   0.1754E-02
     YZY         -0.2435E+03  -0.3257E+00  -0.3167E+00  -0.7555E-02
     YZZ          0.5471E-03   0.7317E-06   0.7115E-06   0.1697E-07
     ZXX          0.2183E+03   0.2920E+00   0.2839E+00   0.6774E-02
     ZXY          0.6250E+02   0.8359E-01   0.8128E-01   0.1939E-02
     ZXZ         -0.2649E-03  -0.3543E-06  -0.3445E-06  -0.8218E-08
     ZYX          0.6250E+02   0.8359E-01   0.8128E-01   0.1939E-02
     ZYY         -0.2183E+03  -0.2920E+00  -0.2839E+00  -0.6774E-02
     ZYZ          0.3015E-05   0.4032E-08   0.3920E-08   0.9353E-10
     ZZX         -0.2649E-03  -0.3543E-06  -0.3445E-06  -0.8218E-08
     ZZY          0.3015E-05   0.4032E-08   0.3920E-08   0.9353E-10
     ZZZ         -0.1248E-02  -0.1669E-05  -0.1623E-05  -0.3873E-07
 *******************************************************************************
 CHI(2) = BETA*2PI/V

 BETA AND CHI(2) IN A.U.:    [BETA] = M**(-1/2) L**(7/2) T
                             [CHI(2)] = 1/F
                             (L=LENGTH, M=MASS, T=TIME, F=FIELD INTENSITY)

 ELECTRIC SUSCEPTIBILITY IN THE SECOND HARMONIC GENERATION (SHG) CONVENTION IS:
                   d(A.U.)= 1/2 CHI(2)
                   d(MKS) = d(A.U.)/0.514220632 pm/V
                   d(CGS) = d(A.U.)/(4PI*1.7152535)  10**(-7) esu

 FIELD INTENSITY: 1 A.U. = 0.514220632*10**(11) V/m = 1.7152535*10**7 esu
 BEWARE:                CHI(2)=P/(E0*F**2)   (MKS)
                        CHI(2)=P/F**2        (CGS)
 WHERE P IS THE POLARIZATION VECTOR AND F IS THE APPLIED ELECTRIC FIELD.
 CONSISTENCY IS  PRESERVED BY MULTIPLYING THE CGS VALUE TIMES THE PERMITTIVITY
 OF THE VACUUM, E0 (CONVERSION FACTORS FROM www.physics.nist.gov/constants).
 IN PARENTHESIS: BETA BEFORE SYMMETRIZATION.

 *******************************************************************************


 GCALCO - MAX INDICES DIRECT LATTICE VECTOR    14    14    15
 NO.OF VECTORS CREATED 6999 STARS  488 RMAX   198.50792 BOHR

 CAPPA:IS1  3;IS2  3;IS3  3; K PTS MONK NET   6; SYMMOPS:K SPACE   8;G SPACE   4

 TTTTTTTTTTTTTTTTTTTTTTTTTTTTTT END         TELAPSE   170432.53 TCPU   168463.22
 EEEEEEEEEE TERMINATION  DATE 04 12 2023 TIME 22:12:45.3
NODE    0 CPU TIME =    168463.218
NODE    1 CPU TIME =    169096.444
NODE    2 CPU TIME =    168789.571
NODE    3 CPU TIME =    168822.583
NODE    4 CPU TIME =    169124.024
NODE    5 CPU TIME =    169200.196
NODE    6 CPU TIME =    168718.944
NODE    7 CPU TIME =    168609.028
NODE    8 CPU TIME =    169021.730
NODE    9 CPU TIME =    169176.211
NODE   10 CPU TIME =    167530.092
NODE   11 CPU TIME =    167438.211
NODE   12 CPU TIME =    167804.351
NODE   13 CPU TIME =    167944.326
NODE   14 CPU TIME =    167553.889
NODE   15 CPU TIME =    167312.093
NODE   16 CPU TIME =    167887.555
NODE   17 CPU TIME =    167915.887
NODE   18 CPU TIME =    167482.996
NODE   19 CPU TIME =    167449.995
NODE   20 CPU TIME =    167941.998
NODE   21 CPU TIME =    167940.805
NODE   22 CPU TIME =    167396.847
NODE   23 CPU TIME =    166810.081
    TOTAL CPU TIME =   4035431.074
trying normal rsh (/usr/bin/rsh)
exec: No such file or directory
trying normal rsh (/usr/bin/rsh)
exec: No such file or directory
trying normal rsh (/usr/bin/rsh)
exec: No such file or directory
trying normal rsh (/usr/bin/rsh)
exec: No such file or directory
