Loading crystal17/1.0.2/intel/19.0
  Loading requirement: intel/19.0 ompi/4.0.1/intel/19.0
 PROCESS            2  OF           24  WORKING
 PROCESS            4  OF           24  WORKING
 PROCESS            6  OF           24  WORKING
 PROCESS            8  OF           24  WORKING
 PROCESS            9  OF           24  WORKING
 PROCESS           11  OF           24  WORKING
 PROCESS           12  OF           24  WORKING
 PROCESS           13  OF           24  WORKING
 PROCESS           14  OF           24  WORKING
 PROCESS           15  OF           24  WORKING
 PROCESS           16  OF           24  WORKING
 PROCESS           17  OF           24  WORKING
 PROCESS           18  OF           24  WORKING
 PROCESS           19  OF           24  WORKING
 PROCESS           20  OF           24  WORKING
 PROCESS           21  OF           24  WORKING
 PROCESS           22  OF           24  WORKING
 PROCESS           23  OF           24  WORKING
 PROCESS            0  OF           24  WORKING
 PROCESS            1  OF           24  WORKING
 PROCESS            3  OF           24  WORKING
 PROCESS            5  OF           24  WORKING
 PROCESS            7  OF           24  WORKING
 PROCESS           10  OF           24  WORKING

         
 *******************************************************************************
 *                                                                             *
 *                               CRYSTAL17                                     *
 *                      public : 1.0.2 - March 1st, 2018                       *
 *                       HTTP://WWW.CRYSTAL.UNITO.IT                           *
 *                                                                             *
 *                              MAIN AUTHORS                                   *
 *                                                                             *
 *  R. DOVESI(1,11), V.R. SAUNDERS(2), C. ROETTI(1,11), R. ORLANDO(1,11),      *
 *  C.M. ZICOVICH-WILSON(1,3), F. PASCALE(4), B. CIVALLERI(1,11),              *
 *  K. DOLL(5), N.M. HARRISON(2,6), I.J. BUSH(7), Ph. D'ARCO(8),               *
 *  M. LLUNELL(9), M. CAUSA'(10), Y. NOEL(8), L. MASCHIO(1,11), A. ERBA(1,11)  *
 *  M. RE'RAT(14), S. CASASSA(1,11)                                            *
 *                                                                             *
 *        CONTRIBUTIONS TO THE CODE HAVE ALSO BEEN GIVEN BY                    *
 *                                                                             *
 *  M. FERRABONE(1,11), M. DE LA PIERRE(1,11), M. FERRERO(1,11),               *
 *  J. BAIMA(1,11), E. ALBANESE(1,11), M.F. PEINTINGER(12), R. BAST(13),       *
 *  B. KIRTMAN(15), V. LACIVITA(1,11), R. DEMICHELIS(1,16)                     *
 *  G. BRANDEBURG(17), S. SALUSTRO(1,11), G. SANSONE(1,11)                     *
 *  M.T. RUGGIERO(18)                                                          *
 *                                                                             *
 * (1) THEORETICAL CHEMISTRY GROUP - UNIVERSITA' DI TORINO - TORINO (ITALY)    *
 * (2) COMPUTATIONAL SCIENCE & ENGINEERING DEPARTMENT - STFC DARESBURY (UK)    *
 * (3) UNIVERSIDAD AUTONOMA DEL ESTADO DE MORELOS - CUERNAVACA (MEXICO)        *
 * (4) UNIVERSITE' DE LORRAINE - NANCY (FRANCE)                                *
 * (5) UNIVERSITAET STUTTGART- STUTTGART (GERMANY)                             *
 * (6) IMPERIAL COLLEGE - LONDON (UK)                                          *
 * (7) OXFORD E-RESEARCH CENTRE - OXFORD (UK)                                  *
 * (8) UPMC - SORBONNE UNIVERSITES - PARIS (FRANCE)                            *
 * (9) UNIVERSIDAD DE BARCELONA - BARCELONA (SPAIN)                            *
 *(10) UNIVERSITA' DI NAPOLI "FEDERICO II" - NAPOLI (ITALY)                    *
 *(11) NIS - NANOSTRUCTURED INTERFACES AND SURFACES - TORINO (ITALY)           *
 *(12) MPI FUER CHEMISCHE ENERGIEKONVERSION - MUELHEIM AN DER RUHR (GERMANY)   *
 *(13) UNIVERSITY OF TROMSO - TROMSO (NORWAY)                                  *
 *(14) UNIVERSITE' DE PAU ET DES PAYS DE L'ADOUR - PAU (FRANCE)                *
 *(15) UNIVERSITY OF CALIFORNIA SANTA BARBARA - SANTA BARBARA (USA)            *
 *(16) CURTIN UNIVERSITY - PERTH (AUSTRALIA)                                   *
 *(17) UNIVERSITY COLLEGE LONDON - LONDON (UK)                                 *
 *(18) CAMBRIDGE UNIVERSITY - CAMBRIDGE (UK)                                   *
 *                                                                             *
 *******************************************************************************
 EEEEEEEEEE STARTING  DATE 03 12 2023 TIME 07:47:33.9
 Z:\home\sanoj\Downloads\tmp_p\newconn.mol                                       

 CRYSTAL CALCULATION
 (INPUT ACCORDING TO THE INTERNATIONAL TABLES FOR X-RAY CRYSTALLOGRAPHY)
 CRYSTAL FAMILY                       :  TETRAGONAL  
 CRYSTAL CLASS  (GROTH - 1921)        :  TETRAGONAL DISPHENOIDAL              

 SPACE GROUP (NONCENTROSYMMETRIC)     :  I -4            

 LATTICE PARAMETERS  (ANGSTROMS AND DEGREES) - CONVENTIONAL CELL
        A           B           C        ALPHA        BETA       GAMMA
    10.90645    10.90645    11.96262    90.00000    90.00000    90.00000


 NUMBER OF IRREDUCIBLE ATOMS IN THE CONVENTIONAL CELL:   17

 INPUT COORDINATES

 ATOM AT. N.              COORDINATES
   1   6     2.662400000000E-01  8.146300000000E-01  3.862900000000E-01
   2   6     2.511600000000E-01 -5.332000000000E-02  3.776900000000E-01
   3   6     1.729100000000E-01  7.284500000000E-01  3.667500000000E-01
   4   6     3.196800000000E-01  5.674600000000E-01  3.731300000000E-01
   5   6     3.814700000000E-01  7.613900000000E-01  4.046800000000E-01
   6   6     8.019200000000E-01  3.964800000000E-01  3.590300000000E-01
   7   7     3.382700000000E-01  2.135000000000E-02  3.335400000000E-01
   8   7     2.930900000000E-01  1.387900000000E-01  3.397300000000E-01
   9   7     1.538000000000E-01  1.529000000000E-02  4.091900000000E-01
  10   7     1.826500000000E-01  1.354700000000E-01  3.841500000000E-01
  11   7     4.093500000000E-01  6.442800000000E-01  3.976300000000E-01
  12   9     5.688000000000E-02  7.661200000000E-01  3.541000000000E-01
  13   9     4.750500000000E-01  8.366900000000E-01  4.321600000000E-01
  14   9     1.107700000000E-01  5.208800000000E-01  3.401400000000E-01
  15   9     3.462100000000E-01  4.486100000000E-01  3.623500000000E-01
  16  30     0.000000000000E+00  5.000000000000E-01  7.500000000000E-01
  17  30     0.000000000000E+00  0.000000000000E+00  5.000000000000E-01

 *******************************************************************************

 << INFORMATION >>: FROM NOW ON, ALL COORDINATES REFER TO THE PRIMITIVE CELL

 *******************************************************************************

 LATTICE PARAMETERS  (ANGSTROMS AND DEGREES) - PRIMITIVE CELL
       A          B          C        ALPHA      BETA     GAMMA        VOLUME
    9.75968    9.75968    9.75968   112.06117 112.06117 104.40695    711.481160

 COORDINATES OF THE EQUIVALENT ATOMS (FRACTIONAL UNITS)

 N. ATOM EQUIV AT. N.          X                  Y                  Z

   1   1   1    6 C     2.00920000000E-01 -3.47470000000E-01  8.08700000000E-02
   2   1   2    6 C    -4.28340000000E-01  1.20050000000E-01 -8.08700000000E-02
   3   1   3    6 C     3.47470000000E-01  4.28340000000E-01 -4.51610000000E-01
   4   1   4    6 C    -1.20050000000E-01 -2.00920000000E-01  4.51610000000E-01

   5   2   1    6 C     3.24370000000E-01 -3.71150000000E-01  1.97840000000E-01
   6   2   2    6 C     4.31010000000E-01  1.26530000000E-01 -1.97840000000E-01
   7   2   3    6 C     3.71150000000E-01 -4.31010000000E-01 -3.04480000000E-01
   8   2   4    6 C    -1.26530000000E-01 -3.24370000000E-01  3.04480000000E-01

   9   3   1    6 C     9.52000000000E-02 -4.60340000000E-01 -9.86400000000E-02
  10   3   2    6 C    -3.61700000000E-01  1.93840000000E-01  9.86400000000E-02
  11   3   3    6 C     4.60340000000E-01  3.61700000000E-01 -4.44460000000E-01
  12   3   4    6 C    -1.93840000000E-01 -9.52000000000E-02  4.44460000000E-01

  13   4   1    6 C    -5.94100000000E-02 -3.07190000000E-01 -1.12860000000E-01
  14   4   2    6 C    -1.94330000000E-01  5.34500000000E-02  1.12860000000E-01
  15   4   3    6 C     3.07190000000E-01  1.94330000000E-01  2.47780000000E-01
  16   4   4    6 C    -5.34500000000E-02  5.94100000000E-02 -2.47780000000E-01

  17   5   1    6 C     1.66070000000E-01 -2.13850000000E-01  1.42860000000E-01
  18   5   2    6 C    -3.56710000000E-01  2.32100000000E-02 -1.42860000000E-01
  19   5   3    6 C     2.13850000000E-01  3.56710000000E-01  3.79920000000E-01
  20   5   4    6 C    -2.32100000000E-02 -1.66070000000E-01 -3.79920000000E-01

  21   6   1    6 C    -2.44490000000E-01  1.60950000000E-01  1.98400000000E-01
  22   6   2    6 C    -3.74500000000E-02 -4.42890000000E-01 -1.98400000000E-01
  23   6   3    6 C    -1.60950000000E-01  3.74500000000E-02 -4.05440000000E-01
  24   6   4    6 C     4.42890000000E-01  2.44490000000E-01  4.05440000000E-01

  25   7   1    7 N     3.54890000000E-01 -3.28190000000E-01  3.59620000000E-01
  26   7   2    7 N     3.12190000000E-01 -4.73000000000E-03 -3.59620000000E-01
  27   7   3    7 N     3.28190000000E-01 -3.12190000000E-01 -3.16920000000E-01
  28   7   4    7 N     4.73000000000E-03 -3.54890000000E-01  3.16920000000E-01

  29   8   1    7 N     4.78520000000E-01 -3.67180000000E-01  4.31880000000E-01
  30   8   2    7 N     2.00940000000E-01  4.66400000000E-02 -4.31880000000E-01
  31   8   3    7 N     3.67180000000E-01 -2.00940000000E-01 -1.54300000000E-01
  32   8   4    7 N    -4.66400000000E-02 -4.78520000000E-01  1.54300000000E-01

  33   9   1    7 N     4.24480000000E-01 -4.37010000000E-01  1.69090000000E-01
  34   9   2    7 N     3.93900000000E-01  2.55390000000E-01 -1.69090000000E-01
  35   9   3    7 N     4.37010000000E-01 -3.93900000000E-01 -1.38510000000E-01
  36   9   4    7 N    -2.55390000000E-01 -4.24480000000E-01  1.38510000000E-01

  37  10   1    7 N    -4.80380000000E-01 -4.33200000000E-01  3.18120000000E-01
  38  10   2    7 N     2.48680000000E-01  2.01500000000E-01 -3.18120000000E-01
  39  10   3    7 N     4.33200000000E-01 -2.48680000000E-01 -4.71800000000E-02
  40  10   4    7 N    -2.01500000000E-01  4.80380000000E-01  4.71800000000E-02

  41  11   1    7 N     4.19100000000E-02 -1.93020000000E-01  5.36300000000E-02
  42  11   2    7 N    -2.46650000000E-01 -1.17200000000E-02 -5.36300000000E-02
  43  11   3    7 N     1.93020000000E-01  2.46650000000E-01  2.34930000000E-01
  44  11   4    7 N     1.17200000000E-02 -4.19100000000E-02 -2.34930000000E-01

  45  12   1    9 F     1.20220000000E-01  4.10980000000E-01 -1.77000000000E-01
  46  12   2    9 F    -4.12020000000E-01  2.97220000000E-01  1.77000000000E-01
  47  12   3    9 F    -4.10980000000E-01  4.12020000000E-01 -2.90760000000E-01
  48  12   4    9 F    -2.97220000000E-01 -1.20220000000E-01  2.90760000000E-01

  49  13   1    9 F     2.68850000000E-01 -9.27900000000E-02  3.11740000000E-01
  50  13   2    9 F    -4.04530000000E-01 -4.28900000000E-02 -3.11740000000E-01
  51  13   3    9 F     9.27900000000E-02  4.04530000000E-01  3.61640000000E-01
  52  13   4    9 F     4.28900000000E-02 -2.68850000000E-01 -3.61640000000E-01

  53  14   1    9 F    -1.38980000000E-01  4.50910000000E-01 -3.68350000000E-01
  54  14   2    9 F    -1.80740000000E-01  2.29370000000E-01  3.68350000000E-01
  55  14   3    9 F    -4.50910000000E-01  1.80740000000E-01  4.10110000000E-01
  56  14   4    9 F    -2.29370000000E-01  1.38980000000E-01 -4.10110000000E-01

  57  15   1    9 F    -1.89040000000E-01 -2.91440000000E-01 -2.05180000000E-01
  58  15   2    9 F    -8.62600000000E-02  1.61400000000E-02  2.05180000000E-01
  59  15   3    9 F     2.91440000000E-01  8.62600000000E-02  1.02400000000E-01
  60  15   4    9 F    -1.61400000000E-02  1.89040000000E-01 -1.02400000000E-01

  61  16   1   30 ZN    2.50000000000E-01 -2.50000000000E-01 -5.00000000000E-01

  62  17   1   30 ZN   -5.00000000000E-01 -5.00000000000E-01  0.00000000000E+00

 NUMBER OF SYMMETRY OPERATORS         :    4
 *******************************************************************************
 * GEOMETRY EDITING - INPUT COORDINATES ARE GIVEN IN ANGSTROM         
 *******************************************************************************

 GEOMETRY NOW FULLY CONSISTENT WITH THE GROUP

 GCALCO - MAX INDICES DIRECT LATTICE VECTOR    14    14    15
 NO.OF VECTORS CREATED 6999 STARS  487 RMAX   199.84368 BOHR

 GEOMETRY FOR WAVE FUNCTION - DIMENSIONALITY OF THE SYSTEM    3
 (NON PERIODIC DIRECTION: LATTICE PARAMETER FORMALLY SET TO 500)
 *******************************************************************************
 LATTICE PARAMETERS (ANGSTROMS AND DEGREES) - BOHR = 0.5291772083 ANGSTROM
 PRIMITIVE CELL - CENTRING CODE 6/0 VOLUME=   711.481160 - DENSITY  2.334 g/cm^3
         A              B              C           ALPHA      BETA       GAMMA 
     9.75968412     9.75968412     9.75968412   112.061171 112.061171 104.406954
 *******************************************************************************
 ATOMS IN THE ASYMMETRIC UNIT   17 - ATOMS IN THE UNIT CELL:   62
     ATOM                 X/A                 Y/B                 Z/C    
 *******************************************************************************
      1 T   6 C     2.009200000000E-01 -3.474700000000E-01  8.087000000000E-02
      2 F   6 C    -4.283400000000E-01  1.200500000000E-01 -8.087000000000E-02
      3 F   6 C     3.474700000000E-01  4.283400000000E-01 -4.516100000000E-01
      4 F   6 C    -1.200500000000E-01 -2.009200000000E-01  4.516100000000E-01
      5 T   6 C     3.243700000000E-01 -3.711500000000E-01  1.978400000000E-01
      6 F   6 C     4.310100000000E-01  1.265300000000E-01 -1.978400000000E-01
      7 F   6 C     3.711500000000E-01 -4.310100000000E-01 -3.044800000000E-01
      8 F   6 C    -1.265300000000E-01 -3.243700000000E-01  3.044800000000E-01
      9 T   6 C     9.520000000000E-02 -4.603400000000E-01 -9.864000000000E-02
     10 F   6 C    -3.617000000000E-01  1.938400000000E-01  9.864000000000E-02
     11 F   6 C     4.603400000000E-01  3.617000000000E-01 -4.444600000000E-01
     12 F   6 C    -1.938400000000E-01 -9.520000000000E-02  4.444600000000E-01
     13 T   6 C    -5.941000000000E-02 -3.071900000000E-01 -1.128600000000E-01
     14 F   6 C    -1.943300000000E-01  5.345000000000E-02  1.128600000000E-01
     15 F   6 C     3.071900000000E-01  1.943300000000E-01  2.477800000000E-01
     16 F   6 C    -5.345000000000E-02  5.941000000000E-02 -2.477800000000E-01
     17 T   6 C     1.660700000000E-01 -2.138500000000E-01  1.428600000000E-01
     18 F   6 C    -3.567100000000E-01  2.321000000000E-02 -1.428600000000E-01
     19 F   6 C     2.138500000000E-01  3.567100000000E-01  3.799200000000E-01
     20 F   6 C    -2.321000000000E-02 -1.660700000000E-01 -3.799200000000E-01
     21 T   6 C    -2.444900000000E-01  1.609500000000E-01  1.984000000000E-01
     22 F   6 C    -3.745000000000E-02 -4.428900000000E-01 -1.984000000000E-01
     23 F   6 C    -1.609500000000E-01  3.745000000000E-02 -4.054400000000E-01
     24 F   6 C     4.428900000000E-01  2.444900000000E-01  4.054400000000E-01
     25 T   7 N     3.548900000000E-01 -3.281900000000E-01  3.596200000000E-01
     26 F   7 N     3.121900000000E-01 -4.730000000000E-03 -3.596200000000E-01
     27 F   7 N     3.281900000000E-01 -3.121900000000E-01 -3.169200000000E-01
     28 F   7 N     4.730000000000E-03 -3.548900000000E-01  3.169200000000E-01
     29 T   7 N     4.785200000000E-01 -3.671800000000E-01  4.318800000000E-01
     30 F   7 N     2.009400000000E-01  4.664000000000E-02 -4.318800000000E-01
     31 F   7 N     3.671800000000E-01 -2.009400000000E-01 -1.543000000000E-01
     32 F   7 N    -4.664000000000E-02 -4.785200000000E-01  1.543000000000E-01
     33 T   7 N     4.244800000000E-01 -4.370100000000E-01  1.690900000000E-01
     34 F   7 N     3.939000000000E-01  2.553900000000E-01 -1.690900000000E-01
     35 F   7 N     4.370100000000E-01 -3.939000000000E-01 -1.385100000000E-01
     36 F   7 N    -2.553900000000E-01 -4.244800000000E-01  1.385100000000E-01
     37 T   7 N    -4.803800000000E-01 -4.332000000000E-01  3.181200000000E-01
     38 F   7 N     2.486800000000E-01  2.015000000000E-01 -3.181200000000E-01
     39 F   7 N     4.332000000000E-01 -2.486800000000E-01 -4.718000000000E-02
     40 F   7 N    -2.015000000000E-01  4.803800000000E-01  4.718000000000E-02
     41 T   7 N     4.191000000000E-02 -1.930200000000E-01  5.363000000000E-02
     42 F   7 N    -2.466500000000E-01 -1.172000000000E-02 -5.363000000000E-02
     43 F   7 N     1.930200000000E-01  2.466500000000E-01  2.349300000000E-01
     44 F   7 N     1.172000000000E-02 -4.191000000000E-02 -2.349300000000E-01
     45 T   9 F     1.202200000000E-01  4.109800000000E-01 -1.770000000000E-01
     46 F   9 F    -4.120200000000E-01  2.972200000000E-01  1.770000000000E-01
     47 F   9 F    -4.109800000000E-01  4.120200000000E-01 -2.907600000000E-01
     48 F   9 F    -2.972200000000E-01 -1.202200000000E-01  2.907600000000E-01
     49 T   9 F     2.688500000000E-01 -9.279000000000E-02  3.117400000000E-01
     50 F   9 F    -4.045300000000E-01 -4.289000000000E-02 -3.117400000000E-01
     51 F   9 F     9.279000000000E-02  4.045300000000E-01  3.616400000000E-01
     52 F   9 F     4.289000000000E-02 -2.688500000000E-01 -3.616400000000E-01
     53 T   9 F    -1.389800000000E-01  4.509100000000E-01 -3.683500000000E-01
     54 F   9 F    -1.807400000000E-01  2.293700000000E-01  3.683500000000E-01
     55 F   9 F    -4.509100000000E-01  1.807400000000E-01  4.101100000000E-01
     56 F   9 F    -2.293700000000E-01  1.389800000000E-01 -4.101100000000E-01
     57 T   9 F    -1.890400000000E-01 -2.914400000000E-01 -2.051800000000E-01
     58 F   9 F    -8.626000000000E-02  1.614000000000E-02  2.051800000000E-01
     59 F   9 F     2.914400000000E-01  8.626000000000E-02  1.024000000000E-01
     60 F   9 F    -1.614000000000E-02  1.890400000000E-01 -1.024000000000E-01
     61 T  30 ZN    2.500000000000E-01 -2.500000000000E-01 -5.000000000000E-01
     62 T  30 ZN   -5.000000000000E-01 -5.000000000000E-01  0.000000000000E+00

 TRANSFORMATION MATRIX PRIMITIVE-CRYSTALLOGRAPHIC CELL
  0.0000  1.0000  1.0000  1.0000  0.0000  1.0000  1.0000  1.0000  0.0000

 *******************************************************************************
 CRYSTALLOGRAPHIC CELL (VOLUME=       1422.96231908)
         A              B              C           ALPHA      BETA       GAMMA 
    10.90645223    10.90645223    11.96262246    90.000000  90.000000  90.000000

 COORDINATES IN THE CRYSTALLOGRAPHIC CELL
     ATOM                 X/A                 Y/B                 Z/C    
 *******************************************************************************
      1 T   6 C    -2.337600000000E-01  3.146300000000E-01 -1.137100000000E-01
      2 F   6 C     2.337600000000E-01 -3.146300000000E-01 -1.137100000000E-01
      3 F   6 C     3.146300000000E-01  2.337600000000E-01  1.137100000000E-01
      4 F   6 C    -3.146300000000E-01 -2.337600000000E-01  1.137100000000E-01
      5 T   6 C     2.511600000000E-01 -5.332000000000E-02  3.776900000000E-01
      6 F   6 C    -2.511600000000E-01  5.332000000000E-02  3.776900000000E-01
      7 F   6 C    -5.332000000000E-02 -2.511600000000E-01 -3.776900000000E-01
      8 F   6 C     5.332000000000E-02  2.511600000000E-01 -3.776900000000E-01
      9 T   6 C    -3.270900000000E-01  2.284500000000E-01 -1.332500000000E-01
     10 F   6 C     3.270900000000E-01 -2.284500000000E-01 -1.332500000000E-01
     11 F   6 C     2.284500000000E-01  3.270900000000E-01  1.332500000000E-01
     12 F   6 C    -2.284500000000E-01 -3.270900000000E-01  1.332500000000E-01
     13 T   6 C    -1.803200000000E-01  6.746000000000E-02 -1.268700000000E-01
     14 F   6 C     1.803200000000E-01 -6.746000000000E-02 -1.268700000000E-01
     15 F   6 C     6.746000000000E-02  1.803200000000E-01  1.268700000000E-01
     16 F   6 C    -6.746000000000E-02 -1.803200000000E-01  1.268700000000E-01
     17 T   6 C    -1.185300000000E-01  2.613900000000E-01 -9.532000000000E-02
     18 F   6 C     1.185300000000E-01 -2.613900000000E-01 -9.532000000000E-02
     19 F   6 C     2.613900000000E-01  1.185300000000E-01  9.532000000000E-02
     20 F   6 C    -2.613900000000E-01 -1.185300000000E-01  9.532000000000E-02
     21 T   6 C     3.019200000000E-01 -1.035200000000E-01 -1.409700000000E-01
     22 F   6 C    -3.019200000000E-01  1.035200000000E-01 -1.409700000000E-01
     23 F   6 C    -1.035200000000E-01 -3.019200000000E-01  1.409700000000E-01
     24 F   6 C     1.035200000000E-01  3.019200000000E-01  1.409700000000E-01
     25 T   7 N     3.382700000000E-01  2.135000000000E-02  3.335400000000E-01
     26 F   7 N    -3.382700000000E-01 -2.135000000000E-02  3.335400000000E-01
     27 F   7 N     2.135000000000E-02 -3.382700000000E-01 -3.335400000000E-01
     28 F   7 N    -2.135000000000E-02  3.382700000000E-01 -3.335400000000E-01
     29 T   7 N    -2.069100000000E-01 -3.612100000000E-01 -1.602700000000E-01
     30 F   7 N     2.069100000000E-01  3.612100000000E-01 -1.602700000000E-01
     31 F   7 N    -3.612100000000E-01  2.069100000000E-01  1.602700000000E-01
     32 F   7 N     3.612100000000E-01 -2.069100000000E-01  1.602700000000E-01
     33 T   7 N     1.538000000000E-01  1.529000000000E-02  4.091900000000E-01
     34 F   7 N    -1.538000000000E-01 -1.529000000000E-02  4.091900000000E-01
     35 F   7 N     1.529000000000E-02 -1.538000000000E-01 -4.091900000000E-01
     36 F   7 N    -1.529000000000E-02  1.538000000000E-01 -4.091900000000E-01
     37 T   7 N     1.826500000000E-01  1.354700000000E-01  3.841500000000E-01
     38 F   7 N    -1.826500000000E-01 -1.354700000000E-01  3.841500000000E-01
     39 F   7 N     1.354700000000E-01 -1.826500000000E-01 -3.841500000000E-01
     40 F   7 N    -1.354700000000E-01  1.826500000000E-01 -3.841500000000E-01
     41 T   7 N    -9.065000000000E-02  1.442800000000E-01 -1.023700000000E-01
     42 F   7 N     9.065000000000E-02 -1.442800000000E-01 -1.023700000000E-01
     43 F   7 N     1.442800000000E-01  9.065000000000E-02  1.023700000000E-01
     44 F   7 N    -1.442800000000E-01 -9.065000000000E-02  1.023700000000E-01
     45 T   9 F     5.688000000000E-02 -2.338800000000E-01  3.541000000000E-01
     46 F   9 F    -5.688000000000E-02  2.338800000000E-01  3.541000000000E-01
     47 F   9 F    -2.338800000000E-01 -5.688000000000E-02 -3.541000000000E-01
     48 F   9 F     2.338800000000E-01  5.688000000000E-02 -3.541000000000E-01
     49 T   9 F    -2.495000000000E-02  3.366900000000E-01 -6.784000000000E-02
     50 F   9 F     2.495000000000E-02 -3.366900000000E-01 -6.784000000000E-02
     51 F   9 F     3.366900000000E-01  2.495000000000E-02  6.784000000000E-02
     52 F   9 F    -3.366900000000E-01 -2.495000000000E-02  6.784000000000E-02
     53 T   9 F    -3.892300000000E-01  2.088000000000E-02 -1.598600000000E-01
     54 F   9 F     3.892300000000E-01 -2.088000000000E-02 -1.598600000000E-01
     55 F   9 F     2.088000000000E-02  3.892300000000E-01  1.598600000000E-01
     56 F   9 F    -2.088000000000E-02 -3.892300000000E-01  1.598600000000E-01
     57 T   9 F    -1.537900000000E-01 -5.139000000000E-02 -1.376500000000E-01
     58 F   9 F     1.537900000000E-01  5.139000000000E-02 -1.376500000000E-01
     59 F   9 F    -5.139000000000E-02  1.537900000000E-01  1.376500000000E-01
     60 F   9 F     5.139000000000E-02 -1.537900000000E-01  1.376500000000E-01
     61 T  30 ZN   -5.000000000000E-01 -8.618820615022E-17  2.500000000000E-01
     62 T  30 ZN    0.000000000000E+00  0.000000000000E+00 -5.000000000000E-01

 T = ATOM BELONGING TO THE ASYMMETRIC UNIT

 ****    4 SYMMOPS - TRANSLATORS IN FRACTIONAL UNITS
 **** MATRICES AND TRANSLATORS IN THE CRYSTALLOGRAPHIC REFERENCE FRAME
   V INV                    ROTATION MATRICES                   TRANSLATORS
   1   1  1.00  0.00  0.00  0.00  1.00  0.00  0.00  0.00  1.00  0.00  0.00  0.00
   2   2  0.00  1.00 -1.00  1.00  0.00 -1.00  0.00  0.00 -1.00  0.00  0.00  0.00
   3   4  0.00 -1.00  0.00  0.00 -1.00  1.00  1.00 -1.00  0.00  0.00  0.00  0.00
   4   3 -1.00  0.00  1.00 -1.00  0.00  0.00 -1.00  1.00  0.00  0.00  0.00  0.00

 DIRECT LATTICE VECTORS CARTESIAN COMPONENTS (ANGSTROM)
          X                    Y                    Z
  -0.545322611530E+01   0.545322611530E+01   0.598131123225E+01
   0.545322611530E+01  -0.545322611530E+01   0.598131123225E+01
   0.545322611530E+01   0.545322611530E+01  -0.598131123225E+01


 CARTESIAN COORDINATES - PRIMITIVE CELL
 *******************************************************************************
 *      ATOM          X(ANGSTROM)         Y(ANGSTROM)         Z(ANGSTROM)
 *******************************************************************************
    1     6 C    -2.549492273425E+00  3.431497065314E+00 -1.360269800438E+00
    2     6 C     2.549492273425E+00 -3.431497065314E+00 -1.360269800438E+00
    3     6 C     3.431497065314E+00  2.549492273425E+00  1.360269800438E+00
    4     6 C    -3.431497065314E+00 -2.549492273425E+00  1.360269800438E+00
    5     6 C     2.739264542237E+00 -5.815320329356E-01  4.518162878617E+00
    6     6 C    -2.739264542237E+00  5.815320329356E-01  4.518162878617E+00
    7     6 C    -5.815320329356E-01 -2.739264542237E+00 -4.518162878617E+00
    8     6 C     5.815320329356E-01  2.739264542237E+00 -4.518162878617E+00
    9     6 C    -3.567391460107E+00  2.491579012081E+00 -1.594019443395E+00
   10     6 C     3.567391460107E+00 -2.491579012081E+00 -1.594019443395E+00
   11     6 C     2.491579012081E+00  3.567391460107E+00  1.594019443395E+00
   12     6 C    -2.491579012081E+00 -3.567391460107E+00  1.594019443395E+00
   13     6 C    -1.966651466222E+00  7.357492674763E-01 -1.517697912071E+00
   14     6 C     1.966651466222E+00 -7.357492674763E-01 -1.517697912071E+00
   15     6 C     7.357492674763E-01  1.966651466222E+00  1.517697912071E+00
   16     6 C    -7.357492674763E-01 -1.966651466222E+00  1.517697912071E+00
   17     6 C    -1.292741782893E+00  2.850837548557E+00 -1.140277173316E+00
   18     6 C     1.292741782893E+00 -2.850837548557E+00 -1.140277173316E+00
   19     6 C     2.850837548557E+00  1.292741782893E+00  1.140277173316E+00
   20     6 C    -2.850837548557E+00 -1.292741782893E+00  1.140277173316E+00
   21     6 C     3.292876057463E+00 -1.129035934912E+00 -1.686370888821E+00
   22     6 C    -3.292876057463E+00  1.129035934912E+00 -1.686370888821E+00
   23     6 C    -1.129035934912E+00 -3.292876057463E+00  1.686370888821E+00
   24     6 C     1.129035934912E+00  3.292876057463E+00  1.686370888821E+00
   25     7 N     3.689325596045E+00  2.328527551233E-01  3.990013096809E+00
   26     7 N    -3.689325596045E+00 -2.328527551233E-01  3.990013096809E+00
   27     7 N     2.328527551233E-01 -3.689325596045E+00 -3.990013096809E+00
   28     7 N    -2.328527551233E-01  3.689325596045E+00 -3.990013096809E+00
   29     7 N    -2.256654031033E+00 -3.939519610215E+00 -1.917249502385E+00
   30     7 N     2.256654031033E+00  3.939519610215E+00 -1.917249502385E+00
   31     7 N    -3.939519610215E+00  2.256654031033E+00  1.917249502385E+00
   32     7 N     3.939519610215E+00 -2.256654031033E+00  1.917249502385E+00
   33     7 N     1.677412353066E+00  1.667596546059E-01  4.894985486249E+00
   34     7 N    -1.677412353066E+00 -1.667596546059E-01  4.894985486249E+00
   35     7 N     1.667596546059E-01 -1.677412353066E+00 -4.894985486249E+00
   36     7 N    -1.667596546059E-01  1.677412353066E+00 -4.894985486249E+00
   37     7 N     1.992063499919E+00  1.477497083679E+00  4.595441419738E+00
   38     7 N    -1.992063499919E+00 -1.477497083679E+00  4.595441419738E+00
   39     7 N     1.477497083679E+00 -1.992063499919E+00 -4.595441419738E+00
   40     7 N    -1.477497083679E+00  1.992063499919E+00 -4.595441419738E+00
   41     7 N    -9.886698947039E-01  1.573582927831E+00 -1.224613661691E+00
   42     7 N     9.886698947039E-01 -1.573582927831E+00 -1.224613661691E+00
   43     7 N     1.573582927831E+00  9.886698947039E-01  1.224613661691E+00
   44     7 N    -1.573582927831E+00 -9.886698947039E-01  1.224613661691E+00
   45     9 F     6.203590028765E-01 -2.550801047693E+00  4.235964614679E+00
   46     9 F    -6.203590028765E-01  2.550801047693E+00  4.235964614679E+00
   47     9 F    -2.550801047693E+00 -6.203590028765E-01 -4.235964614679E+00
   48     9 F     2.550801047693E+00  6.203590028765E-01 -4.235964614679E+00
   49     9 F    -2.721159831535E-01  3.672093401521E+00 -8.115443079917E-01
   50     9 F     2.721159831535E-01 -3.672093401521E+00 -8.115443079917E-01
   51     9 F     3.672093401521E+00  2.721159831535E-01  8.115443079917E-01
   52     9 F    -3.672093401521E+00 -2.721159831535E-01  8.115443079917E-01
   53     9 F    -4.245118401716E+00  2.277267225749E-01 -1.912344827175E+00
   54     9 F     4.245118401716E+00 -2.277267225749E-01 -1.912344827175E+00
   55     9 F     2.277267225749E-01  4.245118401716E+00  1.912344827175E+00
   56     9 F    -2.277267225749E-01 -4.245118401716E+00  1.912344827175E+00
   57     9 F    -1.677303288544E+00 -5.604825801305E-01 -1.646654982238E+00
   58     9 F     1.677303288544E+00  5.604825801305E-01 -1.646654982238E+00
   59     9 F    -5.604825801305E-01  1.677303288544E+00  1.646654982238E+00
   60     9 F     5.604825801305E-01 -1.677303288544E+00  1.646654982238E+00
   61    30 ZN    5.453226115300E+00 -9.400075532184E-16 -8.971966848375E+00
   62    30 ZN    0.000000000000E+00  0.000000000000E+00  5.981311232250E+00

 *******************************************************************************
 STARTING BASIS SET HANDLING 
 *******************************************************************************

 Loading internal basis set: POB-DZVPP           

 Please cite in your publication:
 Peintinger, M. F., Oliveira, D. V. and Bredow, T. (2013), Generally applicable 
 solid-state Gaussian basis sets, in preparation                                
                                                                                
                    

 *******************************************************************************
 LOCAL ATOMIC FUNCTIONS BASIS SET
 *******************************************************************************
   ATOM   X(AU)   Y(AU)   Z(AU)  N. TYPE  EXPONENT  S COEF   P COEF   D/F/G COEF
 *******************************************************************************
   1 C   -4.818   6.485  -2.571
                                  1 S  
                                         1.238E+03 5.457E-03 0.000E+00 0.000E+00
                                         1.863E+02 4.064E-02 0.000E+00 0.000E+00
                                         4.225E+01 1.803E-01 0.000E+00 0.000E+00
                                         1.168E+01 4.632E-01 0.000E+00 0.000E+00
                                         3.593E+00 4.409E-01 0.000E+00 0.000E+00
                                  2 S  
                                         5.281E+00 1.000E+00 0.000E+00 0.000E+00
                                  3 S  
                                         4.447E-01 1.000E+00 0.000E+00 0.000E+00
                           4-     6 P  
                                         9.468E+00 0.000E+00 3.839E-02 0.000E+00
                                         2.010E+00 0.000E+00 2.112E-01 0.000E+00
                                         5.477E-01 0.000E+00 5.133E-01 0.000E+00
                           7-     9 P  
                                         1.604E-01 0.000E+00 1.000E+00 0.000E+00
                          10-    14 D  
                                         6.070E-01 0.000E+00 0.000E+00 1.000E+00
                          15-    19 D  
                                         2.939E-01 0.000E+00 0.000E+00 1.000E+00
   2 C    4.818  -6.485  -2.571
   3 C    6.485   4.818   2.571
   4 C   -6.485  -4.818   2.571
   5 C    5.176  -1.099   8.538
   6 C   -5.176   1.099   8.538
   7 C   -1.099  -5.176  -8.538
   8 C    1.099   5.176  -8.538
   9 C   -6.741   4.708  -3.012
  10 C    6.741  -4.708  -3.012
  11 C    4.708   6.741   3.012
  12 C   -4.708  -6.741   3.012
  13 C   -3.716   1.390  -2.868
  14 C    3.716  -1.390  -2.868
  15 C    1.390   3.716   2.868
  16 C   -1.390  -3.716   2.868
  17 C   -2.443   5.387  -2.155
  18 C    2.443  -5.387  -2.155
  19 C    5.387   2.443   2.155
  20 C   -5.387  -2.443   2.155
  21 C    6.223  -2.134  -3.187
  22 C   -6.223   2.134  -3.187
  23 C   -2.134  -6.223   3.187
  24 C    2.134   6.223   3.187
  25 N    6.972   0.440   7.540
                                457 S  
                                         1.713E+03-5.393E-03 0.000E+00 0.000E+00
                                         2.576E+02-4.022E-02 0.000E+00 0.000E+00
                                         5.846E+01-1.793E-01 0.000E+00 0.000E+00
                                         1.620E+01-4.638E-01 0.000E+00 0.000E+00
                                         5.005E+00-4.417E-01 0.000E+00 0.000E+00
                                458 S  
                                         6.217E-01 1.000E+00 0.000E+00 0.000E+00
                                459 S  
                                         2.921E-01 1.000E+00 0.000E+00 0.000E+00
                         460-   462 P  
                                         1.357E+01 0.000E+00-4.007E-02 0.000E+00
                                         2.926E+00 0.000E+00-2.181E-01 0.000E+00
                                         7.993E-01 0.000E+00-5.129E-01 0.000E+00
                         463-   465 P  
                                         2.244E-01 0.000E+00 1.000E+00 0.000E+00
                         466-   470 D  
                                         3.118E-01 0.000E+00 0.000E+00 1.000E+00
  26 N   -6.972  -0.440   7.540
  27 N    0.440  -6.972  -7.540
  28 N   -0.440   6.972  -7.540
  29 N   -4.264  -7.445  -3.623
  30 N    4.264   7.445  -3.623
  31 N   -7.445   4.264   3.623
  32 N    7.445  -4.264   3.623
  33 N    3.170   0.315   9.250
  34 N   -3.170  -0.315   9.250
  35 N    0.315  -3.170  -9.250
  36 N   -0.315   3.170  -9.250
  37 N    3.764   2.792   8.684
  38 N   -3.764  -2.792   8.684
  39 N    2.792  -3.764  -8.684
  40 N   -2.792   3.764  -8.684
  41 N   -1.868   2.974  -2.314
  42 N    1.868  -2.974  -2.314
  43 N    2.974   1.868   2.314
  44 N   -2.974  -1.868   2.314
  45 F    1.172  -4.820   8.005
                                737 S  
                                         2.895E+03-5.341E-03 0.000E+00 0.000E+00
                                         4.354E+02-3.990E-02 0.000E+00 0.000E+00
                                         9.884E+01-1.791E-01 0.000E+00 0.000E+00
                                         2.749E+01-4.676E-01 0.000E+00 0.000E+00
                                         8.541E+00-4.465E-01 0.000E+00 0.000E+00
                                738 S  
                                         1.123E+00 1.000E+00 0.000E+00 0.000E+00
                                739 S  
                                         3.743E-01 1.000E+00 0.000E+00 0.000E+00
                         740-   742 P  
                                         2.270E+01 0.000E+00-4.521E-02 0.000E+00
                                         4.987E+00 0.000E+00-2.375E-01 0.000E+00
                                         1.349E+00 0.000E+00-5.129E-01 0.000E+00
                         743-   745 P  
                                         3.474E-01 0.000E+00 1.000E+00 0.000E+00
                         746-   750 D  
                                         9.203E-01 0.000E+00 0.000E+00 1.000E+00
                         751-   755 D  
                                         3.977E-01 0.000E+00 0.000E+00 1.000E+00
  46 F   -1.172   4.820   8.005
  47 F   -4.820  -1.172  -8.005
  48 F    4.820   1.172  -8.005
  49 F   -0.514   6.939  -1.534
  50 F    0.514  -6.939  -1.534
  51 F    6.939   0.514   1.534
  52 F   -6.939  -0.514   1.534
  53 F   -8.022   0.430  -3.614
  54 F    8.022  -0.430  -3.614
  55 F    0.430   8.022   3.614
  56 F   -0.430  -8.022   3.614
  57 F   -3.170  -1.059  -3.112
  58 F    3.170   1.059  -3.112
  59 F   -1.059   3.170   3.112
  60 F    1.059  -3.170   3.112
  61 ZN  10.305  -0.000 -16.955
                               1041 S  
                                         8.200E+04 1.421E-03 0.000E+00 0.000E+00
                                         1.231E+04 1.089E-02 0.000E+00 0.000E+00
                                         2.801E+03 5.406E-02 0.000E+00 0.000E+00
                                         7.910E+02 1.885E-01 0.000E+00 0.000E+00
                                         2.576E+02 3.835E-01 0.000E+00 0.000E+00
                                         8.881E+01 2.972E-01 0.000E+00 0.000E+00
                               1042 S  
                                         1.719E+02-1.105E-01 0.000E+00 0.000E+00
                                         2.030E+01 6.461E-01 0.000E+00 0.000E+00
                                         8.346E+00 4.422E-01 0.000E+00 0.000E+00
                               1043 S  
                                         1.485E+01-2.271E-01 0.000E+00 0.000E+00
                                         2.450E+00 7.243E-01 0.000E+00 0.000E+00
                                         9.985E-01 4.484E-01 0.000E+00 0.000E+00
                               1044 S  
                                         1.493E+00 1.000E+00 0.000E+00 0.000E+00
                               1045 S  
                                         1.830E-01 1.000E+00 0.000E+00 0.000E+00
                        1046-  1048 P  
                                         1.072E+03 0.000E+00 9.277E-03 0.000E+00
                                         2.527E+02 0.000E+00 6.954E-02 0.000E+00
                                         8.010E+01 0.000E+00 2.716E-01 0.000E+00
                                         2.890E+01 0.000E+00 5.340E-01 0.000E+00
                                         1.077E+01 0.000E+00 3.450E-01 0.000E+00
                        1049-  1051 P  
                                         5.645E+00 0.000E+00 3.413E-01 0.000E+00
                                         2.168E+00 0.000E+00 5.639E-01 0.000E+00
                                         8.054E-01 0.000E+00 2.368E-01 0.000E+00
                        1052-  1054 P  
                                         2.721E-01 0.000E+00 1.000E+00 0.000E+00
                        1055-  1059 D  
                                         5.609E+01 0.000E+00 0.000E+00 2.959E-02
                                         1.575E+01 0.000E+00 0.000E+00 1.587E-01
                                         5.312E+00 0.000E+00 0.000E+00 3.798E-01
                                         1.774E+00 0.000E+00 0.000E+00 4.690E-01
                        1060-  1064 D  
                                         5.073E-01 0.000E+00 0.000E+00 1.000E+00
                        1065-  1071 F  
                                         2.814E+00 0.000E+00 0.000E+00 1.000E+00
                        1072-  1078 F  
                                         1.300E+00 0.000E+00 0.000E+00 1.000E+00
  62 ZN   0.000   0.000  11.303

 *******************************************************************************
 FINISHED BASIS SET HANDLING 
 *******************************************************************************

 INFORMATION **** SET_MPP **** PCRYSTAL CALCULATION
 INFORMATION **** READM2 **** NEW DEFAULT: FOCK/KS MATRIX MIXING SET TO 30 %
 INFORMATION **** READM2 **** NEW DEFAULT: FULL DIRECT SCF MODE
 INFORMATION **** READM2 **** NEW DEFAULT: COULOMB BIPOLAR BUFFER SET TO 32 Mb
 INFORMATION **** READM2 **** NEW DEFAULT: EXCHANGE BIPOLAR BUFFER SET TO 32 Mb

 *******************************************************************************
 NEW DEFAULT: DFT INTEGRATION GRID INCREASED TO XLGRID
 NEW DEFAULT: DIIS ACCELERATOR ACTIVE
 USE KEYWORD NODIIS TO TURN IT OFF
 *******************************************************************************

 INFORMATION **** DFTD3_INPUT **** PERFORM DISPERSION CORRECTION DFT-D3(BJ) IN THE BECKE-JOHNSON DAMPING SCHEME

 PLEASE CITE:
 (1) DFT-D3 Reference
  S. Grimme, J. Antony, S. Ehrlich, and H. Krieg, J. Chem. Phys. 132 (2010), 154104
 (2) BJ-Damping Reference
  S. Grimme, S. Ehrlich, and L. Goerigk, J. Comput. Chem. 32 (2011), 1456-1465
 (3) General DFT-D Review
  S. Grimme, A. Hansen, J. G. Brandenburg, and C. Bannwarth,
  Chem. Rev. 116 (2016), 5105-5154

 INFORMATION **** TOLINTEG **** COULOMB AND EXCHANGE SERIES TOLERANCES MODIFIED
 INFORMATION **** BIPOSIZE **** COULOMB BIPOLAR BUFFER SET TO   100000000
 INFORMATION **** MAXCYCLE **** MAX NUMBER OF SCF CYCLES SET TO          50
 *******************************************************************************
 N. OF ATOMS PER CELL        62  COULOMB OVERLAP TOL         (T1) 10**  -12
 NUMBER OF SHELLS           424  COULOMB PENETRATION TOL     (T2) 10**  -12
 NUMBER OF AO              1116  EXCHANGE OVERLAP TOL        (T3) 10**   20
 N. OF ELECTRONS PER CELL   488  EXCHANGE PSEUDO OVP (F(G))  (T4) 10**   20
 CORE ELECTRONS PER CELL    156  EXCHANGE PSEUDO OVP (P(G))  (T5) 10**   20
 N. OF SYMMETRY OPERATORS     4  POLE ORDER IN MONO ZONE                  4
 *******************************************************************************
 TYPE OF CALCULATION :  RESTRICTED CLOSED SHELL
 KOHN-SHAM HAMILTONIAN

 (EXCHANGE)[CORRELATION] FUNCTIONAL:(PERDEW-BURKE-ERNZERHOF)[PERDEW-BURKE-ERNZERHOF]


 CAPPA:IS1  3;IS2  3;IS3  3; K PTS MONK NET   6; SYMMOPS:K SPACE   8;G SPACE   4

 *******************************************************************************
 MAX NUMBER OF SCF CYCLES      50  CONVERGENCE ON DELTAP        10**-16
 WEIGHT OF F(I) IN F(I+1)      30% CONVERGENCE ON ENERGY        10**- 6
 SHRINK. FACT.(MONKH.)    3  3  3  NUMBER OF K POINTS IN THE IBZ      6
 SHRINKING FACTOR(GILAT NET)    3  NUMBER OF K POINTS(GILAT NET)      6
 *******************************************************************************
 *** K POINTS COORDINATES (OBLIQUE COORDINATES IN UNITS OF IS =  3)
   1-R(  0  0  0)   2-C(  1  0  0)   3-C(  1  1  0)   4-C(  2  1  0)
   5-C(  2  1  1)   6-C(  2  2  1)

 DIRECT LATTICE VECTORS COMPON. (A.U.)     RECIP. LATTICE VECTORS COMPON. (A.U.) 
        X            Y            Z              X            Y            Z
  -10.3051039   10.3051039   11.3030402      0.0000000    0.3048579    0.2779423
   10.3051039  -10.3051039   11.3030402      0.3048579    0.0000000    0.2779423
   10.3051039   10.3051039  -11.3030402      0.3048579    0.3048579    0.0000000

 DISK SPACE FOR EIGENVECTORS (FTN 10)    13700016 REALS

 SYMMETRY ADAPTION OF THE BLOCH FUNCTIONS ENABLED
 TTTTTTTTTTTTTTTTTTTTTTTTTTTTTT gordsh1     TELAPSE       21.52 TCPU        0.08

 MATRIX SIZE: P(G) 1714156, F(G)  857924, P(G) IRR  217012, F(G) IRR  217012
 MAX G-VECTOR INDEX FOR 1- AND 2-ELECTRON INTEGRALS  59

 TTTTTTTTTTTTTTTTTTTTTTTTTTTTTT INPUT       TELAPSE       21.71 TCPU        0.27

 NEIGHBORS OF THE NON-EQUIVALENT ATOMS

 N = NUMBER OF NEIGHBORS AT DISTANCE R
    ATOM  N     R/ANG      R/AU   NEIGHBORS (ATOM LABELS AND CELL INDICES)
   1 C    1     1.4018     2.6490   17 C    0 0 0
   1 C    1     1.4051     2.6552    9 C    0 0 0
   1 C    1     1.4532     2.7462    5 C    0-1 0
   1 C    1     2.3549     4.4501   49 F    0 0 0
   1 C    1     2.3753     4.4886   45 F    0-1 0
   1 C    1     2.4303     4.5926   41 N    0 0 0

   5 C    1     1.3526     2.5560   33 N    0 0 0
   5 C    1     1.3582     2.5667   25 N    0 0 0
   5 C    1     1.4532     2.7462    1 C    0 1 0
   5 C    1     2.1918     4.1419   37 N    0 0 0
   5 C    1     2.1921     4.1425   29 N    1 1 1
   5 C    1     2.4916     4.7084   17 C    0 1 0

   9 C    1     1.3391     2.5305   45 F    0-1 0
   9 C    1     1.3930     2.6324   22 C    0 0 0
   9 C    1     1.4051     2.6552    1 C    0 0 0
   9 C    1     2.3471     4.4354   17 C    0 0 0
   9 C    1     2.3772     4.4923   13 C    0 0 0
   9 C    1     2.3845     4.5060   53 F    0 0 0

  13 C    1     1.3207     2.4958   41 N    0 0 0
  13 C    1     1.3344     2.5216   57 F    0 0 0
  13 C    1     1.3936     2.6334   22 C    0 0 0
  13 C    1     2.2517     4.2551   17 C    0 0 0
  13 C    1     2.3675     4.4740   53 F    0 0 0
  13 C    1     2.3772     4.4923    9 C    0 0 0

  17 C    1     1.3157     2.4862   41 N    0 0 0
  17 C    1     1.3506     2.5523   49 F    0 0 0
  17 C    1     1.4018     2.6490    1 C    0 0 0
  17 C    1     2.2517     4.2551   13 C    0 0 0
  17 C    1     2.3471     4.4354    9 C    0 0 0
  17 C    1     2.4916     4.7084    5 C    0-1 0

  21 C    1     1.3305     2.5143   54 F    0 0 0
  21 C    1     1.3930     2.6324   10 C    0 0 0
  21 C    1     1.3936     2.6334   14 C    0 0 0
  21 C    1     2.3380     4.4181   58 F    0 0 0
  21 C    1     2.3495     4.4398   46 F   -1 0 0
  21 C    1     2.3917     4.5196   42 N    0 0 0

  25 N    1     1.3582     2.5667    5 C    0 0 0
  25 N    1     1.3744     2.5972   29 N    1 1 1
  25 N    1     2.0407     3.8563   61 ZN   1 1 0
  25 N    1     2.1901     4.1386   37 N    0 0 0
  25 N    1     2.2071     4.1707   33 N    0 0 0
  25 N    1     2.4695     4.6667    1 C    0 1 0

  29 N    1     1.3170     2.4888   37 N   -1-1-1
  29 N    1     1.3744     2.5972   25 N   -1-1-1
  29 N    1     2.1921     4.1425    5 C   -1-1-1
  29 N    1     2.1938     4.1456   33 N   -1-1-1
  29 N    1     2.7729     5.2400   50 F    0 0 0
  29 N    1     2.9049     5.4895    3 C   -1-1-1

  33 N    1     1.3526     2.5560    5 C    0 0 0
  33 N    1     1.3809     2.6094   37 N    0 0 0
  33 N    1     2.0054     3.7897   62 ZN   0 0 0
  33 N    1     2.1938     4.1456   29 N    1 1 1
  33 N    1     2.2071     4.1707   25 N    0 0 0
  33 N    1     2.5236     4.7689    1 C    0 1 0

  37 N    1     1.3170     2.4888   29 N    1 1 1
  37 N    1     1.3809     2.6094   33 N    0 0 0
  37 N    1     2.1901     4.1386   25 N    0 0 0
  37 N    1     2.1918     4.1419    5 C    0 0 0
  37 N    1     2.8411     5.3689   62 ZN   0 0 0
  37 N    1     2.8471     5.3802   46 F    0 0 0

  41 N    1     1.3157     2.4862   17 C    0 0 0
  41 N    1     1.3207     2.4958   13 C    0 0 0
  41 N    1     2.2556     4.2625   49 F    0 0 0
  41 N    1     2.2818     4.3120   57 F    0 0 0
  41 N    1     2.3917     4.5196   22 C    0 0 0
  41 N    1     2.4303     4.5926    1 C    0 0 0

  45 F    1     1.3391     2.5305    9 C    0 1 0
  45 F    1     2.3495     4.4398   22 C    0 1 0
  45 F    1     2.3753     4.4886    1 C    0 1 0
  45 F    1     2.7333     5.1653   60 F    0 0 0
  45 F    1     2.7436     5.1847   53 F    0 1 0
  45 F    1     2.8471     5.3802   38 N    0 0 0

  49 F    1     1.3506     2.5523   17 C    0 0 0
  49 F    1     2.2556     4.2625   41 N    0 0 0
  49 F    1     2.3549     4.4501    1 C    0 0 0
  49 F    1     2.7701     5.2347   25 N    0-1 0
  49 F    1     2.7729     5.2400   30 N    0 0 0
  49 F    1     2.7975     5.2866    5 C    0-1 0

  53 F    1     1.3305     2.5143   22 C    0 0 0
  53 F    1     2.3675     4.4740   13 C    0 0 0
  53 F    1     2.3845     4.5060    9 C    0 0 0
  53 F    1     2.4588     4.6464   54 F    0-1-1
  53 F    1     2.6992     5.1007   57 F    0 0 0
  53 F    1     2.7436     5.1847   45 F    0-1 0

  57 F    1     1.3344     2.5216   13 C    0 0 0
  57 F    1     2.2818     4.3120   41 N    0 0 0
  57 F    1     2.3380     4.4181   22 C    0 0 0
  57 F    1     2.6992     5.1007   53 F    0 0 0
  57 F    1     2.7333     5.1653   47 F    0 0 0
  57 F    1     2.8830     5.4482   42 N    0 0 0

  61 ZN   4     2.0407     3.8563   25 N   -1-1 0   26 N   -1 0 1   27 N    0 0 1
                                    28 N   -1 0 0
  61 ZN   4     2.8275     5.3433   49 F   -1 0 0   50 F    0 0 1   51 F   -1-1 0
                                    52 F   -1 0 1
  61 ZN   4     2.9216     5.5211   29 N    0 0 1   30 N   -1 0 0   31 N   -1 0 1
                                    32 N   -1-1 0
  61 ZN   4     3.1681     5.9869    5 C   -1-1 0    6 C   -1 0 1    7 C    0 0 1
                                     8 C   -1 0 0
  61 ZN   4     3.4449     6.5100   17 C   -1 0 0   18 C    0 0 1   19 C   -1-1 0
                                    20 C   -1 0 1
  61 ZN   4     3.6394     6.8775    1 C   -1 0 0    2 C    0 0 1    3 C   -1-1 0
                                     4 C   -1 0 1

  62 ZN   4     2.0054     3.7897   33 N    0 0 0   34 N    0 0 0   35 N    1 1 0
                                    36 N    1 1 0
  62 ZN   4     2.8411     5.3689   37 N    0 0 0   38 N    0 0 0   39 N    1 1 0
                                    40 N    1 1 0
  62 ZN   4     3.1524     5.9572   45 F    0 0 0   46 F    0 0 0   47 F    1 1 0
                                    48 F    1 1 0
  62 ZN   4     3.1595     5.9706    5 C    0 0 0    6 C    0 0 0    7 C    1 1 0
                                     8 C    1 1 0
  62 ZN   4     3.7907     7.1634    1 C    0 1 0    2 C    1 0 0    3 C    0 0-1
                                     4 C    1 1 1
  62 ZN   4     3.8560     7.2868    9 C    0 1 0   10 C    1 0 0   11 C    0 0-1
                                    12 C    1 1 1


 SYMMETRY ALLOWED INTERNAL DEGREE(S) OF FREEDOM:  45
 TTTTTTTTTTTTTTTTTTTTTTTTTTTTTT SYMM        TELAPSE       22.60 TCPU        1.15
 TTTTTTTTTTTTTTTTTTTTTTTTTTTTTT INT_SCREEN  TELAPSE       22.60 TCPU        1.15
 INFORMATION **** EXCBUF **** EXCH. BIPO BUFFER: WORDS USED =           0

 DFT PARAMETERS

     ATOM       ELECTRONS   NET CHARGE   R(ANGSTROM)
   1   6  C       6.0000      0.0000     0.77000000
  25   7  N       7.0000      0.0000     0.74000000
  45   9  F       9.0000      0.0000     0.72000000
  61  30  ZN     30.0000      0.0000     1.37000000

 SIZE OF GRID=     507728
 TTTTTTTTTTTTTTTTTTTTTTTTTTTTTT MAKE_GRID2  TELAPSE       23.22 TCPU        1.77
 BECKE WEIGHT FUNCTION
 RADSAFE =     2.00
 TOLERANCES - DENSITY:10**- 6; POTENTIAL:10**- 9; GRID WGT:10**-14

 RADIAL INTEGRATION  - INTERVALS (POINTS,UPPER LIMIT):            1( 75,  4.0*R)

 ANGULAR INTEGRATION - INTERVALS (ACCURACY LEVEL [N. POINTS] UPPER LIMIT):
  1(  4[  86]   0.2)  2(  8[ 194]   0.5)  3( 12[ 350]   0.9)  4( 16[ 974]   3.5)
  5( 12[ 350]9999.0)
 TTTTTTTTTTTTTTTTTTTTTTTTTTTTTT INT_CALC    TELAPSE       23.27 TCPU        1.82
 EEEEEEEEEE INT_CALC TERMINATION  DATE 03 12 2023 TIME 07:47:57.1

 *******************************************************************************
 Z:\home\sanoj\Downloads\tmp_p\newconn.mol                                       
 CRYSTAL - SCF - TYPE OF CALCULATION :  RESTRICTED CLOSED SHELL
 *******************************************************************************

 CAPPA:IS1  3;IS2  3;IS3  3; K PTS MONK NET   6; SYMMOPS:K SPACE   8;G SPACE   4

 TTTTTTTTTTTTTTTTTTTTTTTTTTTTTT SDIK        TELAPSE       23.51 TCPU        2.06

 AAAAAAAAAAAAAAAAAAAAAAAAAAAAAAAAAAAAAAAAAAAAAAAAAAAAAAAAAAAAAAAAAAAAAAAAAAAAAAA
         ATOMIC WAVEFUNCTION(S)


 NUCLEAR CHARGE  6.0  SYMMETRY SPECIES            S    P
 N. ELECTRONS    6.0  NUMBER OF PRIMITIVE GTOS    7    4
                      NUMBER OF CONTRACTED GTOS   3    2
                      NUMBER OF CLOSED SHELLS     2    0
                      OPEN SHELL OCCUPATION       0    2

  ZNUC SCFIT  TOTAL HF ENERGY   KINETIC ENERGY   VIRIAL THEOREM ACCURACY
   6.0   6   -3.750912652E+01  3.905246519E+01 -1.960480378E+00  3.7E-06

 NUCLEAR CHARGE  7.0  SYMMETRY SPECIES            S    P
 N. ELECTRONS    7.0  NUMBER OF PRIMITIVE GTOS    7    4
                      NUMBER OF CONTRACTED GTOS   3    2
                      NUMBER OF CLOSED SHELLS     2    0
                      OPEN SHELL OCCUPATION       0    3

  ZNUC SCFIT  TOTAL HF ENERGY   KINETIC ENERGY   VIRIAL THEOREM ACCURACY
   7.0   9   -5.432196661E+01  5.425066284E+01 -2.001314339E+00  1.2E-06

 NUCLEAR CHARGE  9.0  SYMMETRY SPECIES            S    P
 N. ELECTRONS    9.0  NUMBER OF PRIMITIVE GTOS    7    4
                      NUMBER OF CONTRACTED GTOS   3    2
                      NUMBER OF CLOSED SHELLS     2    0
                      OPEN SHELL OCCUPATION       0    5

  ZNUC SCFIT  TOTAL HF ENERGY   KINETIC ENERGY   VIRIAL THEOREM ACCURACY
   9.0  14   -9.927886620E+01  9.927374065E+01 -2.000051630E+00  4.0E-06

 NUCLEAR CHARGE 30.0  SYMMETRY SPECIES            S    P    D
 N. ELECTRONS   30.0  NUMBER OF PRIMITIVE GTOS   14    9    5
                      NUMBER OF CONTRACTED GTOS   5    3    2
                      NUMBER OF CLOSED SHELLS     4    2    1
                      OPEN SHELL OCCUPATION       0    0    0

  ZNUC SCFIT  TOTAL HF ENERGY   KINETIC ENERGY   VIRIAL THEOREM ACCURACY
  30.0  10   -1.777404290E+03  1.777325716E+03 -2.000044209E+00  2.5E-06

 AAAAAAAAAAAAAAAAAAAAAAAAAAAAAAAAAAAAAAAAAAAAAAAAAAAAAAAAAAAAAAAAAAAAAAAAAAAAAAA

 TOTAL ATOMIC CHARGES:
   6.0000000   6.0000000   6.0000000   6.0000000   6.0000000   6.0000000
   6.0000000   6.0000000   6.0000000   6.0000000   6.0000000   6.0000000
   6.0000000   6.0000000   6.0000000   6.0000000   6.0000000   6.0000000
   6.0000000   6.0000000   6.0000000   6.0000000   6.0000000   6.0000000
   7.0000000   7.0000000   7.0000000   7.0000000   7.0000000   7.0000000
   7.0000000   7.0000000   7.0000000   7.0000000   7.0000000   7.0000000
   7.0000000   7.0000000   7.0000000   7.0000000   7.0000000   7.0000000
   7.0000000   7.0000000   9.0000000   9.0000000   9.0000000   9.0000000
   9.0000000   9.0000000   9.0000000   9.0000000   9.0000000   9.0000000
   9.0000000   9.0000000   9.0000000   9.0000000   9.0000000   9.0000000
  30.0000000  30.0000000
 TTTTTTTTTTTTTTTTTTTTTTTTTTTTTT MOQGAD      TELAPSE       27.92 TCPU        6.44
 TTTTTTTTTTTTTTTTTTTTTTTTTTTTTT SHELLXN     TELAPSE       81.57 TCPU       51.58
 TTTTTTTTTTTTTTTTTTTTTTTTTTTTTT MONMO3      TELAPSE       84.26 TCPU       54.27
 NUMERICALLY INTEGRATED DENSITY    488.0000298842
 TTTTTTTTTTTTTTTTTTTTTTTTTTTTTT NUMDFT      TELAPSE       86.25 TCPU       56.25
 CYC   0 ETOT(AU) -7.164079893487E+03 DETOT -7.16E+03 tst  0.00E+00 PX  1.00E+00
 TTTTTTTTTTTTTTTTTTTTTTTTTTTTTT DIIS        TELAPSE       86.34 TCPU       56.33
 TTTTTTTTTTTTTTTTTTTTTTTTTTTTTT FDIK        TELAPSE      137.69 TCPU      104.58
 INSULATING STATE
 TOP OF VALENCE BANDS -    BAND    244; K    4; EIG -1.2964264E-01 AU
 TOP OF VALENCE BANDS -    BAND    244; K    1; EIG -1.3139530E-01 AU
 BOTTOM OF VIRTUAL BANDS - BAND    245; K    5; EIG -8.3840365E-02 AU
 INDIRECT ENERGY BAND GAP:   1.2463 eV
 BOTTOM OF VIRTUAL BANDS - BAND    245; K    1; EIG -8.2996333E-02 AU
 TTTTTTTTTTTTTTTTTTTTTTTTTTTTTT PDIG        TELAPSE      138.47 TCPU      105.36
 TOTAL ATOMIC CHARGES:
   6.3510196   6.3510196   6.3510196   6.3510196   5.6348183   5.6348183
   5.6348183   5.6348183   5.5379777   5.5379777   5.5379777   5.5379777
   5.2286023   5.2286023   5.2286023   5.2286023   5.1356087   5.1356087
   5.1356087   5.1356087   5.5943532   5.5943532   5.5943532   5.5943532
   7.5238511   7.5238511   7.5238511   7.5238511   7.2436931   7.2436931
   7.2436931   7.2436931   7.5066708   7.5066708   7.5066708   7.5066708
   7.2158604   7.2158604   7.2158604   7.2158604   7.8182067   7.8182067
   7.8182067   7.8182067   9.2857083   9.2857083   9.2857083   9.2857083
   9.3087593   9.3087593   9.3087593   9.3087593   9.3241722   9.3241722
   9.3241722   9.3241722   9.2839967   9.2839967   9.2839967   9.2839967
  28.0051584  28.0216488
 TTTTTTTTTTTTTTTTTTTTTTTTTTTTTT MOQGAD      TELAPSE      138.52 TCPU      105.40
 TTTTTTTTTTTTTTTTTTTTTTTTTTTTTT SHELLXN     TELAPSE      197.80 TCPU      158.37
 TTTTTTTTTTTTTTTTTTTTTTTTTTTTTT MONMO3      TELAPSE      200.01 TCPU      160.57
 NUMERICALLY INTEGRATED DENSITY    487.9999760981
 TTTTTTTTTTTTTTTTTTTTTTTTTTTTTT NUMDFT      TELAPSE      205.42 TCPU      165.97
 CYC   1 ETOT(AU) -7.156768321321E+03 DETOT  7.31E+00 tst  0.00E+00 PX  1.00E+00
 TTTTTTTTTTTTTTTTTTTTTTTTTTTTTT DIIS        TELAPSE      205.81 TCPU      166.35
 DIIS TEST: 0.11894E+02 AT SCF   CYCLE   1 - MIX   30 %
 TTTTTTTTTTTTTTTTTTTTTTTTTTTTTT FDIK        TELAPSE      225.52 TCPU      183.82
 INSULATING STATE
 TOP OF VALENCE BANDS -    BAND    244; K    2; EIG -1.8309389E-01 AU
 TOP OF VALENCE BANDS -    BAND    244; K    1; EIG -1.8330593E-01 AU
 BOTTOM OF VIRTUAL BANDS - BAND    245; K    1; EIG -1.0547671E-01 AU
 INDIRECT ENERGY BAND GAP:   2.1121 eV
 TTTTTTTTTTTTTTTTTTTTTTTTTTTTTT PDIG        TELAPSE      226.29 TCPU      184.59
 TOTAL ATOMIC CHARGES:
   6.0298974   6.0298974   6.0298974   6.0298974   6.4125119   6.4125119
   6.4125119   6.4125119   6.2938908   6.2938908   6.2938908   6.2938908
   6.1922493   6.1922493   6.1922493   6.1922493   6.2846050   6.2846050
   6.2846050   6.2846050   5.8734780   5.8734780   5.8734780   5.8734780
   6.9978294   6.9978294   6.9978294   6.9978294   6.9289083   6.9289083
   6.9289083   6.9289083   6.9787756   6.9787756   6.9787756   6.9787756
   6.9084714   6.9084714   6.9084714   6.9084714   6.3276696   6.3276696
   6.3276696   6.3276696   8.9999366   8.9999366   8.9999366   8.9999366
   9.0568066   9.0568066   9.0568066   9.0568066   8.9476657   8.9476657
   8.9476657   8.9476657   8.9642568   8.9642568   8.9642568   8.9642568
  29.6162001  29.5959904
 TTTTTTTTTTTTTTTTTTTTTTTTTTTTTT MOQGAD      TELAPSE      226.33 TCPU      184.63
 TTTTTTTTTTTTTTTTTTTTTTTTTTTTTT SHELLXN     TELAPSE      285.13 TCPU      237.46
 TTTTTTTTTTTTTTTTTTTTTTTTTTTTTT MONMO3      TELAPSE      289.13 TCPU      241.46
 NUMERICALLY INTEGRATED DENSITY    487.9999586466
 TTTTTTTTTTTTTTTTTTTTTTTTTTTTTT NUMDFT      TELAPSE      294.52 TCPU      246.82
 CYC   2 ETOT(AU) -7.155884108552E+03 DETOT  8.84E-01 tst  5.73E-02 PX  6.30E-01
 TTTTTTTTTTTTTTTTTTTTTTTTTTTTTT DIIS        TELAPSE      299.93 TCPU      252.22
 DIIS TEST: 0.16896E+02 AT SCF   CYCLE   2 - DIIS ACTIVE - HISTORY:     2 CYCLES
 TTTTTTTTTTTTTTTTTTTTTTTTTTTTTT FDIK        TELAPSE      315.59 TCPU      265.73
 INSULATING STATE
 TOP OF VALENCE BANDS -    BAND    244; K    1; EIG -2.3034837E-01 AU
 BOTTOM OF VIRTUAL BANDS - BAND    245; K    1; EIG -1.0046094E-01 AU
 DIRECT ENERGY BAND GAP:   3.5344 eV
 TTTTTTTTTTTTTTTTTTTTTTTTTTTTTT PDIG        TELAPSE      316.36 TCPU      266.50
 TOTAL ATOMIC CHARGES:
   5.9638256   5.9638256   5.9638256   5.9638256   5.9384796   5.9384796
   5.9384796   5.9384796   5.7346809   5.7346809   5.7346809   5.7346809
   5.7722830   5.7722830   5.7722830   5.7722830   5.6438841   5.6438841
   5.6438841   5.6438841   5.6193663   5.6193663   5.6193663   5.6193663
   7.2064548   7.2064548   7.2064548   7.2064548   7.1396652   7.1396652
   7.1396652   7.1396652   7.1996666   7.1996666   7.1996666   7.1996666
   7.1161084   7.1161084   7.1161084   7.1161084   7.5093779   7.5093779
   7.5093779   7.5093779   9.1537798   9.1537798   9.1537798   9.1537798
   9.1326336   9.1326336   9.1326336   9.1326336   9.1927563   9.1927563
   9.1927563   9.1927563   9.1383239   9.1383239   9.1383239   9.1383239
  29.0657975  29.0890580
 TTTTTTTTTTTTTTTTTTTTTTTTTTTTTT MOQGAD      TELAPSE      316.41 TCPU      266.54
 TTTTTTTTTTTTTTTTTTTTTTTTTTTTTT SHELLXN     TELAPSE      371.53 TCPU      319.19
 TTTTTTTTTTTTTTTTTTTTTTTTTTTTTT MONMO3      TELAPSE      375.55 TCPU      323.20
 NUMERICALLY INTEGRATED DENSITY    487.9999769764
 TTTTTTTTTTTTTTTTTTTTTTTTTTTTTT NUMDFT      TELAPSE      381.02 TCPU      328.62
 CYC   3 ETOT(AU) -7.158658726705E+03 DETOT -2.77E+00 tst  9.40E-03 PX  5.09E-01
 TTTTTTTTTTTTTTTTTTTTTTTTTTTTTT DIIS        TELAPSE      381.58 TCPU      329.17
 DIIS TEST: 0.15397E+01 AT SCF   CYCLE   3 - DIIS ACTIVE - HISTORY:     3 CYCLES
 TTTTTTTTTTTTTTTTTTTTTTTTTTTTTT FDIK        TELAPSE      405.93 TCPU      347.18
 INSULATING STATE
 TOP OF VALENCE BANDS -    BAND    244; K    5; EIG -2.3317126E-01 AU
 TOP OF VALENCE BANDS -    BAND    244; K    1; EIG -2.3588324E-01 AU
 BOTTOM OF VIRTUAL BANDS - BAND    245; K    6; EIG -1.0347083E-01 AU
 INDIRECT ENERGY BAND GAP:   3.5293 eV
 BOTTOM OF VIRTUAL BANDS - BAND    245; K    1; EIG -1.0304091E-01 AU
 TTTTTTTTTTTTTTTTTTTTTTTTTTTTTT PDIG        TELAPSE      406.70 TCPU      347.96
 TOTAL ATOMIC CHARGES:
   6.2454687   6.2454687   6.2454687   6.2454687   5.9605945   5.9605945
   5.9605945   5.9605945   5.9054548   5.9054548   5.9054548   5.9054548
   5.5489067   5.5489067   5.5489067   5.5489067   5.6040102   5.6040102
   5.6040102   5.6040102   5.7052769   5.7052769   5.7052769   5.7052769
   7.3006514   7.3006514   7.3006514   7.3006514   7.0950118   7.0950118
   7.0950118   7.0950118   7.2648543   7.2648543   7.2648543   7.2648543
   7.0819869   7.0819869   7.0819869   7.0819869   7.1600764   7.1600764
   7.1600764   7.1600764   9.1645431   9.1645431   9.1645431   9.1645431
   9.2019719   9.2019719   9.2019719   9.2019719   9.1871927   9.1871927
   9.1871927   9.1871927   9.1447614   9.1447614   9.1447614   9.1447614
  28.8501453  28.8668086
 TTTTTTTTTTTTTTTTTTTTTTTTTTTTTT MOQGAD      TELAPSE      406.74 TCPU      348.00
 TTTTTTTTTTTTTTTTTTTTTTTTTTTTTT SHELLXN     TELAPSE      467.63 TCPU      400.71
 TTTTTTTTTTTTTTTTTTTTTTTTTTTTTT MONMO3      TELAPSE      475.17 TCPU      408.22
 NUMERICALLY INTEGRATED DENSITY    487.9999728069
 TTTTTTTTTTTTTTTTTTTTTTTTTTTTTT NUMDFT      TELAPSE      480.55 TCPU      413.57
 CYC   4 ETOT(AU) -7.158797163972E+03 DETOT -1.38E-01 tst  2.59E-03 PX  1.07E-01
 TTTTTTTTTTTTTTTTTTTTTTTTTTTTTT DIIS        TELAPSE      480.74 TCPU      413.75
 DIIS TEST: 0.70208E+00 AT SCF   CYCLE   4 - DIIS ACTIVE - HISTORY:     4 CYCLES
 TTTTTTTTTTTTTTTTTTTTTTTTTTTTTT FDIK        TELAPSE      495.33 TCPU      428.23
 INSULATING STATE
 TOP OF VALENCE BANDS -    BAND    244; K    5; EIG -2.3589953E-01 AU
 TOP OF VALENCE BANDS -    BAND    244; K    1; EIG -2.3730661E-01 AU
 BOTTOM OF VIRTUAL BANDS - BAND    245; K    6; EIG -1.0299556E-01 AU
 INDIRECT ENERGY BAND GAP:   3.6165 eV
 BOTTOM OF VIRTUAL BANDS - BAND    245; K    1; EIG -1.0256063E-01 AU
 TTTTTTTTTTTTTTTTTTTTTTTTTTTTTT PDIG        TELAPSE      496.11 TCPU      429.00
 TOTAL ATOMIC CHARGES:
   6.1385684   6.1385684   6.1385684   6.1385684   5.9585351   5.9585351
   5.9585351   5.9585351   5.8475217   5.8475217   5.8475217   5.8475217
   5.6926823   5.6926823   5.6926823   5.6926823   5.6455783   5.6455783
   5.6455783   5.6455783   5.6967559   5.6967559   5.6967559   5.6967559
   7.2521933   7.2521933   7.2521933   7.2521933   7.1238565   7.1238565
   7.1238565   7.1238565   7.2248275   7.2248275   7.2248275   7.2248275
   7.1009390   7.1009390   7.1009390   7.1009390   7.2736819   7.2736819
   7.2736819   7.2736819   9.1465776   9.1465776   9.1465776   9.1465776
   9.1752029   9.1752029   9.1752029   9.1752029   9.1502686   9.1502686
   9.1502686   9.1502686   9.1327293   9.1327293   9.1327293   9.1327293
  28.8751388  28.8851887
 TTTTTTTTTTTTTTTTTTTTTTTTTTTTTT MOQGAD      TELAPSE      496.15 TCPU      429.05
 TTTTTTTTTTTTTTTTTTTTTTTTTTTTTT SHELLXN     TELAPSE      549.60 TCPU      481.80
 TTTTTTTTTTTTTTTTTTTTTTTTTTTTTT MONMO3      TELAPSE      557.49 TCPU      489.68
 NUMERICALLY INTEGRATED DENSITY    487.9999734295
 TTTTTTTTTTTTTTTTTTTTTTTTTTTTTT NUMDFT      TELAPSE      562.87 TCPU      495.05
 CYC   5 ETOT(AU) -7.158900854442E+03 DETOT -1.04E-01 tst  6.66E-04 PX  6.90E-02
 TTTTTTTTTTTTTTTTTTTTTTTTTTTTTT DIIS        TELAPSE      563.28 TCPU      495.46
 DIIS TEST: 0.36250E-01 AT SCF   CYCLE   5 - DIIS ACTIVE - HISTORY:     5 CYCLES
 TTTTTTTTTTTTTTTTTTTTTTTTTTTTTT FDIK        TELAPSE      580.05 TCPU      508.87
 INSULATING STATE
 TOP OF VALENCE BANDS -    BAND    244; K    5; EIG -2.3319898E-01 AU
 TOP OF VALENCE BANDS -    BAND    244; K    1; EIG -2.3456875E-01 AU
 BOTTOM OF VIRTUAL BANDS - BAND    245; K    6; EIG -1.0156993E-01 AU
 INDIRECT ENERGY BAND GAP:   3.5818 eV
 BOTTOM OF VIRTUAL BANDS - BAND    245; K    1; EIG -1.0133552E-01 AU
 TTTTTTTTTTTTTTTTTTTTTTTTTTTTTT PDIG        TELAPSE      580.82 TCPU      509.64
 TOTAL ATOMIC CHARGES:
   6.1207706   6.1207706   6.1207706   6.1207706   5.9628388   5.9628388
   5.9628388   5.9628388   5.8523725   5.8523725   5.8523725   5.8523725
   5.6683181   5.6683181   5.6683181   5.6683181   5.6463009   5.6463009
   5.6463009   5.6463009   5.6784189   5.6784189   5.6784189   5.6784189
   7.2637186   7.2637186   7.2637186   7.2637186   7.0981452   7.0981452
   7.0981452   7.0981452   7.2520112   7.2520112   7.2520112   7.2520112
   7.0947674   7.0947674   7.0947674   7.0947674   7.2677367   7.2677367
   7.2677367   7.2677367   9.1576080   9.1576080   9.1576080   9.1576080
   9.1698017   9.1698017   9.1698017   9.1698017   9.1819072   9.1819072
   9.1819072   9.1819072   9.1329551   9.1329551   9.1329551   9.1329551
  28.8967373  28.9125793
 TTTTTTTTTTTTTTTTTTTTTTTTTTTTTT MOQGAD      TELAPSE      580.87 TCPU      509.68
 TTTTTTTTTTTTTTTTTTTTTTTTTTTTTT SHELLXN     TELAPSE      636.03 TCPU      562.52
 TTTTTTTTTTTTTTTTTTTTTTTTTTTTTT MONMO3      TELAPSE      640.09 TCPU      566.56
 NUMERICALLY INTEGRATED DENSITY    487.9999726704
 TTTTTTTTTTTTTTTTTTTTTTTTTTTTTT NUMDFT      TELAPSE      645.48 TCPU      571.94
 CYC   6 ETOT(AU) -7.158903694919E+03 DETOT -2.84E-03 tst  2.13E-05 PX  2.47E-02
 TTTTTTTTTTTTTTTTTTTTTTTTTTTTTT DIIS        TELAPSE      646.24 TCPU      572.68
 DIIS TEST: 0.13757E-01 AT SCF   CYCLE   6 - DIIS ACTIVE - HISTORY:     6 CYCLES
 TTTTTTTTTTTTTTTTTTTTTTTTTTTTTT FDIK        TELAPSE      662.38 TCPU      586.52
 INSULATING STATE
 TOP OF VALENCE BANDS -    BAND    244; K    5; EIG -2.3407240E-01 AU
 TOP OF VALENCE BANDS -    BAND    244; K    1; EIG -2.3551976E-01 AU
 BOTTOM OF VIRTUAL BANDS - BAND    245; K    6; EIG -1.0210622E-01 AU
 INDIRECT ENERGY BAND GAP:   3.5910 eV
 BOTTOM OF VIRTUAL BANDS - BAND    245; K    1; EIG -1.0195444E-01 AU
 TTTTTTTTTTTTTTTTTTTTTTTTTTTTTT PDIG        TELAPSE      663.15 TCPU      587.28
 TOTAL ATOMIC CHARGES:
   6.1228648   6.1228648   6.1228648   6.1228648   5.9650349   5.9650349
   5.9650349   5.9650349   5.8528511   5.8528511   5.8528511   5.8528511
   5.6798481   5.6798481   5.6798481   5.6798481   5.6529910   5.6529910
   5.6529910   5.6529910   5.6846495   5.6846495   5.6846495   5.6846495
   7.2651276   7.2651276   7.2651276   7.2651276   7.1279527   7.1279527
   7.1279527   7.1279527   7.2208716   7.2208716   7.2208716   7.2208716
   7.0906656   7.0906656   7.0906656   7.0906656   7.2671460   7.2671460
   7.2671460   7.2671460   9.1497628   9.1497628   9.1497628   9.1497628
   9.1731556   9.1731556   9.1731556   9.1731556   9.1656090   9.1656090
   9.1656090   9.1656090   9.1323443   9.1323443   9.1323443   9.1323443
  28.8924731  28.9040285
 TTTTTTTTTTTTTTTTTTTTTTTTTTTTTT MOQGAD      TELAPSE      663.19 TCPU      587.33
 TTTTTTTTTTTTTTTTTTTTTTTTTTTTTT SHELLXN     TELAPSE      718.20 TCPU      639.97
 TTTTTTTTTTTTTTTTTTTTTTTTTTTTTT MONMO3      TELAPSE      722.25 TCPU      644.01
 NUMERICALLY INTEGRATED DENSITY    487.9999734500
 TTTTTTTTTTTTTTTTTTTTTTTTTTTTTT NUMDFT      TELAPSE      727.63 TCPU      649.38
 CYC   7 ETOT(AU) -7.158904999273E+03 DETOT -1.30E-03 tst  9.17E-06 PX  1.53E-02
 TTTTTTTTTTTTTTTTTTTTTTTTTTTTTT DIIS        TELAPSE      729.26 TCPU      651.00
 DIIS TEST: 0.71224E-02 AT SCF   CYCLE   7 - DIIS ACTIVE - HISTORY:     7 CYCLES
 TTTTTTTTTTTTTTTTTTTTTTTTTTTTTT FDIK        TELAPSE      744.69 TCPU      663.59
 INSULATING STATE
 TOP OF VALENCE BANDS -    BAND    244; K    5; EIG -2.3406421E-01 AU
 TOP OF VALENCE BANDS -    BAND    244; K    1; EIG -2.3564840E-01 AU
 BOTTOM OF VIRTUAL BANDS - BAND    245; K    6; EIG -1.0230052E-01 AU
 INDIRECT ENERGY BAND GAP:   3.5855 eV
 BOTTOM OF VIRTUAL BANDS - BAND    245; K    1; EIG -1.0200495E-01 AU
 TTTTTTTTTTTTTTTTTTTTTTTTTTTTTT PDIG        TELAPSE      745.46 TCPU      664.36
 TOTAL ATOMIC CHARGES:
   6.1262412   6.1262412   6.1262412   6.1262412   5.9598797   5.9598797
   5.9598797   5.9598797   5.8502747   5.8502747   5.8502747   5.8502747
   5.6814529   5.6814529   5.6814529   5.6814529   5.6453090   5.6453090
   5.6453090   5.6453090   5.6872543   5.6872543   5.6872543   5.6872543
   7.2536238   7.2536238   7.2536238   7.2536238   7.1049446   7.1049446
   7.1049446   7.1049446   7.2468825   7.2468825   7.2468825   7.2468825
   7.1020309   7.1020309   7.1020309   7.1020309   7.2686249   7.2686249
   7.2686249   7.2686249   9.1529599   9.1529599   9.1529599   9.1529599
   9.1726692   9.1726692   9.1726692   9.1726692   9.1656821   9.1656821
   9.1656821   9.1656821   9.1324294   9.1324294   9.1324294   9.1324294
  28.8922405  28.9067229
 TTTTTTTTTTTTTTTTTTTTTTTTTTTTTT MOQGAD      TELAPSE      745.51 TCPU      664.40
 TTTTTTTTTTTTTTTTTTTTTTTTTTTTTT SHELLXN     TELAPSE      800.21 TCPU      716.91
 TTTTTTTTTTTTTTTTTTTTTTTTTTTTTT MONMO3      TELAPSE      804.36 TCPU      721.06
 NUMERICALLY INTEGRATED DENSITY    487.9999732185
 TTTTTTTTTTTTTTTTTTTTTTTTTTTTTT NUMDFT      TELAPSE      809.81 TCPU      726.49
 CYC   8 ETOT(AU) -7.158905619983E+03 DETOT -6.21E-04 tst  6.73E-06 PX  7.47E-03
 TTTTTTTTTTTTTTTTTTTTTTTTTTTTTT DIIS        TELAPSE      810.04 TCPU      726.72
 DIIS TEST: 0.33409E-02 AT SCF   CYCLE   8 - DIIS ACTIVE - HISTORY:     8 CYCLES
 TTTTTTTTTTTTTTTTTTTTTTTTTTTTTT FDIK        TELAPSE      824.71 TCPU      741.26
 INSULATING STATE
 TOP OF VALENCE BANDS -    BAND    244; K    5; EIG -2.3424970E-01 AU
 TOP OF VALENCE BANDS -    BAND    244; K    1; EIG -2.3571618E-01 AU
 BOTTOM OF VIRTUAL BANDS - BAND    245; K    6; EIG -1.0231742E-01 AU
 INDIRECT ENERGY BAND GAP:   3.5901 eV
 BOTTOM OF VIRTUAL BANDS - BAND    245; K    1; EIG -1.0209534E-01 AU
 TTTTTTTTTTTTTTTTTTTTTTTTTTTTTT PDIG        TELAPSE      825.48 TCPU      742.03
 TOTAL ATOMIC CHARGES:
   6.1268561   6.1268561   6.1268561   6.1268561   5.9584245   5.9584245
   5.9584245   5.9584245   5.8483655   5.8483655   5.8483655   5.8483655
   5.6770680   5.6770680   5.6770680   5.6770680   5.6466586   5.6466586
   5.6466586   5.6466586   5.6854592   5.6854592   5.6854592   5.6854592
   7.2659290   7.2659290   7.2659290   7.2659290   7.1111583   7.1111583
   7.1111583   7.1111583   7.2393313   7.2393313   7.2393313   7.2393313
   7.0915677   7.0915677   7.0915677   7.0915677   7.2699270   7.2699270
   7.2699270   7.2699270   9.1533823   9.1533823   9.1533823   9.1533823
   9.1731394   9.1731394   9.1731394   9.1731394   9.1693501   9.1693501
   9.1693501   9.1693501   9.1326756   9.1326756   9.1326756   9.1326756
  28.8946455  28.9081842
 TTTTTTTTTTTTTTTTTTTTTTTTTTTTTT MOQGAD      TELAPSE      825.53 TCPU      742.07
 TTTTTTTTTTTTTTTTTTTTTTTTTTTTTT SHELLXN     TELAPSE      878.24 TCPU      794.39
 TTTTTTTTTTTTTTTTTTTTTTTTTTTTTT MONMO3      TELAPSE      882.55 TCPU      798.69
 NUMERICALLY INTEGRATED DENSITY    487.9999731155
 TTTTTTTTTTTTTTTTTTTTTTTTTTTTTT NUMDFT      TELAPSE      887.94 TCPU      804.07
 CYC   9 ETOT(AU) -7.158906083442E+03 DETOT -4.63E-04 tst  1.77E-06 PX  3.66E-03
 TTTTTTTTTTTTTTTTTTTTTTTTTTTTTT DIIS        TELAPSE      888.15 TCPU      804.27
 DIIS TEST: 0.29504E-03 AT SCF   CYCLE   9 - DIIS ACTIVE - HISTORY:     9 CYCLES
 TTTTTTTTTTTTTTTTTTTTTTTTTTTTTT FDIK        TELAPSE      901.98 TCPU      817.71
 INSULATING STATE
 TOP OF VALENCE BANDS -    BAND    244; K    5; EIG -2.3409554E-01 AU
 TOP OF VALENCE BANDS -    BAND    244; K    1; EIG -2.3556769E-01 AU
 BOTTOM OF VIRTUAL BANDS - BAND    245; K    6; EIG -1.0217154E-01 AU
 INDIRECT ENERGY BAND GAP:   3.5898 eV
 BOTTOM OF VIRTUAL BANDS - BAND    245; K    1; EIG -1.0192639E-01 AU
 TTTTTTTTTTTTTTTTTTTTTTTTTTTTTT PDIG        TELAPSE      902.76 TCPU      818.48
 TOTAL ATOMIC CHARGES:
   6.1239545   6.1239545   6.1239545   6.1239545   5.9619580   5.9619580
   5.9619580   5.9619580   5.8521937   5.8521937   5.8521937   5.8521937
   5.6772515   5.6772515   5.6772515   5.6772515   5.6482767   5.6482767
   5.6482767   5.6482767   5.6839338   5.6839338   5.6839338   5.6839338
   7.2588222   7.2588222   7.2588222   7.2588222   7.1136735   7.1136735
   7.1136735   7.1136735   7.2365462   7.2365462   7.2365462   7.2365462
   7.0971065   7.0971065   7.0971065   7.0971065   7.2689716   7.2689716
   7.2689716   7.2689716   9.1527194   9.1527194   9.1527194   9.1527194
   9.1718633   9.1718633   9.1718633   9.1718633   9.1698194   9.1698194
   9.1698194   9.1698194   9.1326388   9.1326388   9.1326388   9.1326388
  28.8938536  28.9072301
 TTTTTTTTTTTTTTTTTTTTTTTTTTTTTT MOQGAD      TELAPSE      902.80 TCPU      818.53
 TTTTTTTTTTTTTTTTTTTTTTTTTTTTTT SHELLXN     TELAPSE      955.86 TCPU      870.73
 TTTTTTTTTTTTTTTTTTTTTTTTTTTTTT MONMO3      TELAPSE      960.21 TCPU      875.07
 NUMERICALLY INTEGRATED DENSITY    487.9999732661
 TTTTTTTTTTTTTTTTTTTTTTTTTTTTTT NUMDFT      TELAPSE      965.64 TCPU      880.47
 CYC  10 ETOT(AU) -7.158906103285E+03 DETOT -1.98E-05 tst  6.30E-07 PX  1.87E-03
 TTTTTTTTTTTTTTTTTTTTTTTTTTTTTT DIIS        TELAPSE      966.01 TCPU      880.84
 DIIS TEST: 0.17500E-03 AT SCF   CYCLE  10 - DIIS ACTIVE - HISTORY:    10 CYCLES
 TTTTTTTTTTTTTTTTTTTTTTTTTTTTTT FDIK        TELAPSE      981.58 TCPU      894.59
 INSULATING STATE
 TOP OF VALENCE BANDS -    BAND    244; K    5; EIG -2.3406670E-01 AU
 TOP OF VALENCE BANDS -    BAND    244; K    1; EIG -2.3554868E-01 AU
 BOTTOM OF VIRTUAL BANDS - BAND    245; K    6; EIG -1.0223042E-01 AU
 INDIRECT ENERGY BAND GAP:   3.5874 eV
 BOTTOM OF VIRTUAL BANDS - BAND    245; K    1; EIG -1.0200461E-01 AU
 TTTTTTTTTTTTTTTTTTTTTTTTTTTTTT PDIG        TELAPSE      982.34 TCPU      895.36
 TOTAL ATOMIC CHARGES:
   6.1245213   6.1245213   6.1245213   6.1245213   5.9609055   5.9609055
   5.9609055   5.9609055   5.8506028   5.8506028   5.8506028   5.8506028
   5.6781752   5.6781752   5.6781752   5.6781752   5.6478143   5.6478143
   5.6478143   5.6478143   5.6846116   5.6846116   5.6846116   5.6846116
   7.2628665   7.2628665   7.2628665   7.2628665   7.1113568   7.1113568
   7.1113568   7.1113568   7.2392924   7.2392924   7.2392924   7.2392924
   7.0942072   7.0942072   7.0942072   7.0942072   7.2692429   7.2692429
   7.2692429   7.2692429   9.1526192   9.1526192   9.1526192   9.1526192
   9.1724874   9.1724874   9.1724874   9.1724874   9.1687025   9.1687025
   9.1687025   9.1687025   9.1325285   9.1325285   9.1325285   9.1325285
  28.8933767  28.9068872
 TTTTTTTTTTTTTTTTTTTTTTTTTTTTTT MOQGAD      TELAPSE      982.39 TCPU      895.40
 TTTTTTTTTTTTTTTTTTTTTTTTTTTTTT SHELLXN     TELAPSE     1034.84 TCPU      947.51
 TTTTTTTTTTTTTTTTTTTTTTTTTTTTTT MONMO3      TELAPSE     1039.41 TCPU      952.07
 NUMERICALLY INTEGRATED DENSITY    487.9999731958
 TTTTTTTTTTTTTTTTTTTTTTTTTTTTTT NUMDFT      TELAPSE     1044.83 TCPU      957.46
 CYC  11 ETOT(AU) -7.158906129490E+03 DETOT -2.62E-05 tst  2.49E-07 PX  1.02E-03
 TTTTTTTTTTTTTTTTTTTTTTTTTTTTTT DIIS        TELAPSE     1052.40 TCPU      965.01
 DIIS TEST: 0.25707E-04 AT SCF   CYCLE  11 - DIIS ACTIVE - HISTORY:    11 CYCLES
 TTTTTTTTTTTTTTTTTTTTTTTTTTTTTT FDIK        TELAPSE     1075.00 TCPU      979.19
 INSULATING STATE
 TOP OF VALENCE BANDS -    BAND    244; K    5; EIG -2.3411400E-01 AU
 TOP OF VALENCE BANDS -    BAND    244; K    1; EIG -2.3558884E-01 AU
 BOTTOM OF VIRTUAL BANDS - BAND    245; K    6; EIG -1.0220356E-01 AU
 INDIRECT ENERGY BAND GAP:   3.5895 eV
 BOTTOM OF VIRTUAL BANDS - BAND    245; K    1; EIG -1.0197036E-01 AU
 TTTTTTTTTTTTTTTTTTTTTTTTTTTTTT PDIG        TELAPSE     1075.77 TCPU      979.96
 TOTAL ATOMIC CHARGES:
   6.1252795   6.1252795   6.1252795   6.1252795   5.9602001   5.9602001
   5.9602001   5.9602001   5.8501398   5.8501398   5.8501398   5.8501398
   5.6777129   5.6777129   5.6777129   5.6777129   5.6472560   5.6472560
   5.6472560   5.6472560   5.6852054   5.6852054   5.6852054   5.6852054
   7.2619970   7.2619970   7.2619970   7.2619970   7.1121257   7.1121257
   7.1121257   7.1121257   7.2383850   7.2383850   7.2383850   7.2383850
   7.0948581   7.0948581   7.0948581   7.0948581   7.2691620   7.2691620
   7.2691620   7.2691620   9.1529572   9.1529572   9.1529572   9.1529572
   9.1726292   9.1726292   9.1726292   9.1726292   9.1690613   9.1690613
   9.1690613   9.1690613   9.1326121   9.1326121   9.1326121   9.1326121
  28.8940046  28.9076701
 TTTTTTTTTTTTTTTTTTTTTTTTTTTTTT MOQGAD      TELAPSE     1075.81 TCPU      980.00
 TTTTTTTTTTTTTTTTTTTTTTTTTTTTTT SHELLXN     TELAPSE     1138.42 TCPU     1032.17
 TTTTTTTTTTTTTTTTTTTTTTTTTTTTTT MONMO3      TELAPSE     1142.97 TCPU     1036.68
 NUMERICALLY INTEGRATED DENSITY    487.9999731954
 TTTTTTTTTTTTTTTTTTTTTTTTTTTTTT NUMDFT      TELAPSE     1148.48 TCPU     1042.16
 CYC  12 ETOT(AU) -7.158906133237E+03 DETOT -3.75E-06 tst  2.00E-08 PX  2.94E-04
 TTTTTTTTTTTTTTTTTTTTTTTTTTTTTT DIIS        TELAPSE     1171.94 TCPU     1065.57
 DIIS TEST: 0.42273E-05 AT SCF   CYCLE  12 - DIIS ACTIVE - HISTORY:    12 CYCLES
 TTTTTTTTTTTTTTTTTTTTTTTTTTTTTT FDIK        TELAPSE     1198.27 TCPU     1082.32
 INSULATING STATE
 TOP OF VALENCE BANDS -    BAND    244; K    5; EIG -2.3411420E-01 AU
 TOP OF VALENCE BANDS -    BAND    244; K    1; EIG -2.3559446E-01 AU
 BOTTOM OF VIRTUAL BANDS - BAND    245; K    6; EIG -1.0222826E-01 AU
 INDIRECT ENERGY BAND GAP:   3.5888 eV
 BOTTOM OF VIRTUAL BANDS - BAND    245; K    1; EIG -1.0199439E-01 AU
 TTTTTTTTTTTTTTTTTTTTTTTTTTTTTT PDIG        TELAPSE     1199.04 TCPU     1083.09
 TOTAL ATOMIC CHARGES:
   6.1250899   6.1250899   6.1250899   6.1250899   5.9605940   5.9605940
   5.9605940   5.9605940   5.8505567   5.8505567   5.8505567   5.8505567
   5.6776830   5.6776830   5.6776830   5.6776830   5.6477074   5.6477074
   5.6477074   5.6477074   5.6846260   5.6846260   5.6846260   5.6846260
   7.2620387   7.2620387   7.2620387   7.2620387   7.1119081   7.1119081
   7.1119081   7.1119081   7.2385567   7.2385567   7.2385567   7.2385567
   7.0946920   7.0946920   7.0946920   7.0946920   7.2693202   7.2693202
   7.2693202   7.2693202   9.1528260   9.1528260   9.1528260   9.1528260
   9.1724224   9.1724224   9.1724224   9.1724224   9.1690882   9.1690882
   9.1690882   9.1690882   9.1326054   9.1326054   9.1326054   9.1326054
  28.8938117  28.9073298
 TTTTTTTTTTTTTTTTTTTTTTTTTTTTTT MOQGAD      TELAPSE     1199.08 TCPU     1083.13
 TTTTTTTTTTTTTTTTTTTTTTTTTTTTTT SHELLXN     TELAPSE     1259.56 TCPU     1135.28
 TTTTTTTTTTTTTTTTTTTTTTTTTTTTTT MONMO3      TELAPSE     1264.92 TCPU     1140.64
 NUMERICALLY INTEGRATED DENSITY    487.9999731948
 TTTTTTTTTTTTTTTTTTTTTTTTTTTTTT NUMDFT      TELAPSE     1270.44 TCPU     1146.14
 CYC  13 ETOT(AU) -7.158906133813E+03 DETOT -5.76E-07 tst  2.85E-09 PX  1.87E-04
 TTTTTTTTTTTTTTTTTTTTTTTTTTTTTT DIIS        TELAPSE     1270.97 TCPU     1146.67
 DIIS TEST: 0.10068E-05 AT SCF   CYCLE  13 - DIIS ACTIVE - HISTORY:    13 CYCLES
 TTTTTTTTTTTTTTTTTTTTTTTTTTTTTT FDIK        TELAPSE     1283.91 TCPU     1159.49
 INSULATING STATE
 TOP OF VALENCE BANDS -    BAND    244; K    5; EIG -2.3410941E-01 AU
 TOP OF VALENCE BANDS -    BAND    244; K    1; EIG -2.3558571E-01 AU
 BOTTOM OF VIRTUAL BANDS - BAND    245; K    6; EIG -1.0222001E-01 AU
 INDIRECT ENERGY BAND GAP:   3.5889 eV
 BOTTOM OF VIRTUAL BANDS - BAND    245; K    1; EIG -1.0198761E-01 AU
 TTTTTTTTTTTTTTTTTTTTTTTTTTTTTT PDIG        TELAPSE     1284.68 TCPU     1160.26
 TOTAL ATOMIC CHARGES:
   6.1249064   6.1249064   6.1249064   6.1249064   5.9605399   5.9605399
   5.9605399   5.9605399   5.8505304   5.8505304   5.8505304   5.8505304
   5.6777963   5.6777963   5.6777963   5.6777963   5.6475471   5.6475471
   5.6475471   5.6475471   5.6848370   5.6848370   5.6848370   5.6848370
   7.2620937   7.2620937   7.2620937   7.2620937   7.1119841   7.1119841
   7.1119841   7.1119841   7.2385395   7.2385395   7.2385395   7.2385395
   7.0947694   7.0947694   7.0947694   7.0947694   7.2691776   7.2691776
[...]
 DIIS TEST: 0.54397E+04 AT CPHF  CYCLE   2 - DIIS ACTIVE - HISTORY:     2 CYCLES
 CYCLE   2   ALPHA  812.472050  EPSILON    3.126465  DELTA    1.2852E+03
 TTTTTTTTTTTTTTTTTTTTTTTTTTTTTT MOQGAD      TELAPSE   103787.40 TCPU   101999.61
 TTTTTTTTTTTTTTTTTTTTTTTTTTTTTT CP_MONMON   TELAPSE   103813.63 TCPU   102025.70
 DIIS TEST: 0.16456E+03 AT CPHF  CYCLE   3 - DIIS ACTIVE - HISTORY:     3 CYCLES
 CYCLE   3   ALPHA  870.561930  EPSILON    3.278503  DELTA    5.8090E+01
 TTTTTTTTTTTTTTTTTTTTTTTTTTTTTT MOQGAD      TELAPSE   106478.21 TCPU   104679.29
 TTTTTTTTTTTTTTTTTTTTTTTTTTTTTT CP_MONMON   TELAPSE   106504.54 TCPU   104705.53
 DIIS TEST: 0.73645E+01 AT CPHF  CYCLE   4 - DIIS ACTIVE - HISTORY:     4 CYCLES
 CYCLE   4   ALPHA  883.169056  EPSILON    3.311499  DELTA    1.2607E+01
 TTTTTTTTTTTTTTTTTTTTTTTTTTTTTT MOQGAD      TELAPSE   109180.44 TCPU   107371.96
 TTTTTTTTTTTTTTTTTTTTTTTTTTTTTT CP_MONMON   TELAPSE   109206.49 TCPU   107397.93
 DIIS TEST: 0.14494E+01 AT CPHF  CYCLE   5 - DIIS ACTIVE - HISTORY:     5 CYCLES
 CYCLE   5   ALPHA  894.234930  EPSILON    3.340461  DELTA    1.1066E+01
 TTTTTTTTTTTTTTTTTTTTTTTTTTTTTT MOQGAD      TELAPSE   111877.73 TCPU   110054.44
 TTTTTTTTTTTTTTTTTTTTTTTTTTTTTT CP_MONMON   TELAPSE   111904.02 TCPU   110080.63
 DIIS TEST: 0.28132E+00 AT CPHF  CYCLE   6 - DIIS ACTIVE - HISTORY:     6 CYCLES
 CYCLE   6   ALPHA  897.965563  EPSILON    3.350226  DELTA    3.7306E+00
 TTTTTTTTTTTTTTTTTTTTTTTTTTTTTT MOQGAD      TELAPSE   114586.27 TCPU   112735.00
 TTTTTTTTTTTTTTTTTTTTTTTTTTTTTT CP_MONMON   TELAPSE   114622.05 TCPU   112763.76
 DIIS TEST: 0.17300E-01 AT CPHF  CYCLE   7 - DIIS ACTIVE - HISTORY:     7 CYCLES
 CYCLE   7   ALPHA  898.332622  EPSILON    3.351186  DELTA    3.6706E-01
 TTTTTTTTTTTTTTTTTTTTTTTTTTTTTT MOQGAD      TELAPSE   117303.26 TCPU   115434.07
 TTTTTTTTTTTTTTTTTTTTTTTTTTTTTT CP_MONMON   TELAPSE   117329.54 TCPU   115460.26
 DIIS TEST: 0.19502E-02 AT CPHF  CYCLE   8 - DIIS ACTIVE - HISTORY:     8 CYCLES
 CYCLE   8   ALPHA  898.471708  EPSILON    3.351550  DELTA    1.3909E-01
 TTTTTTTTTTTTTTTTTTTTTTTTTTTTTT MOQGAD      TELAPSE   119996.34 TCPU   118118.73
 TTTTTTTTTTTTTTTTTTTTTTTTTTTTTT CP_MONMON   TELAPSE   120022.63 TCPU   118144.95
 DIIS TEST: 0.29088E-03 AT CPHF  CYCLE   9 - DIIS ACTIVE - HISTORY:     9 CYCLES
 CYCLE   9   ALPHA  898.502623  EPSILON    3.351631  DELTA    3.0915E-02
 TTTTTTTTTTTTTTTTTTTTTTTTTTTTTT MOQGAD      TELAPSE   122688.29 TCPU   120795.09
 TTTTTTTTTTTTTTTTTTTTTTTTTTTTTT CP_MONMON   TELAPSE   122714.51 TCPU   120821.14
 DIIS TEST: 0.34997E-04 AT CPHF  CYCLE  10 - DIIS ACTIVE - HISTORY:    10 CYCLES
 CYCLE  10   ALPHA  898.489065  EPSILON    3.351596  DELTA   -1.3558E-02
 TTTTTTTTTTTTTTTTTTTTTTTTTTTTTT MOQGAD      TELAPSE   125380.94 TCPU   123469.74
 TTTTTTTTTTTTTTTTTTTTTTTTTTTTTT CP_MONMON   TELAPSE   125408.46 TCPU   123497.15
 DIIS TEST: 0.50668E-05 AT CPHF  CYCLE  11 - DIIS ACTIVE - HISTORY:    11 CYCLES
 CYCLE  11   ALPHA  898.474322  EPSILON    3.351557  DELTA   -1.4743E-02
 TTTTTTTTTTTTTTTTTTTTTTTTTTTTTT MOQGAD      TELAPSE   128072.85 TCPU   126141.06
 TTTTTTTTTTTTTTTTTTTTTTTTTTTTTT CP_MONMON   TELAPSE   128099.03 TCPU   126167.18
 DIIS TEST: 0.13541E-05 AT CPHF  CYCLE  12 - DIIS ACTIVE - HISTORY:    12 CYCLES
 CYCLE  12   ALPHA  898.471323  EPSILON    3.351549  DELTA   -2.9994E-03
 TTTTTTTTTTTTTTTTTTTTTTTTTTTTTT MOQGAD      TELAPSE   130765.60 TCPU   128823.59
 TTTTTTTTTTTTTTTTTTTTTTTTTTTTTT CP_MONMON   TELAPSE   130791.80 TCPU   128849.67
 DIIS TEST: 0.21247E-05 AT CPHF  CYCLE  13 - DIIS ACTIVE - HISTORY:    13 CYCLES
 CYCLE  13   ALPHA  898.469983  EPSILON    3.351546  DELTA   -1.3402E-03
 TTTTTTTTTTTTTTTTTTTTTTTTTTTTTT MOQGAD      TELAPSE   133458.56 TCPU   131500.40
 TTTTTTTTTTTTTTTTTTTTTTTTTTTTTT CP_MONMON   TELAPSE   133484.68 TCPU   131526.44
 DIIS TEST: 0.51795E-07 AT CPHF  CYCLE  14 - DIIS ACTIVE - HISTORY:    14 CYCLES
 CYCLE  14   ALPHA  898.469107  EPSILON    3.351543  DELTA   -8.7609E-04
 TTTTTTTTTTTTTTTTTTTTTTTTTTTTTT CP_SC       TELAPSE   133655.19 TCPU   131688.60

 *******************************************************************************

 ELECTRIC FIELD APPLIED ALONG CARTESIAN DIRECTION Z

 *******************************************************************************
 THE NUMBER OF SYMMETRY OPERATORS HAS BEEN REDUCED FROM  4 TO  1

 NEW GRID IN RECIPROCAL SPACE
 *******************************************************************************
 POINTS IN THE IBZ                  14 SHRINKING FACTORS               3  3  3
 *******************************************************************************
 *** K POINTS COORDINATES (OBLIQUE COORDINATES IN UNITS OF SHRINK FAC. )
   1-R(  0  0  0)   2-C(  1  0  0)   3-C(  0  1  2)   4-C(  2  0  1)
   5-C(  0  2  0)   6-C(  1  1  0)   7-C(  1  1  1)   8-C(  1  0  1)
   9-C(  0  1  1)  10-C(  2  1  0)  11-C(  0  0  2)  12-C(  2  1  1)
  13-C(  2  1  2)  14-C(  2  2  1)

 GCALCO - MAX INDICES DIRECT LATTICE VECTOR    14    14    15
 NO.OF VECTORS CREATED 6999 STARS  487 RMAX   199.84368 BOHR
 TTTTTTTTTTTTTTTTTTTTTTTTTTTTTT gordsh1     TELAPSE   133705.07 TCPU   131737.15

 MATRIX SIZE: P(G) 1714156, F(G)  857924, P(G) IRR  860002, F(G) IRR  860002
 MAX G-VECTOR INDEX FOR 1- AND 2-ELECTRON INTEGRALS  59

 TTTTTTTTTTTTTTTTTTTTTTTTTTTTTT INPUT       TELAPSE   133748.52 TCPU   131780.18
 TTTTTTTTTTTTTTTTTTTTTTTTTTTTTT SYMM        TELAPSE   133748.52 TCPU   131780.18

 ***** NEW REFERENCE GEOMETRY *****
 TTTTTTTTTTTTTTTTTTTTTTTTTTTTTT INT_SCREEN  TELAPSE   133748.53 TCPU   131780.20
 INFORMATION **** EXCBUF **** EXCH. BIPO BUFFER: WORDS USED =           0

 DFT PARAMETERS

     ATOM       ELECTRONS   NET CHARGE   R(ANGSTROM)
   1   6  C       6.0000      0.0000     0.77000000
  25   7  N       7.0000      0.0000     0.74000000
  45   9  F       9.0000      0.0000     0.72000000
  61  30  ZN     30.0000      0.0000     1.37000000

 SIZE OF GRID=    2030668
 TTTTTTTTTTTTTTTTTTTTTTTTTTTTTT MAKE_GRID2  TELAPSE   133750.43 TCPU   131782.09
 BECKE WEIGHT FUNCTION
 RADSAFE =     2.00
 TOLERANCES - DENSITY:10**- 6; POTENTIAL:10**- 9; GRID WGT:10**-14

 RADIAL INTEGRATION  - INTERVALS (POINTS,UPPER LIMIT):            1( 75,  4.0*R)

 ANGULAR INTEGRATION - INTERVALS (ACCURACY LEVEL [N. POINTS] UPPER LIMIT):
  1(  4[  86]   0.2)  2(  8[ 194]   0.5)  3( 12[ 350]   0.9)  4( 16[ 974]   3.5)
  5( 12[ 350]9999.0)
 TTTTTTTTTTTTTTTTTTTTTTTTTTTTTT INT_CALC    TELAPSE   133750.52 TCPU   131782.18
 CYCLE   0   ALPHA  548.820263  EPSILON    2.436415  DELTA    5.4882E+02
 TTTTTTTTTTTTTTTTTTTTTTTTTTTTTT MOQGAD      TELAPSE   134809.35 TCPU   132836.56
 TTTTTTTTTTTTTTTTTTTTTTTTTTTTTT CP_MONMON   TELAPSE   134835.56 TCPU   132862.60
 DIIS TEST: 0.84768E+02 AT CPHF  CYCLE   1 - MIX    0 %
 CYCLE   1   ALPHA  226.245393  EPSILON    1.592147  DELTA   -3.2257E+02
 TTTTTTTTTTTTTTTTTTTTTTTTTTTTTT MOQGAD      TELAPSE   135927.21 TCPU   133942.55
 TTTTTTTTTTTTTTTTTTTTTTTTTTTTTT CP_MONMON   TELAPSE   135953.20 TCPU   133968.42
 DIIS TEST: 0.67638E+03 AT CPHF  CYCLE   2 - DIIS ACTIVE - HISTORY:     2 CYCLES
 CYCLE   2   ALPHA  392.874618  EPSILON    2.028262  DELTA    1.6663E+02
 TTTTTTTTTTTTTTTTTTTTTTTTTTTTTT MOQGAD      TELAPSE   137049.96 TCPU   135056.91
 TTTTTTTTTTTTTTTTTTTTTTTTTTTTTT CP_MONMON   TELAPSE   137075.99 TCPU   135082.85
 DIIS TEST: 0.19252E+02 AT CPHF  CYCLE   3 - DIIS ACTIVE - HISTORY:     3 CYCLES
 CYCLE   3   ALPHA  418.479885  EPSILON    2.095278  DELTA    2.5605E+01
 TTTTTTTTTTTTTTTTTTTTTTTTTTTTTT MOQGAD      TELAPSE   138173.71 TCPU   136172.04
 TTTTTTTTTTTTTTTTTTTTTTTTTTTTTT CP_MONMON   TELAPSE   138199.77 TCPU   136197.95
 DIIS TEST: 0.72158E+01 AT CPHF  CYCLE   4 - DIIS ACTIVE - HISTORY:     4 CYCLES
 CYCLE   4   ALPHA  420.556900  EPSILON    2.100714  DELTA    2.0770E+00
 TTTTTTTTTTTTTTTTTTTTTTTTTTTTTT MOQGAD      TELAPSE   139308.63 TCPU   137298.83
 TTTTTTTTTTTTTTTTTTTTTTTTTTTTTT CP_MONMON   TELAPSE   139334.66 TCPU   137324.79
 DIIS TEST: 0.20822E+00 AT CPHF  CYCLE   5 - DIIS ACTIVE - HISTORY:     5 CYCLES
 CYCLE   5   ALPHA  421.109147  EPSILON    2.102160  DELTA    5.5225E-01
 TTTTTTTTTTTTTTTTTTTTTTTTTTTTTT MOQGAD      TELAPSE   140433.53 TCPU   138414.45
 TTTTTTTTTTTTTTTTTTTTTTTTTTTTTT CP_MONMON   TELAPSE   140459.51 TCPU   138440.35
 DIIS TEST: 0.23586E-01 AT CPHF  CYCLE   6 - DIIS ACTIVE - HISTORY:     6 CYCLES
 CYCLE   6   ALPHA  421.273895  EPSILON    2.102591  DELTA    1.6475E-01
 TTTTTTTTTTTTTTTTTTTTTTTTTTTTTT MOQGAD      TELAPSE   141558.06 TCPU   139528.82
 TTTTTTTTTTTTTTTTTTTTTTTTTTTTTT CP_MONMON   TELAPSE   141584.09 TCPU   139554.73
 DIIS TEST: 0.63986E-02 AT CPHF  CYCLE   7 - DIIS ACTIVE - HISTORY:     7 CYCLES
 CYCLE   7   ALPHA  421.273069  EPSILON    2.102589  DELTA   -8.2596E-04
 TTTTTTTTTTTTTTTTTTTTTTTTTTTTTT CP_SC       TELAPSE   141719.28 TCPU   139679.11

 *******************************************************************************

 POLARIZABILITY (ALPHA), DIELECTRIC (EPSILON) AND FIRST-ORDER ELECTRIC
 SUSCEPTIBILITY (CHI(1)) TENSORS (INDEPENDENT COMPONENTS)

  FR.(eV) COMP.   ALPHA(Re,Im)           EPSILON(Re,Im)                CHI(1)
  2.331   XX     898.4690       0.0000       3.3515       0.0000       2.3515
  2.331   XY      -0.0001       0.0000      -0.0000       0.0000      -0.0000
  2.331   XZ       0.0000       0.0000       0.0000       0.0000       0.0000
  2.331   YY     898.4691       0.0000       3.3515       0.0000       2.3515
  2.331   YZ      -0.0000       0.0000      -0.0000       0.0000      -0.0000
  2.331   ZZ     421.2731       0.0000       2.1026       0.0000       1.1026

 DIELECTRIC TENSOR

 TENSOR IN PRINCIPAL AXES SYSTEM
 AA  3.351543E+00 BB  3.351544E+00 CC  2.102589E+00

 REFRACTIVE INDICES 
 AA  1.450031E+00 BB  1.830722E+00 CC  1.830722E+00

 OPTICALLY ANISOTROPIC - UNIAXIAL CRYSTAL

 BIREFRINGENCE =  0.3807 (NEGATIVE) - OBLATE OPTICAL ELLIPSOID

 EPSILON=N**2=1+CHI(1)=1+ALPHA*4*PI/V,   4*PI/V=   0.00262 BOHR**(-3)
 ALPHA IN BOHR**3; EPSILON AND CHI(1) ARE DIMENSIONLESS.
 *******************************************************************************


  Pockels Effect beta(-omega;omega,0) with omega=   1.1653 eV


 SIZE OF GRID=    2030668
 TTTTTTTTTTTTTTTTTTTTTTTTTTTTTT MAKE_GRID2  TELAPSE   142323.51 TCPU   140277.27
 BECKE WEIGHT FUNCTION
 RADSAFE =     2.00
 TOLERANCES - DENSITY:10**- 6; POTENTIAL:10**- 9; GRID WGT:10**-14

 RADIAL INTEGRATION  - INTERVALS (POINTS,UPPER LIMIT):            1( 75,  4.0*R)

 ANGULAR INTEGRATION - INTERVALS (ACCURACY LEVEL [N. POINTS] UPPER LIMIT):
  1(  4[  86]   0.2)  2(  8[ 194]   0.5)  3( 12[ 350]   0.9)  4( 16[ 974]   3.5)
  5( 12[ 350]9999.0)

 SIZE OF GRID=    2030668
 TTTTTTTTTTTTTTTTTTTTTTTTTTTTTT MAKE_GRID2  TELAPSE   142329.11 TCPU   140281.80
 BECKE WEIGHT FUNCTION
 RADSAFE =     2.00
 TOLERANCES - DENSITY:10**- 6; POTENTIAL:10**- 9; GRID WGT:10**-14

 RADIAL INTEGRATION  - INTERVALS (POINTS,UPPER LIMIT):            1( 75,  4.0*R)

 ANGULAR INTEGRATION - INTERVALS (ACCURACY LEVEL [N. POINTS] UPPER LIMIT):
  1(  4[  86]   0.2)  2(  8[ 194]   0.5)  3( 12[ 350]   0.9)  4( 16[ 974]   3.5)
  5( 12[ 350]9999.0)
 *******************************************************************************

 DC-POCKELS AND SECOND ELECTRIC SUSCEPTIBILITY (CHI(2))
 TENSORS (INDEPENDENT COMPONENTS)

BETA                                         CHI(2)       d(MKS)       d(cgs)
 *******************************************************************************

     XXX         -0.3278E-03  -0.4290E-06  -0.4171E-06  -0.9951E-08
     XXY         -0.4570E-04  -0.5981E-07  -0.5816E-07  -0.1387E-08
     XXZ         -0.1112E+03  -0.1455E+00  -0.1415E+00  -0.3375E-02
     XYX         -0.1199E-02  -0.1570E-05  -0.1526E-05  -0.3641E-07
     XYY          0.4893E-04   0.6403E-07   0.6226E-07   0.1485E-08
     XYZ         -0.2969E+02  -0.3886E-01  -0.3778E-01  -0.9014E-03
     XZX         -0.1076E+03  -0.1408E+00  -0.1369E+00  -0.3266E-02
     XZY         -0.2202E+02  -0.2881E-01  -0.2802E-01  -0.6684E-03
     XZZ         -0.5547E-04  -0.7259E-07  -0.7059E-07  -0.1684E-08
     YXX         -0.1157E-02  -0.1515E-05  -0.1473E-05  -0.3514E-07
     YXY          0.3041E-04   0.3980E-07   0.3870E-07   0.9232E-09
     YXZ         -0.2969E+02  -0.3886E-01  -0.3778E-01  -0.9014E-03
     YYX          0.4200E-04   0.5496E-07   0.5344E-07   0.1275E-08
     YYY         -0.2259E-02  -0.2957E-05  -0.2875E-05  -0.6859E-07
     YYZ          0.1112E+03   0.1455E+00   0.1415E+00   0.3375E-02
     YZX         -0.2202E+02  -0.2881E-01  -0.2802E-01  -0.6684E-03
     YZY          0.1076E+03   0.1408E+00   0.1369E+00   0.3266E-02
     YZZ         -0.5295E-03  -0.6929E-06  -0.6737E-06  -0.1607E-07
     ZXX         -0.1076E+03  -0.1408E+00  -0.1369E+00  -0.3266E-02
     ZXY         -0.2202E+02  -0.2881E-01  -0.2802E-01  -0.6684E-03
     ZXZ         -0.5140E-04  -0.6726E-07  -0.6540E-07  -0.1560E-08
     ZYX         -0.2202E+02  -0.2881E-01  -0.2802E-01  -0.6684E-03
     ZYY          0.1076E+03   0.1408E+00   0.1369E+00   0.3266E-02
     ZYZ         -0.5232E-03  -0.6847E-06  -0.6658E-06  -0.1588E-07
     ZZX         -0.5783E-04  -0.7568E-07  -0.7359E-07  -0.1756E-08
     ZZY          0.5099E-05   0.6673E-08   0.6488E-08   0.1548E-09
     ZZZ          0.1893E-02   0.2478E-05   0.2409E-05   0.5748E-07
 *******************************************************************************
 CHI(2) = BETA*2PI/V

 BETA AND CHI(2) IN A.U.:    [BETA] = M**(-1/2) L**(7/2) T
                             [CHI(2)] = 1/F
                             (L=LENGTH, M=MASS, T=TIME, F=FIELD INTENSITY)

 ELECTRIC SUSCEPTIBILITY IN THE SECOND HARMONIC GENERATION (SHG) CONVENTION IS:
                   d(A.U.)= 1/2 CHI(2)
                   d(MKS) = d(A.U.)/0.514220632 pm/V
                   d(CGS) = d(A.U.)/(4PI*1.7152535)  10**(-7) esu

 FIELD INTENSITY: 1 A.U. = 0.514220632*10**(11) V/m = 1.7152535*10**7 esu
 BEWARE:                CHI(2)=P/(E0*F**2)   (MKS)
                        CHI(2)=P/F**2        (CGS)
 WHERE P IS THE POLARIZATION VECTOR AND F IS THE APPLIED ELECTRIC FIELD.
 CONSISTENCY IS  PRESERVED BY MULTIPLYING THE CGS VALUE TIMES THE PERMITTIVITY
 OF THE VACUUM, E0 (CONVERSION FACTORS FROM www.physics.nist.gov/constants).
 IN PARENTHESIS: BETA BEFORE SYMMETRIZATION.

  SHG Effect beta(-2omega;omega,omega) with omega=   1.1653 eV


 SIZE OF GRID=    2030668
 TTTTTTTTTTTTTTTTTTTTTTTTTTTTTT MAKE_GRID2  TELAPSE   142839.10 TCPU   140788.56
 BECKE WEIGHT FUNCTION
 RADSAFE =     2.00
 TOLERANCES - DENSITY:10**- 6; POTENTIAL:10**- 9; GRID WGT:10**-14

 RADIAL INTEGRATION  - INTERVALS (POINTS,UPPER LIMIT):            1( 75,  4.0*R)

 ANGULAR INTEGRATION - INTERVALS (ACCURACY LEVEL [N. POINTS] UPPER LIMIT):
  1(  4[  86]   0.2)  2(  8[ 194]   0.5)  3( 12[ 350]   0.9)  4( 16[ 974]   3.5)
  5( 12[ 350]9999.0)

 SIZE OF GRID=    2030668
 TTTTTTTTTTTTTTTTTTTTTTTTTTTTTT MAKE_GRID2  TELAPSE   142841.39 TCPU   140790.84
 BECKE WEIGHT FUNCTION
 RADSAFE =     2.00
 TOLERANCES - DENSITY:10**- 6; POTENTIAL:10**- 9; GRID WGT:10**-14

 RADIAL INTEGRATION  - INTERVALS (POINTS,UPPER LIMIT):            1( 75,  4.0*R)

 ANGULAR INTEGRATION - INTERVALS (ACCURACY LEVEL [N. POINTS] UPPER LIMIT):
  1(  4[  86]   0.2)  2(  8[ 194]   0.5)  3( 12[ 350]   0.9)  4( 16[ 974]   3.5)
  5( 12[ 350]9999.0)
 *******************************************************************************

 SECOND HARMONIC GENERATION (SHG)  AND SECOND ELECTRIC SUSCEPTIBILITY (CHI(2))
 TENSORS (INDEPENDENT COMPONENTS)

BETA                                         CHI(2)       d(MKS)       d(cgs)
 *******************************************************************************

     XXX         -0.4058E-03  -0.5310E-06  -0.5163E-06  -0.1232E-07
     XXY         -0.1292E-02  -0.1691E-05  -0.1644E-05  -0.3923E-07
     XXZ         -0.1615E+03  -0.2113E+00  -0.2055E+00  -0.4903E-02
     XYX         -0.1292E-02  -0.1691E-05  -0.1644E-05  -0.3923E-07
     XYY          0.1118E-05   0.1463E-08   0.1423E-08   0.3395E-10
     XYZ          0.2283E+02   0.2988E-01   0.2905E-01   0.6932E-03
     XZX         -0.1615E+03  -0.2113E+00  -0.2055E+00  -0.4903E-02
     XZY          0.2283E+02   0.2988E-01   0.2905E-01   0.6932E-03
     XZZ         -0.6163E-04  -0.8065E-07  -0.7842E-07  -0.1871E-08
     YXX         -0.5256E-04  -0.6879E-07  -0.6688E-07  -0.1596E-08
     YXY          0.6050E-04   0.7917E-07   0.7698E-07   0.1836E-08
     YXZ          0.2284E+02   0.2988E-01   0.2906E-01   0.6932E-03
     YYX          0.6050E-04   0.7917E-07   0.7698E-07   0.1836E-08
     YYY         -0.2427E-02  -0.3176E-05  -0.3088E-05  -0.7368E-07
     YYZ          0.1615E+03   0.2113E+00   0.2055E+00   0.4903E-02
     YZX          0.2284E+02   0.2988E-01   0.2906E-01   0.6932E-03
     YZY          0.1615E+03   0.2113E+00   0.2055E+00   0.4903E-02
     YZZ         -0.2342E-04  -0.3065E-07  -0.2981E-07  -0.7111E-09
     ZXX         -0.1461E+03  -0.1912E+00  -0.1859E+00  -0.4436E-02
     ZXY          0.2614E+02   0.3420E-01   0.3326E-01   0.7934E-03
     ZXZ         -0.3590E-04  -0.4698E-07  -0.4568E-07  -0.1090E-08
     ZYX          0.2614E+02   0.3420E-01   0.3326E-01   0.7934E-03
     ZYY          0.1461E+03   0.1912E+00   0.1859E+00   0.4436E-02
     ZYZ         -0.5371E-03  -0.7028E-06  -0.6834E-06  -0.1630E-07
     ZZX         -0.3590E-04  -0.4698E-07  -0.4568E-07  -0.1090E-08
     ZZY         -0.5371E-03  -0.7028E-06  -0.6834E-06  -0.1630E-07
     ZZZ          0.4735E-02   0.6197E-05   0.6026E-05   0.1438E-06
 *******************************************************************************
 CHI(2) = BETA*2PI/V

 BETA AND CHI(2) IN A.U.:    [BETA] = M**(-1/2) L**(7/2) T
                             [CHI(2)] = 1/F
                             (L=LENGTH, M=MASS, T=TIME, F=FIELD INTENSITY)

 ELECTRIC SUSCEPTIBILITY IN THE SECOND HARMONIC GENERATION (SHG) CONVENTION IS:
                   d(A.U.)= 1/2 CHI(2)
                   d(MKS) = d(A.U.)/0.514220632 pm/V
                   d(CGS) = d(A.U.)/(4PI*1.7152535)  10**(-7) esu

 FIELD INTENSITY: 1 A.U. = 0.514220632*10**(11) V/m = 1.7152535*10**7 esu
 BEWARE:                CHI(2)=P/(E0*F**2)   (MKS)
                        CHI(2)=P/F**2        (CGS)
 WHERE P IS THE POLARIZATION VECTOR AND F IS THE APPLIED ELECTRIC FIELD.
 CONSISTENCY IS  PRESERVED BY MULTIPLYING THE CGS VALUE TIMES THE PERMITTIVITY
 OF THE VACUUM, E0 (CONVERSION FACTORS FROM www.physics.nist.gov/constants).
 IN PARENTHESIS: BETA BEFORE SYMMETRIZATION.

 *******************************************************************************


 GCALCO - MAX INDICES DIRECT LATTICE VECTOR    14    14    15
 NO.OF VECTORS CREATED 6999 STARS  487 RMAX   199.84368 BOHR

 CAPPA:IS1  3;IS2  3;IS3  3; K PTS MONK NET   6; SYMMOPS:K SPACE   8;G SPACE   4

 TTTTTTTTTTTTTTTTTTTTTTTTTTTTTT END         TELAPSE   142841.79 TCPU   140791.24
 EEEEEEEEEE TERMINATION  DATE 04 12 2023 TIME 23:28:15.7
NODE    0 CPU TIME =    140791.238
NODE    1 CPU TIME =    141387.030
NODE    2 CPU TIME =    141567.903
NODE    3 CPU TIME =    141553.017
NODE    4 CPU TIME =    141358.963
NODE    5 CPU TIME =    141498.812
NODE    6 CPU TIME =    141383.038
NODE    7 CPU TIME =    141517.099
NODE    8 CPU TIME =    141113.602
NODE    9 CPU TIME =    141333.314
NODE   10 CPU TIME =    140160.578
NODE   11 CPU TIME =    139866.708
NODE   12 CPU TIME =    139819.356
NODE   13 CPU TIME =    140193.845
NODE   14 CPU TIME =    140105.581
NODE   15 CPU TIME =    140199.886
NODE   16 CPU TIME =    139947.352
NODE   17 CPU TIME =    139841.860
NODE   18 CPU TIME =    140014.520
NODE   19 CPU TIME =    139953.190
NODE   20 CPU TIME =    139616.560
NODE   21 CPU TIME =    139930.026
NODE   22 CPU TIME =    139969.354
NODE   23 CPU TIME =    139738.215
    TOTAL CPU TIME =   3372861.047
trying normal rsh (/usr/bin/rsh)
exec: No such file or directory
trying normal rsh (/usr/bin/rsh)
exec: No such file or directory
trying normal rsh (/usr/bin/rsh)
exec: No such file or directory
trying normal rsh (/usr/bin/rsh)
exec: No such file or directory
