Loading crystal17/1.0.2/intel/19.0
  Loading requirement: intel/19.0 ompi/4.0.1/intel/19.0
 PROCESS            0  OF           24  WORKING
 PROCESS            1  OF           24  WORKING
 PROCESS            3  OF           24  WORKING
 PROCESS            4  OF           24  WORKING
 PROCESS            5  OF           24  WORKING
 PROCESS            6  OF           24  WORKING
 PROCESS            8  OF           24  WORKING
 PROCESS            9  OF           24  WORKING
 PROCESS           10  OF           24  WORKING
 PROCESS           11  OF           24  WORKING
 PROCESS           13  OF           24  WORKING
 PROCESS           14  OF           24  WORKING
 PROCESS           16  OF           24  WORKING
 PROCESS           17  OF           24  WORKING
 PROCESS           18  OF           24  WORKING
 PROCESS           20  OF           24  WORKING
 PROCESS           21  OF           24  WORKING
 PROCESS           22  OF           24  WORKING
 PROCESS           23  OF           24  WORKING
 PROCESS            2  OF           24  WORKING
 PROCESS            7  OF           24  WORKING
 PROCESS           15  OF           24  WORKING
 PROCESS           19  OF           24  WORKING
 PROCESS           12  OF           24  WORKING

         
 *******************************************************************************
 *                                                                             *
 *                               CRYSTAL17                                     *
 *                      public : 1.0.2 - March 1st, 2018                       *
 *                       HTTP://WWW.CRYSTAL.UNITO.IT                           *
 *                                                                             *
 *                              MAIN AUTHORS                                   *
 *                                                                             *
 *  R. DOVESI(1,11), V.R. SAUNDERS(2), C. ROETTI(1,11), R. ORLANDO(1,11),      *
 *  C.M. ZICOVICH-WILSON(1,3), F. PASCALE(4), B. CIVALLERI(1,11),              *
 *  K. DOLL(5), N.M. HARRISON(2,6), I.J. BUSH(7), Ph. D'ARCO(8),               *
 *  M. LLUNELL(9), M. CAUSA'(10), Y. NOEL(8), L. MASCHIO(1,11), A. ERBA(1,11)  *
 *  M. RE'RAT(14), S. CASASSA(1,11)                                            *
 *                                                                             *
 *        CONTRIBUTIONS TO THE CODE HAVE ALSO BEEN GIVEN BY                    *
 *                                                                             *
 *  M. FERRABONE(1,11), M. DE LA PIERRE(1,11), M. FERRERO(1,11),               *
 *  J. BAIMA(1,11), E. ALBANESE(1,11), M.F. PEINTINGER(12), R. BAST(13),       *
 *  B. KIRTMAN(15), V. LACIVITA(1,11), R. DEMICHELIS(1,16)                     *
 *  G. BRANDEBURG(17), S. SALUSTRO(1,11), G. SANSONE(1,11)                     *
 *  M.T. RUGGIERO(18)                                                          *
 *                                                                             *
 * (1) THEORETICAL CHEMISTRY GROUP - UNIVERSITA' DI TORINO - TORINO (ITALY)    *
 * (2) COMPUTATIONAL SCIENCE & ENGINEERING DEPARTMENT - STFC DARESBURY (UK)    *
 * (3) UNIVERSIDAD AUTONOMA DEL ESTADO DE MORELOS - CUERNAVACA (MEXICO)        *
 * (4) UNIVERSITE' DE LORRAINE - NANCY (FRANCE)                                *
 * (5) UNIVERSITAET STUTTGART- STUTTGART (GERMANY)                             *
 * (6) IMPERIAL COLLEGE - LONDON (UK)                                          *
 * (7) OXFORD E-RESEARCH CENTRE - OXFORD (UK)                                  *
 * (8) UPMC - SORBONNE UNIVERSITES - PARIS (FRANCE)                            *
 * (9) UNIVERSIDAD DE BARCELONA - BARCELONA (SPAIN)                            *
 *(10) UNIVERSITA' DI NAPOLI "FEDERICO II" - NAPOLI (ITALY)                    *
 *(11) NIS - NANOSTRUCTURED INTERFACES AND SURFACES - TORINO (ITALY)           *
 *(12) MPI FUER CHEMISCHE ENERGIEKONVERSION - MUELHEIM AN DER RUHR (GERMANY)   *
 *(13) UNIVERSITY OF TROMSO - TROMSO (NORWAY)                                  *
 *(14) UNIVERSITE' DE PAU ET DES PAYS DE L'ADOUR - PAU (FRANCE)                *
 *(15) UNIVERSITY OF CALIFORNIA SANTA BARBARA - SANTA BARBARA (USA)            *
 *(16) CURTIN UNIVERSITY - PERTH (AUSTRALIA)                                   *
 *(17) UNIVERSITY COLLEGE LONDON - LONDON (UK)                                 *
 *(18) CAMBRIDGE UNIVERSITY - CAMBRIDGE (UK)                                   *
 *                                                                             *
 *******************************************************************************
 EEEEEEEEEE STARTING  DATE 27 11 2023 TIME 06:40:54.5
 Z:\home\sanoj\Downloads\tmp_p\newconn.mol                                       

 CRYSTAL CALCULATION
 (INPUT ACCORDING TO THE INTERNATIONAL TABLES FOR X-RAY CRYSTALLOGRAPHY)
 CRYSTAL FAMILY                       :  TETRAGONAL  
 CRYSTAL CLASS  (GROTH - 1921)        :  TETRAGONAL DISPHENOIDAL              

 SPACE GROUP (NONCENTROSYMMETRIC)     :  I -4            

 LATTICE PARAMETERS  (ANGSTROMS AND DEGREES) - CONVENTIONAL CELL
        A           B           C        ALPHA        BETA       GAMMA
    10.42183    10.42183    12.66614    90.00000    90.00000    90.00000


 NUMBER OF IRREDUCIBLE ATOMS IN THE CONVENTIONAL CELL:   17

 INPUT COORDINATES

 ATOM AT. N.              COORDINATES
   1   1     7.589000000000E-02  7.523000000000E-01  3.570600000000E-01
   2   1     4.770100000000E-01  8.372300000000E-01  4.232100000000E-01
   3   1     3.699800000000E-01  4.578800000000E-01  3.735300000000E-01
   4   6     2.741400000000E-01  8.150100000000E-01  3.876500000000E-01
   5   6     2.548500000000E-01 -4.662000000000E-02  3.798000000000E-01
   6   6     1.759000000000E-01  7.248900000000E-01  3.704400000000E-01
   7   6     3.405400000000E-01  5.587100000000E-01  3.785800000000E-01
   8   6     3.999000000000E-01  7.700700000000E-01  4.039600000000E-01
   9   6     7.875000000000E-01  4.034600000000E-01  3.668700000000E-01
  10   7     3.426500000000E-01  3.371000000000E-02  3.364500000000E-01
  11   7     2.925000000000E-01  1.559300000000E-01  3.405100000000E-01
  12   7     1.524900000000E-01  2.376000000000E-02  4.097700000000E-01
  13   7     1.778500000000E-01  1.499600000000E-01  3.838100000000E-01
  14   7     4.327600000000E-01  6.459800000000E-01  3.979000000000E-01
  15   9     1.238900000000E-01  5.044600000000E-01  3.493100000000E-01
  16  30     0.000000000000E+00  5.000000000000E-01  7.500000000000E-01
  17  30     0.000000000000E+00  0.000000000000E+00  5.000000000000E-01

 *******************************************************************************

 << INFORMATION >>: FROM NOW ON, ALL COORDINATES REFER TO THE PRIMITIVE CELL

 *******************************************************************************

 LATTICE PARAMETERS  (ANGSTROMS AND DEGREES) - PRIMITIVE CELL
       A          B          C        ALPHA      BETA     GAMMA        VOLUME
    9.71674    9.71674    9.71674   115.13819 115.13819  98.64977    687.863159

 COORDINATES OF THE EQUIVALENT ATOMS (FRACTIONAL UNITS)

 N. ATOM EQUIV AT. N.          X                  Y                  Z

   1   1   1    1 H     1.09360000000E-01  4.32950000000E-01 -1.71810000000E-01
   2   1   2    1 H    -3.95240000000E-01  2.81170000000E-01  1.71810000000E-01
   3   1   3    1 H    -4.32950000000E-01  3.95240000000E-01 -3.23590000000E-01
   4   1   4    1 H    -2.81170000000E-01 -1.09360000000E-01  3.23590000000E-01

   5   2   1    1 H     2.60440000000E-01 -9.97800000000E-02  3.14240000000E-01
   6   2   2    1 H    -4.14020000000E-01 -5.38000000000E-02 -3.14240000000E-01
   7   2   3    1 H     9.97800000000E-02  4.14020000000E-01  3.60220000000E-01
   8   2   4    1 H     5.38000000000E-02 -2.60440000000E-01 -3.60220000000E-01

   9   3   1    1 H    -1.68590000000E-01 -2.56490000000E-01 -1.72140000000E-01
  10   3   2    1 H    -8.43500000000E-02  3.55000000000E-03  1.72140000000E-01
  11   3   3    1 H     2.56490000000E-01  8.43500000000E-02  8.79000000000E-02
  12   3   4    1 H    -3.55000000000E-03  1.68590000000E-01 -8.79000000000E-02

  13   4   1    6 C     2.02660000000E-01 -3.38210000000E-01  8.91500000000E-02
  14   4   2    6 C    -4.27360000000E-01  1.13510000000E-01 -8.91500000000E-02
  15   4   3    6 C     3.38210000000E-01  4.27360000000E-01 -4.59130000000E-01
  16   4   4    6 C    -1.13510000000E-01 -2.02660000000E-01  4.59130000000E-01

  17   5   1    6 C     3.33180000000E-01 -3.65350000000E-01  2.08230000000E-01
  18   5   2    6 C     4.26420000000E-01  1.24950000000E-01 -2.08230000000E-01
  19   5   3    6 C     3.65350000000E-01 -4.26420000000E-01 -3.01470000000E-01
  20   5   4    6 C    -1.24950000000E-01 -3.33180000000E-01  3.01470000000E-01

  21   6   1    6 C     9.53300000000E-02 -4.53660000000E-01 -9.92100000000E-02
  22   6   2    6 C    -3.54450000000E-01  1.94540000000E-01  9.92100000000E-02
  23   6   3    6 C     4.53660000000E-01  3.54450000000E-01 -4.51010000000E-01
  24   6   4    6 C    -1.94540000000E-01 -9.53300000000E-02  4.51010000000E-01

  25   7   1    6 C    -6.27100000000E-02 -2.80880000000E-01 -1.00750000000E-01
  26   7   2    6 C    -1.80130000000E-01  3.80400000000E-02  1.00750000000E-01
  27   7   3    6 C     2.80880000000E-01  1.80130000000E-01  2.18170000000E-01
  28   7   4    6 C    -3.80400000000E-02  6.27100000000E-02 -2.18170000000E-01

  29   8   1    6 C     1.74030000000E-01 -1.96140000000E-01  1.69970000000E-01
  30   8   2    6 C    -3.66110000000E-01  4.06000000000E-03 -1.69970000000E-01
  31   8   3    6 C     1.96140000000E-01  3.66110000000E-01  3.70170000000E-01
  32   8   4    6 C    -4.06000000000E-03 -1.74030000000E-01 -3.70170000000E-01

  33   9   1    6 C    -2.29670000000E-01  1.54370000000E-01  1.90960000000E-01
  34   9   2    6 C    -3.65900000000E-02 -4.20630000000E-01 -1.90960000000E-01
  35   9   3    6 C    -1.54370000000E-01  3.65900000000E-02 -3.84040000000E-01
  36   9   4    6 C     4.20630000000E-01  2.29670000000E-01  3.84040000000E-01

  37  10   1    7 N     3.70160000000E-01 -3.20900000000E-01  3.76360000000E-01
  38  10   2    7 N     3.02740000000E-01 -6.20000000000E-03 -3.76360000000E-01
  39  10   3    7 N     3.20900000000E-01 -3.02740000000E-01 -3.08940000000E-01
  40  10   4    7 N     6.20000000000E-03 -3.70160000000E-01  3.08940000000E-01

  41  11   1    7 N     4.96440000000E-01 -3.66990000000E-01  4.48430000000E-01
  42  11   2    7 N     1.84580000000E-01  4.80100000000E-02 -4.48430000000E-01
  43  11   3    7 N     3.66990000000E-01 -1.84580000000E-01 -1.36570000000E-01
  44  11   4    7 N    -4.80100000000E-02 -4.96440000000E-01  1.36570000000E-01

  45  12   1    7 N     4.33530000000E-01 -4.37740000000E-01  1.76250000000E-01
  46  12   2    7 N     3.86010000000E-01  2.57280000000E-01 -1.76250000000E-01
  47  12   3    7 N     4.37740000000E-01 -3.86010000000E-01 -1.28730000000E-01
  48  12   4    7 N    -2.57280000000E-01 -4.33530000000E-01  1.28730000000E-01

  49  13   1    7 N    -4.66230000000E-01 -4.38340000000E-01  3.27810000000E-01
  50  13   2    7 N     2.33850000000E-01  2.05960000000E-01 -3.27810000000E-01
  51  13   3    7 N     4.38340000000E-01 -2.33850000000E-01 -2.78900000000E-02
  52  13   4    7 N    -2.05960000000E-01  4.66230000000E-01  2.78900000000E-02

  53  14   1    7 N     4.38800000000E-02 -1.69340000000E-01  7.87400000000E-02
  54  14   2    7 N    -2.48080000000E-01 -3.48600000000E-02 -7.87400000000E-02
  55  14   3    7 N     1.69340000000E-01  2.48080000000E-01  2.13220000000E-01
  56  14   4    7 N     3.48600000000E-02 -4.38800000000E-02 -2.13220000000E-01

  57  15   1    9 F    -1.46230000000E-01  4.73200000000E-01 -3.71650000000E-01
  58  15   2    9 F    -1.55150000000E-01  2.25420000000E-01  3.71650000000E-01
  59  15   3    9 F    -4.73200000000E-01  1.55150000000E-01  3.80570000000E-01
  60  15   4    9 F    -2.25420000000E-01  1.46230000000E-01 -3.80570000000E-01

  61  16   1   30 ZN    2.50000000000E-01 -2.50000000000E-01 -5.00000000000E-01

  62  17   1   30 ZN   -5.00000000000E-01 -5.00000000000E-01  0.00000000000E+00

 NUMBER OF SYMMETRY OPERATORS         :    4
 *******************************************************************************
 * GEOMETRY EDITING - INPUT COORDINATES ARE GIVEN IN ANGSTROM         
 *******************************************************************************

 GEOMETRY NOW FULLY CONSISTENT WITH THE GROUP

 GCALCO - MAX INDICES DIRECT LATTICE VECTOR    14    14    16
 NO.OF VECTORS CREATED 6999 STARS  484 RMAX   198.64190 BOHR

 GEOMETRY FOR WAVE FUNCTION - DIMENSIONALITY OF THE SYSTEM    3
 (NON PERIODIC DIRECTION: LATTICE PARAMETER FORMALLY SET TO 500)
 *******************************************************************************
 LATTICE PARAMETERS (ANGSTROMS AND DEGREES) - BOHR = 0.5291772083 ANGSTROM
 PRIMITIVE CELL - CENTRING CODE 6/0 VOLUME=   687.863159 - DENSITY  1.893 g/cm^3
         A              B              C           ALPHA      BETA       GAMMA 
     9.71673918     9.71673918     9.71673918   115.138190 115.138190  98.649769
 *******************************************************************************
 ATOMS IN THE ASYMMETRIC UNIT   17 - ATOMS IN THE UNIT CELL:   62
     ATOM                 X/A                 Y/B                 Z/C    
 *******************************************************************************
      1 T   1 H     1.093600000000E-01  4.329500000000E-01 -1.718100000000E-01
      2 F   1 H    -3.952400000000E-01  2.811700000000E-01  1.718100000000E-01
      3 F   1 H    -4.329500000000E-01  3.952400000000E-01 -3.235900000000E-01
      4 F   1 H    -2.811700000000E-01 -1.093600000000E-01  3.235900000000E-01
      5 T   1 H     2.604400000000E-01 -9.978000000000E-02  3.142400000000E-01
      6 F   1 H    -4.140200000000E-01 -5.380000000000E-02 -3.142400000000E-01
      7 F   1 H     9.978000000000E-02  4.140200000000E-01  3.602200000000E-01
      8 F   1 H     5.380000000000E-02 -2.604400000000E-01 -3.602200000000E-01
      9 T   1 H    -1.685900000000E-01 -2.564900000000E-01 -1.721400000000E-01
     10 F   1 H    -8.435000000000E-02  3.550000000000E-03  1.721400000000E-01
     11 F   1 H     2.564900000000E-01  8.435000000000E-02  8.790000000000E-02
     12 F   1 H    -3.550000000000E-03  1.685900000000E-01 -8.790000000000E-02
     13 T   6 C     2.026600000000E-01 -3.382100000000E-01  8.915000000000E-02
     14 F   6 C    -4.273600000000E-01  1.135100000000E-01 -8.915000000000E-02
     15 F   6 C     3.382100000000E-01  4.273600000000E-01 -4.591300000000E-01
     16 F   6 C    -1.135100000000E-01 -2.026600000000E-01  4.591300000000E-01
     17 T   6 C     3.331800000000E-01 -3.653500000000E-01  2.082300000000E-01
     18 F   6 C     4.264200000000E-01  1.249500000000E-01 -2.082300000000E-01
     19 F   6 C     3.653500000000E-01 -4.264200000000E-01 -3.014700000000E-01
     20 F   6 C    -1.249500000000E-01 -3.331800000000E-01  3.014700000000E-01
     21 T   6 C     9.533000000000E-02 -4.536600000000E-01 -9.921000000000E-02
     22 F   6 C    -3.544500000000E-01  1.945400000000E-01  9.921000000000E-02
     23 F   6 C     4.536600000000E-01  3.544500000000E-01 -4.510100000000E-01
     24 F   6 C    -1.945400000000E-01 -9.533000000000E-02  4.510100000000E-01
     25 T   6 C    -6.271000000000E-02 -2.808800000000E-01 -1.007500000000E-01
     26 F   6 C    -1.801300000000E-01  3.804000000000E-02  1.007500000000E-01
     27 F   6 C     2.808800000000E-01  1.801300000000E-01  2.181700000000E-01
     28 F   6 C    -3.804000000000E-02  6.271000000000E-02 -2.181700000000E-01
     29 T   6 C     1.740300000000E-01 -1.961400000000E-01  1.699700000000E-01
     30 F   6 C    -3.661100000000E-01  4.060000000000E-03 -1.699700000000E-01
     31 F   6 C     1.961400000000E-01  3.661100000000E-01  3.701700000000E-01
     32 F   6 C    -4.060000000000E-03 -1.740300000000E-01 -3.701700000000E-01
     33 T   6 C    -2.296700000000E-01  1.543700000000E-01  1.909600000000E-01
     34 F   6 C    -3.659000000000E-02 -4.206300000000E-01 -1.909600000000E-01
     35 F   6 C    -1.543700000000E-01  3.659000000000E-02 -3.840400000000E-01
     36 F   6 C     4.206300000000E-01  2.296700000000E-01  3.840400000000E-01
     37 T   7 N     3.701600000000E-01 -3.209000000000E-01  3.763600000000E-01
     38 F   7 N     3.027400000000E-01 -6.200000000000E-03 -3.763600000000E-01
     39 F   7 N     3.209000000000E-01 -3.027400000000E-01 -3.089400000000E-01
     40 F   7 N     6.200000000000E-03 -3.701600000000E-01  3.089400000000E-01
     41 T   7 N     4.964400000000E-01 -3.669900000000E-01  4.484300000000E-01
     42 F   7 N     1.845800000000E-01  4.801000000000E-02 -4.484300000000E-01
     43 F   7 N     3.669900000000E-01 -1.845800000000E-01 -1.365700000000E-01
     44 F   7 N    -4.801000000000E-02 -4.964400000000E-01  1.365700000000E-01
     45 T   7 N     4.335300000000E-01 -4.377400000000E-01  1.762500000000E-01
     46 F   7 N     3.860100000000E-01  2.572800000000E-01 -1.762500000000E-01
     47 F   7 N     4.377400000000E-01 -3.860100000000E-01 -1.287300000000E-01
     48 F   7 N    -2.572800000000E-01 -4.335300000000E-01  1.287300000000E-01
     49 T   7 N    -4.662300000000E-01 -4.383400000000E-01  3.278100000000E-01
     50 F   7 N     2.338500000000E-01  2.059600000000E-01 -3.278100000000E-01
     51 F   7 N     4.383400000000E-01 -2.338500000000E-01 -2.789000000000E-02
     52 F   7 N    -2.059600000000E-01  4.662300000000E-01  2.789000000000E-02
     53 T   7 N     4.388000000000E-02 -1.693400000000E-01  7.874000000000E-02
     54 F   7 N    -2.480800000000E-01 -3.486000000000E-02 -7.874000000000E-02
     55 F   7 N     1.693400000000E-01  2.480800000000E-01  2.132200000000E-01
     56 F   7 N     3.486000000000E-02 -4.388000000000E-02 -2.132200000000E-01
     57 T   9 F    -1.462300000000E-01  4.732000000000E-01 -3.716500000000E-01
     58 F   9 F    -1.551500000000E-01  2.254200000000E-01  3.716500000000E-01
     59 F   9 F    -4.732000000000E-01  1.551500000000E-01  3.805700000000E-01
     60 F   9 F    -2.254200000000E-01  1.462300000000E-01 -3.805700000000E-01
     61 T  30 ZN    2.500000000000E-01 -2.500000000000E-01  5.000000000000E-01
     62 T  30 ZN   -5.000000000000E-01  5.000000000000E-01  0.000000000000E+00

 TRANSFORMATION MATRIX PRIMITIVE-CRYSTALLOGRAPHIC CELL
  0.0000  1.0000  1.0000  1.0000  0.0000  1.0000  1.0000  1.0000  0.0000

 *******************************************************************************
 CRYSTALLOGRAPHIC CELL (VOLUME=       1375.72631851)
         A              B              C           ALPHA      BETA       GAMMA 
    10.42182743    10.42182743    12.66614018    90.000000  90.000000  90.000000

 COORDINATES IN THE CRYSTALLOGRAPHIC CELL
     ATOM                 X/A                 Y/B                 Z/C    
 *******************************************************************************
      1 T   1 H     7.589000000000E-02 -2.477000000000E-01  3.570600000000E-01
      2 F   1 H    -7.589000000000E-02  2.477000000000E-01  3.570600000000E-01
      3 F   1 H    -2.477000000000E-01 -7.589000000000E-02 -3.570600000000E-01
      4 F   1 H     2.477000000000E-01  7.589000000000E-02 -3.570600000000E-01
      5 T   1 H    -2.299000000000E-02  3.372300000000E-01 -7.679000000000E-02
      6 F   1 H     2.299000000000E-02 -3.372300000000E-01 -7.679000000000E-02
      7 F   1 H     3.372300000000E-01  2.299000000000E-02  7.679000000000E-02
      8 F   1 H    -3.372300000000E-01 -2.299000000000E-02  7.679000000000E-02
      9 T   1 H    -1.300200000000E-01 -4.212000000000E-02 -1.264700000000E-01
     10 F   1 H     1.300200000000E-01  4.212000000000E-02 -1.264700000000E-01
     11 F   1 H    -4.212000000000E-02  1.300200000000E-01  1.264700000000E-01
     12 F   1 H     4.212000000000E-02 -1.300200000000E-01  1.264700000000E-01
     13 T   6 C    -2.258600000000E-01  3.150100000000E-01 -1.123500000000E-01
     14 F   6 C     2.258600000000E-01 -3.150100000000E-01 -1.123500000000E-01
     15 F   6 C     3.150100000000E-01  2.258600000000E-01  1.123500000000E-01
     16 F   6 C    -3.150100000000E-01 -2.258600000000E-01  1.123500000000E-01
     17 T   6 C     2.548500000000E-01 -4.662000000000E-02  3.798000000000E-01
     18 F   6 C    -2.548500000000E-01  4.662000000000E-02  3.798000000000E-01
     19 F   6 C    -4.662000000000E-02 -2.548500000000E-01 -3.798000000000E-01
     20 F   6 C     4.662000000000E-02  2.548500000000E-01 -3.798000000000E-01
     21 T   6 C    -3.241000000000E-01  2.248900000000E-01 -1.295600000000E-01
     22 F   6 C     3.241000000000E-01 -2.248900000000E-01 -1.295600000000E-01
     23 F   6 C     2.248900000000E-01  3.241000000000E-01  1.295600000000E-01
     24 F   6 C    -2.248900000000E-01 -3.241000000000E-01  1.295600000000E-01
     25 T   6 C    -1.594600000000E-01  5.871000000000E-02 -1.214200000000E-01
     26 F   6 C     1.594600000000E-01 -5.871000000000E-02 -1.214200000000E-01
     27 F   6 C     5.871000000000E-02  1.594600000000E-01  1.214200000000E-01
     28 F   6 C    -5.871000000000E-02 -1.594600000000E-01  1.214200000000E-01
     29 T   6 C    -1.001000000000E-01  2.700700000000E-01 -9.604000000000E-02
     30 F   6 C     1.001000000000E-01 -2.700700000000E-01 -9.604000000000E-02
     31 F   6 C     2.700700000000E-01  1.001000000000E-01  9.604000000000E-02
     32 F   6 C    -2.700700000000E-01 -1.001000000000E-01  9.604000000000E-02
     33 T   6 C     2.875000000000E-01 -9.654000000000E-02 -1.331300000000E-01
     34 F   6 C    -2.875000000000E-01  9.654000000000E-02 -1.331300000000E-01
     35 F   6 C    -9.654000000000E-02 -2.875000000000E-01  1.331300000000E-01
     36 F   6 C     9.654000000000E-02  2.875000000000E-01  1.331300000000E-01
     37 T   7 N    -1.573500000000E-01 -4.662900000000E-01 -1.635500000000E-01
     38 F   7 N     1.573500000000E-01  4.662900000000E-01 -1.635500000000E-01
     39 F   7 N    -4.662900000000E-01  1.573500000000E-01  1.635500000000E-01
     40 F   7 N     4.662900000000E-01 -1.573500000000E-01  1.635500000000E-01
     41 T   7 N    -2.075000000000E-01 -3.440700000000E-01 -1.594900000000E-01
     42 F   7 N     2.075000000000E-01  3.440700000000E-01 -1.594900000000E-01
     43 F   7 N    -3.440700000000E-01  2.075000000000E-01  1.594900000000E-01
     44 F   7 N     3.440700000000E-01 -2.075000000000E-01  1.594900000000E-01
     45 T   7 N     1.524900000000E-01  2.376000000000E-02  4.097700000000E-01
     46 F   7 N    -1.524900000000E-01 -2.376000000000E-02  4.097700000000E-01
     47 F   7 N     2.376000000000E-02 -1.524900000000E-01 -4.097700000000E-01
     48 F   7 N    -2.376000000000E-02  1.524900000000E-01 -4.097700000000E-01
     49 T   7 N    -3.221500000000E-01 -3.500400000000E-01 -1.161900000000E-01
     50 F   7 N     3.221500000000E-01  3.500400000000E-01 -1.161900000000E-01
     51 F   7 N    -3.500400000000E-01  3.221500000000E-01  1.161900000000E-01
     52 F   7 N     3.500400000000E-01 -3.221500000000E-01  1.161900000000E-01
     53 T   7 N    -6.724000000000E-02  1.459800000000E-01 -1.021000000000E-01
     54 F   7 N     6.724000000000E-02 -1.459800000000E-01 -1.021000000000E-01
     55 F   7 N     1.459800000000E-01  6.724000000000E-02  1.021000000000E-01
     56 F   7 N    -1.459800000000E-01 -6.724000000000E-02  1.021000000000E-01
     57 T   9 F    -3.761100000000E-01  4.460000000000E-03 -1.506900000000E-01
     58 F   9 F     3.761100000000E-01 -4.460000000000E-03 -1.506900000000E-01
     59 F   9 F     4.460000000000E-03  3.761100000000E-01  1.506900000000E-01
     60 F   9 F    -4.460000000000E-03 -3.761100000000E-01  1.506900000000E-01
     61 T  30 ZN   -5.000000000000E-01 -4.509801948957E-17  2.500000000000E-01
     62 T  30 ZN    0.000000000000E+00  0.000000000000E+00  5.000000000000E-01

 T = ATOM BELONGING TO THE ASYMMETRIC UNIT

 ****    4 SYMMOPS - TRANSLATORS IN FRACTIONAL UNITS
 **** MATRICES AND TRANSLATORS IN THE CRYSTALLOGRAPHIC REFERENCE FRAME
   V INV                    ROTATION MATRICES                   TRANSLATORS
   1   1  1.00  0.00  0.00  0.00  1.00  0.00  0.00  0.00  1.00  0.00  0.00  0.00
   2   2  0.00  1.00 -1.00  1.00 -0.00 -1.00  0.00 -0.00 -1.00  0.00  0.00  0.00
   3   4  0.00 -1.00  0.00 -0.00 -1.00  1.00  1.00 -1.00 -0.00  0.00  0.00  0.00
   4   3 -1.00  0.00  1.00 -1.00 -0.00  0.00 -1.00  1.00  0.00  0.00  0.00  0.00

 DIRECT LATTICE VECTORS CARTESIAN COMPONENTS (ANGSTROM)
          X                    Y                    Z
  -0.521091371560E+01   0.521091371560E+01   0.633307009240E+01
   0.521091371560E+01  -0.521091371560E+01   0.633307009240E+01
   0.521091371560E+01   0.521091371560E+01  -0.633307009240E+01


 CARTESIAN COORDINATES - PRIMITIVE CELL
 *******************************************************************************
 *      ATOM          X(ANGSTROM)         Y(ANGSTROM)         Z(ANGSTROM)
 *******************************************************************************
    1     1 H     7.909124837538E-01 -2.581486654708E+00  4.522572014385E+00
    2     1 H    -7.909124837538E-01  2.581486654708E+00  4.522572014385E+00
    3     1 H    -2.581486654708E+00 -7.909124837538E-01 -4.522572014385E+00
    4     1 H     2.581486654708E+00  7.909124837538E-01 -4.522572014385E+00
    5     1 H    -2.395978126433E-01  3.514552864624E+00 -9.726329047908E-01
    6     1 H     2.395978126433E-01 -3.514552864624E+00 -9.726329047908E-01
    7     1 H     3.514552864624E+00  2.395978126433E-01  9.726329047908E-01
    8     1 H    -3.514552864624E+00 -2.395978126433E-01  9.726329047908E-01
    9     1 H    -1.355046002605E+00 -4.389673714021E-01 -1.601886749172E+00
   10     1 H     1.355046002605E+00  4.389673714021E-01 -1.601886749172E+00
   11     1 H    -4.389673714021E-01  1.355046002605E+00  1.601886749172E+00
   12     1 H     4.389673714021E-01 -1.355046002605E+00  1.601886749172E+00
   13     6 C    -2.353873943611E+00  3.282979859102E+00 -1.423040849762E+00
   14     6 C     2.353873943611E+00 -3.282979859102E+00 -1.423040849762E+00
   15     6 C     3.282979859102E+00  2.353873943611E+00  1.423040849762E+00
   16     6 C    -3.282979859102E+00 -2.353873943611E+00  1.423040849762E+00
   17     6 C     2.656002720841E+00 -4.858655948425E-01  4.810600042187E+00
   18     6 C    -2.656002720841E+00  4.858655948425E-01  4.810600042187E+00
   19     6 C    -4.858655948425E-01 -2.656002720841E+00 -4.810600042187E+00
   20     6 C     4.858655948425E-01  2.656002720841E+00 -4.810600042187E+00
   21     6 C    -3.377714270452E+00  2.343764771003E+00 -1.641025122343E+00
   22     6 C     3.377714270452E+00 -2.343764771003E+00 -1.641025122343E+00
   23     6 C     2.343764771003E+00  3.377714270452E+00  1.641025122343E+00
   24     6 C    -2.343764771003E+00 -3.377714270452E+00  1.641025122343E+00
   25     6 C    -1.661864602179E+00  6.118654884858E-01 -1.537922741238E+00
   26     6 C     1.661864602179E+00 -6.118654884858E-01 -1.537922741238E+00
   27     6 C     6.118654884858E-01  1.661864602179E+00  1.537922741238E+00
   28     6 C    -6.118654884858E-01 -1.661864602179E+00  1.537922741238E+00
   29     6 C    -1.043224925863E+00  2.814622934344E+00 -1.216456103348E+00
   30     6 C     1.043224925863E+00 -2.814622934344E+00 -1.216456103348E+00
   31     6 C     2.814622934344E+00  1.043224925863E+00  1.216456103348E+00
   32     6 C    -2.814622934344E+00 -1.043224925863E+00  1.216456103348E+00
   33     6 C     2.996275386470E+00 -1.006123220208E+00 -1.686243242802E+00
   34     6 C    -2.996275386470E+00  1.006123220208E+00 -1.686243242802E+00
   35     6 C    -1.006123220208E+00 -2.996275386470E+00  1.686243242802E+00
   36     6 C     1.006123220208E+00  2.996275386470E+00  1.686243242802E+00
   37     7 N    -1.639874546299E+00 -4.859593912894E+00 -2.071547227224E+00
   38     7 N     1.639874546299E+00  4.859593912894E+00 -2.071547227224E+00
   39     7 N    -4.859593912894E+00  1.639874546299E+00  2.071547227224E+00
   40     7 N     4.859593912894E+00 -1.639874546299E+00  2.071547227224E+00
   41     7 N    -2.162529191974E+00 -3.585838164253E+00 -2.020122698074E+00
   42     7 N     2.162529191974E+00  3.585838164253E+00 -2.020122698074E+00
   43     7 N    -3.585838164253E+00  2.162529191974E+00  2.020122698074E+00
   44     7 N     3.585838164253E+00 -2.162529191974E+00  2.020122698074E+00
   45     7 N     1.589224464984E+00  2.476226197653E-01  5.190204263525E+00
   46     7 N    -1.589224464984E+00 -2.476226197653E-01  5.190204263525E+00
   47     7 N     2.476226197653E-01 -1.589224464984E+00 -5.190204263525E+00
   48     7 N    -2.476226197653E-01  1.589224464984E+00 -5.190204263525E+00
   49     7 N    -3.357391706961E+00 -3.648056474017E+00 -1.471678828072E+00
   50     7 N     3.357391706961E+00  3.648056474017E+00 -1.471678828072E+00
   51     7 N    -3.648056474017E+00  3.357391706961E+00  1.471678828072E+00
   52     7 N     3.648056474017E+00 -3.357391706961E+00  1.471678828072E+00
   53     7 N    -7.007636764739E-01  1.521378368407E+00 -1.293212912868E+00
   54     7 N     7.007636764739E-01 -1.521378368407E+00 -1.293212912868E+00
   55     7 N     1.521378368407E+00  7.007636764739E-01  1.293212912868E+00
   56     7 N    -1.521378368407E+00 -7.007636764739E-01  1.293212912868E+00
   57     9 F    -3.919753515149E+00  4.648135034315E-02 -1.908660664448E+00
   58     9 F     3.919753515149E+00 -4.648135034315E-02 -1.908660664448E+00
   59     9 F     4.648135034315E-02  3.919753515149E+00  1.908660664448E+00
   60     9 F    -4.648135034315E-02 -3.919753515149E+00  1.908660664448E+00
   61    30 ZN    5.210913715600E+00 -4.700037766092E-16 -9.499605138600E+00
   62    30 ZN    0.000000000000E+00  0.000000000000E+00  6.333070092400E+00

 *******************************************************************************
 STARTING BASIS SET HANDLING 
 *******************************************************************************

 Loading internal basis set: POB-DZVPP           

 Please cite in your publication:
 Peintinger, M. F., Oliveira, D. V. and Bredow, T. (2013), Generally applicable 
 solid-state Gaussian basis sets, in preparation                                
                                                                                
                    

 *******************************************************************************
 LOCAL ATOMIC FUNCTIONS BASIS SET
 *******************************************************************************
   ATOM   X(AU)   Y(AU)   Z(AU)  N. TYPE  EXPONENT  S COEF   P COEF   D/F/G COEF
 *******************************************************************************
   1 H    1.495  -4.878   8.546
                                  1 S  
                                         2.263E+01 1.441E-02 0.000E+00 0.000E+00
                                         3.236E+00 1.072E-01 0.000E+00 0.000E+00
                                         7.304E-01 3.846E-01 0.000E+00 0.000E+00
                                  2 S  
                                         1.417E-01 1.000E+00 0.000E+00 0.000E+00
                           3-     5 P  
                                         3.944E-01 0.000E+00 1.000E+00 0.000E+00
                           6-     8 P  
                                         1.006E-01 0.000E+00 1.000E+00 0.000E+00
   2 H   -1.495   4.878   8.546
   3 H   -4.878  -1.495  -8.546
   4 H    4.878   1.495  -8.546
   5 H   -0.453   6.642  -1.838
   6 H    0.453  -6.642  -1.838
   7 H    6.642   0.453   1.838
   8 H   -6.642  -0.453   1.838
   9 H   -2.561  -0.830  -3.027
  10 H    2.561   0.830  -3.027
  11 H   -0.830   2.561   3.027
  12 H    0.830  -2.561   3.027
  13 C   -4.448   6.204  -2.689
                                 97 S  
                                         1.238E+03 5.457E-03 0.000E+00 0.000E+00
                                         1.863E+02 4.064E-02 0.000E+00 0.000E+00
                                         4.225E+01 1.803E-01 0.000E+00 0.000E+00
                                         1.168E+01 4.632E-01 0.000E+00 0.000E+00
                                         3.593E+00 4.409E-01 0.000E+00 0.000E+00
                                 98 S  
                                         5.281E+00 1.000E+00 0.000E+00 0.000E+00
                                 99 S  
                                         4.447E-01 1.000E+00 0.000E+00 0.000E+00
                         100-   102 P  
                                         9.468E+00 0.000E+00 3.839E-02 0.000E+00
                                         2.010E+00 0.000E+00 2.112E-01 0.000E+00
                                         5.477E-01 0.000E+00 5.133E-01 0.000E+00
                         103-   105 P  
                                         1.604E-01 0.000E+00 1.000E+00 0.000E+00
                         106-   110 D  
                                         6.070E-01 0.000E+00 0.000E+00 1.000E+00
                         111-   115 D  
                                         2.939E-01 0.000E+00 0.000E+00 1.000E+00
  14 C    4.448  -6.204  -2.689
  15 C    6.204   4.448   2.689
  16 C   -6.204  -4.448   2.689
  17 C    5.019  -0.918   9.091
  18 C   -5.019   0.918   9.091
  19 C   -0.918  -5.019  -9.091
  20 C    0.918   5.019  -9.091
  21 C   -6.383   4.429  -3.101
  22 C    6.383  -4.429  -3.101
  23 C    4.429   6.383   3.101
  24 C   -4.429  -6.383   3.101
  25 C   -3.140   1.156  -2.906
  26 C    3.140  -1.156  -2.906
  27 C    1.156   3.140   2.906
  28 C   -1.156  -3.140   2.906
  29 C   -1.971   5.319  -2.299
  30 C    1.971  -5.319  -2.299
  31 C    5.319   1.971   2.299
  32 C   -5.319  -1.971   2.299
  33 C    5.662  -1.901  -3.187
  34 C   -5.662   1.901  -3.187
  35 C   -1.901  -5.662   3.187
  36 C    1.901   5.662   3.187
  37 N   -3.099  -9.183  -3.915
                                553 S  
                                         1.713E+03-5.393E-03 0.000E+00 0.000E+00
                                         2.576E+02-4.022E-02 0.000E+00 0.000E+00
                                         5.846E+01-1.793E-01 0.000E+00 0.000E+00
                                         1.620E+01-4.638E-01 0.000E+00 0.000E+00
                                         5.005E+00-4.417E-01 0.000E+00 0.000E+00
                                554 S  
                                         6.217E-01 1.000E+00 0.000E+00 0.000E+00
                                555 S  
                                         2.921E-01 1.000E+00 0.000E+00 0.000E+00
                         556-   558 P  
                                         1.357E+01 0.000E+00-4.007E-02 0.000E+00
                                         2.926E+00 0.000E+00-2.181E-01 0.000E+00
                                         7.993E-01 0.000E+00-5.129E-01 0.000E+00
                         559-   561 P  
                                         2.244E-01 0.000E+00 1.000E+00 0.000E+00
                         562-   566 D  
                                         3.118E-01 0.000E+00 0.000E+00 1.000E+00
  38 N    3.099   9.183  -3.915
  39 N   -9.183   3.099   3.915
  40 N    9.183  -3.099   3.915
  41 N   -4.087  -6.776  -3.817
  42 N    4.087   6.776  -3.817
  43 N   -6.776   4.087   3.817
  44 N    6.776  -4.087   3.817
  45 N    3.003   0.468   9.808
  46 N   -3.003  -0.468   9.808
  47 N    0.468  -3.003  -9.808
  48 N   -0.468   3.003  -9.808
  49 N   -6.345  -6.894  -2.781
  50 N    6.345   6.894  -2.781
  51 N   -6.894   6.345   2.781
  52 N    6.894  -6.345   2.781
  53 N   -1.324   2.875  -2.444
  54 N    1.324  -2.875  -2.444
  55 N    2.875   1.324   2.444
  56 N   -2.875  -1.324   2.444
  57 F   -7.407   0.088  -3.607
                                833 S  
                                         2.895E+03-5.341E-03 0.000E+00 0.000E+00
                                         4.354E+02-3.990E-02 0.000E+00 0.000E+00
                                         9.884E+01-1.791E-01 0.000E+00 0.000E+00
                                         2.749E+01-4.676E-01 0.000E+00 0.000E+00
                                         8.541E+00-4.465E-01 0.000E+00 0.000E+00
                                834 S  
                                         1.123E+00 1.000E+00 0.000E+00 0.000E+00
                                835 S  
                                         3.743E-01 1.000E+00 0.000E+00 0.000E+00
                         836-   838 P  
                                         2.270E+01 0.000E+00-4.521E-02 0.000E+00
                                         4.987E+00 0.000E+00-2.375E-01 0.000E+00
                                         1.349E+00 0.000E+00-5.129E-01 0.000E+00
                         839-   841 P  
                                         3.474E-01 0.000E+00 1.000E+00 0.000E+00
                         842-   846 D  
                                         9.203E-01 0.000E+00 0.000E+00 1.000E+00
                         847-   851 D  
                                         3.977E-01 0.000E+00 0.000E+00 1.000E+00
  58 F    7.407  -0.088  -3.607
  59 F    0.088   7.407   3.607
  60 F   -0.088  -7.407   3.607
  61 ZN   9.847  -0.000 -17.952
                                909 S  
                                         8.200E+04 1.421E-03 0.000E+00 0.000E+00
                                         1.231E+04 1.089E-02 0.000E+00 0.000E+00
                                         2.801E+03 5.406E-02 0.000E+00 0.000E+00
                                         7.910E+02 1.885E-01 0.000E+00 0.000E+00
                                         2.576E+02 3.835E-01 0.000E+00 0.000E+00
                                         8.881E+01 2.972E-01 0.000E+00 0.000E+00
                                910 S  
                                         1.719E+02-1.105E-01 0.000E+00 0.000E+00
                                         2.030E+01 6.461E-01 0.000E+00 0.000E+00
                                         8.346E+00 4.422E-01 0.000E+00 0.000E+00
                                911 S  
                                         1.485E+01-2.271E-01 0.000E+00 0.000E+00
                                         2.450E+00 7.243E-01 0.000E+00 0.000E+00
                                         9.985E-01 4.484E-01 0.000E+00 0.000E+00
                                912 S  
                                         1.493E+00 1.000E+00 0.000E+00 0.000E+00
                                913 S  
                                         1.830E-01 1.000E+00 0.000E+00 0.000E+00
                         914-   916 P  
                                         1.072E+03 0.000E+00 9.277E-03 0.000E+00
                                         2.527E+02 0.000E+00 6.954E-02 0.000E+00
                                         8.010E+01 0.000E+00 2.716E-01 0.000E+00
                                         2.890E+01 0.000E+00 5.340E-01 0.000E+00
                                         1.077E+01 0.000E+00 3.450E-01 0.000E+00
                         917-   919 P  
                                         5.645E+00 0.000E+00 3.413E-01 0.000E+00
                                         2.168E+00 0.000E+00 5.639E-01 0.000E+00
                                         8.054E-01 0.000E+00 2.368E-01 0.000E+00
                         920-   922 P  
                                         2.721E-01 0.000E+00 1.000E+00 0.000E+00
                         923-   927 D  
                                         5.609E+01 0.000E+00 0.000E+00 2.959E-02
                                         1.575E+01 0.000E+00 0.000E+00 1.587E-01
                                         5.312E+00 0.000E+00 0.000E+00 3.798E-01
                                         1.774E+00 0.000E+00 0.000E+00 4.690E-01
                         928-   932 D  
                                         5.073E-01 0.000E+00 0.000E+00 1.000E+00
                         933-   939 F  
                                         2.814E+00 0.000E+00 0.000E+00 1.000E+00
                         940-   946 F  
                                         1.300E+00 0.000E+00 0.000E+00 1.000E+00
  62 ZN   0.000   0.000  11.968

 *******************************************************************************
 FINISHED BASIS SET HANDLING 
 *******************************************************************************

 INFORMATION **** SET_MPP **** PCRYSTAL CALCULATION
 INFORMATION **** READM2 **** NEW DEFAULT: FOCK/KS MATRIX MIXING SET TO 30 %
 INFORMATION **** READM2 **** NEW DEFAULT: FULL DIRECT SCF MODE
 INFORMATION **** READM2 **** NEW DEFAULT: COULOMB BIPOLAR BUFFER SET TO 32 Mb
 INFORMATION **** READM2 **** NEW DEFAULT: EXCHANGE BIPOLAR BUFFER SET TO 32 Mb

 *******************************************************************************
 NEW DEFAULT: DFT INTEGRATION GRID INCREASED TO XLGRID
 NEW DEFAULT: DIIS ACCELERATOR ACTIVE
 USE KEYWORD NODIIS TO TURN IT OFF
 *******************************************************************************

 INFORMATION **** DFTD3_INPUT **** PERFORM DISPERSION CORRECTION DFT-D3(BJ) IN THE BECKE-JOHNSON DAMPING SCHEME

 PLEASE CITE:
 (1) DFT-D3 Reference
  S. Grimme, J. Antony, S. Ehrlich, and H. Krieg, J. Chem. Phys. 132 (2010), 154104
 (2) BJ-Damping Reference
  S. Grimme, S. Ehrlich, and L. Goerigk, J. Comput. Chem. 32 (2011), 1456-1465
 (3) General DFT-D Review
  S. Grimme, A. Hansen, J. G. Brandenburg, and C. Bannwarth,
  Chem. Rev. 116 (2016), 5105-5154

 INFORMATION **** TOLINTEG **** COULOMB AND EXCHANGE SERIES TOLERANCES MODIFIED
 INFORMATION **** BIPOSIZE **** COULOMB BIPOLAR BUFFER SET TO   100000000
 INFORMATION **** MAXCYCLE **** MAX NUMBER OF SCF CYCLES SET TO          50
 *******************************************************************************
 N. OF ATOMS PER CELL        62  COULOMB OVERLAP TOL         (T1) 10**  -12
 NUMBER OF SHELLS           388  COULOMB PENETRATION TOL     (T2) 10**  -12
 NUMBER OF AO               984  EXCHANGE OVERLAP TOL        (T3) 10**   20
 N. OF ELECTRONS PER CELL   392  EXCHANGE PSEUDO OVP (F(G))  (T4) 10**   20
 CORE ELECTRONS PER CELL    132  EXCHANGE PSEUDO OVP (P(G))  (T5) 10**   20
 N. OF SYMMETRY OPERATORS     4  POLE ORDER IN MONO ZONE                  4
 *******************************************************************************
 TYPE OF CALCULATION :  RESTRICTED CLOSED SHELL
 KOHN-SHAM HAMILTONIAN

 (EXCHANGE)[CORRELATION] FUNCTIONAL:(PERDEW-BURKE-ERNZERHOF)[PERDEW-BURKE-ERNZERHOF]


 CAPPA:IS1  3;IS2  3;IS3  3; K PTS MONK NET   6; SYMMOPS:K SPACE   8;G SPACE   4

 *******************************************************************************
 MAX NUMBER OF SCF CYCLES      50  CONVERGENCE ON DELTAP        10**-16
 WEIGHT OF F(I) IN F(I+1)      30% CONVERGENCE ON ENERGY        10**- 6
 SHRINK. FACT.(MONKH.)    3  3  3  NUMBER OF K POINTS IN THE IBZ      6
 SHRINKING FACTOR(GILAT NET)    3  NUMBER OF K POINTS(GILAT NET)      6
 *******************************************************************************
 *** K POINTS COORDINATES (OBLIQUE COORDINATES IN UNITS OF IS =  3)
   1-R(  0  0  0)   2-C(  1  0  0)   3-C(  1  1  0)   4-C(  2  1  0)
   5-C(  2  1  1)   6-C(  2  2  1)

 DIRECT LATTICE VECTORS COMPON. (A.U.)     RECIP. LATTICE VECTORS COMPON. (A.U.) 
        X            Y            Z              X            Y            Z
   -9.8471998    9.8471998   11.9677681      0.0000000    0.3190341    0.2625045
    9.8471998   -9.8471998   11.9677681      0.3190341    0.0000000    0.2625045
    9.8471998    9.8471998  -11.9677681      0.3190341    0.3190341    0.0000000

 DISK SPACE FOR EIGENVECTORS (FTN 10)    10650816 REALS

 SYMMETRY ADAPTION OF THE BLOCH FUNCTIONS ENABLED
 TTTTTTTTTTTTTTTTTTTTTTTTTTTTTT gordsh1     TELAPSE       27.87 TCPU        0.08

 MATRIX SIZE: P(G) 1853192, F(G)  927664, P(G) IRR  234631, F(G) IRR  234631
 MAX G-VECTOR INDEX FOR 1- AND 2-ELECTRON INTEGRALS  59

 TTTTTTTTTTTTTTTTTTTTTTTTTTTTTT INPUT       TELAPSE       30.78 TCPU        2.99

 NEIGHBORS OF THE NON-EQUIVALENT ATOMS

 N = NUMBER OF NEIGHBORS AT DISTANCE R
    ATOM  N     R/ANG      R/AU   NEIGHBORS (ATOM LABELS AND CELL INDICES)
   1 H    1     1.0939     2.0672   21 C    0 1 0
   1 H    1     2.1628     4.0870   34 C    0 1 0
   1 H    1     2.2014     4.1600   13 C    0 1 0
   1 H    1     2.6328     4.9752   57 F    0 1 0
   1 H    1     2.8201     5.3293   17 C    0 0 0
   1 H    1     2.8540     5.3933   50 N    0 0-1

   5 H    1     1.0932     2.0659   29 C    0 0 0
   5 H    1     2.0708     3.9132   53 N    0 0 0
   5 H    1     2.1741     4.1084   13 C    0 0 0
   5 H    1     2.5591     4.8361   38 N    0 0 0
   5 H    1     2.6216     4.9540   42 N    0 0 0
   5 H    1     2.6699     5.0454   17 C    0-1 0

   9 H    1     1.0966     2.0722   25 C    0 0 0
   9 H    1     2.0896     3.9487   53 N    0 0 0
   9 H    1     2.1884     4.1355   34 C    0 0 0
   9 H    1     2.3438     4.4291   54 N    0 0 0
   9 H    1     2.6282     4.9666   57 F    0 0 0
   9 H    1     2.8487     5.3834   10 H    0 0 0

  13 C    1     1.4064     2.6577   21 C    0 0 0
  13 C    1     1.4071     2.6590   29 C    0 0 0
  13 C    1     1.4594     2.7579   17 C    0-1 0
  13 C    1     2.1741     4.1084    5 H    0 0 0
  13 C    1     2.2014     4.1600    1 H    0-1 0
  13 C    1     2.3803     4.4982   34 C    0 0 0

  17 C    1     1.3491     2.5495   45 N    0 0 0
  17 C    1     1.3563     2.5631   37 N    1 1 1
  17 C    1     1.4594     2.7579   13 C    0 1 0
  17 C    1     2.2009     4.1590   49 N    1 1 1
  17 C    1     2.2040     4.1650   41 N    1 1 1
  17 C    1     2.4553     4.6399   29 C    0 1 0

  21 C    1     1.0939     2.0672    1 H    0-1 0
  21 C    1     1.3917     2.6299   34 C    0 0 0
  21 C    1     1.4064     2.6577   13 C    0 0 0
  21 C    1     2.3755     4.4890   57 F    0 0 0
  21 C    1     2.4191     4.5713   29 C    0 0 0
  21 C    1     2.4401     4.6112   25 C    0 0 0

  25 C    1     1.0966     2.0722    9 H    0 0 0
  25 C    1     1.3457     2.5429   53 N    0 0 0
  25 C    1     1.3993     2.6443   34 C    0 0 0
  25 C    1     2.3105     4.3661   29 C    0 0 0
  25 C    1     2.3569     4.4540   57 F    0 0 0
  25 C    1     2.4401     4.6112   21 C    0 0 0

  29 C    1     1.0932     2.0659    5 H    0 0 0
  29 C    1     1.3400     2.5323   53 N    0 0 0
  29 C    1     1.4071     2.6590   13 C    0 0 0
  29 C    1     2.3105     4.3661   25 C    0 0 0
  29 C    1     2.4191     4.5713   21 C    0 0 0
  29 C    1     2.4553     4.6399   17 C    0-1 0

  33 C    1     1.3503     2.5516   58 F    0 0 0
  33 C    1     1.3917     2.6299   22 C    0 0 0
  33 C    1     1.3993     2.6443   26 C    0 0 0
  33 C    1     2.1628     4.0870    2 H   -1 0 0
  33 C    1     2.1884     4.1355   10 H    0 0 0
  33 C    1     2.3803     4.4982   14 C    0 0 0

  37 N    1     1.3563     2.5631   17 C   -1-1-1
  37 N    1     1.3778     2.6036   41 N    0 0 0
  37 N    1     2.0029     3.7849   61 ZN   0 0-1
  37 N    1     2.1858     4.1305   49 N    0 0 0
  37 N    1     2.1911     4.1405   45 N   -1-1-1
  37 N    1     2.4749     4.6770   13 C   -1 0-1

  41 N    1     1.3162     2.4872   49 N    0 0 0
  41 N    1     1.3778     2.6036   37 N    0 0 0
  41 N    1     2.1900     4.1385   45 N   -1-1-1
  41 N    1     2.2040     4.1650   17 C   -1-1-1
  41 N    1     2.6216     4.9540    6 H    0 0 0
  41 N    1     2.9380     5.5520   61 ZN   0 0-1

  45 N    1     1.3491     2.5495   17 C    0 0 0
  45 N    1     1.3812     2.6102   49 N    1 1 1
  45 N    1     1.9731     3.7286   62 ZN   0 0 0
  45 N    1     2.1900     4.1385   41 N    1 1 1
  45 N    1     2.1911     4.1405   37 N    1 1 1
  45 N    1     2.5336     4.7877   13 C    0 1 0

  49 N    1     1.3162     2.4872   41 N    0 0 0
  49 N    1     1.3812     2.6102   45 N   -1-1-1
  49 N    1     2.1858     4.1305   37 N    0 0 0
  49 N    1     2.2009     4.1590   17 C   -1-1-1
  49 N    1     2.8362     5.3596   62 ZN  -1-1-1
  49 N    1     2.8540     5.3933    2 H   -1-1-1

  53 N    1     1.3400     2.5323   29 C    0 0 0
  53 N    1     1.3457     2.5429   25 C    0 0 0
  53 N    1     2.0708     3.9132    5 H    0 0 0
  53 N    1     2.0896     3.9487    9 H    0 0 0
  53 N    1     2.3438     4.4291   10 H    0 0 0
  53 N    1     2.3852     4.5074   34 C    0 0 0

  57 F    1     1.3503     2.5516   34 C    0 0 0
  57 F    1     2.3569     4.4540   25 C    0 0 0
  57 F    1     2.3755     4.4890   21 C    0 0 0
  57 F    1     2.5840     4.8830   58 F    0-1-1
  57 F    1     2.6282     4.9666    9 H    0 0 0
  57 F    1     2.6328     4.9752    1 H    0-1 0

  61 ZN   4     2.0029     3.7849   37 N    0 0 1   38 N   -1 0 0   39 N   -1 0 1
                                    40 N   -1-1 0
  61 ZN   4     2.7836     5.2602    5 H   -1 0 0    6 H    0 0 1    7 H   -1-1 0
                                     8 H   -1 0 1
  61 ZN   4     2.9380     5.5520   41 N    0 0 1   42 N   -1 0 0   43 N   -1 0 1
                                    44 N   -1-1 0
  61 ZN   4     3.0768     5.8143   17 C   -1-1 0   18 C   -1 0 1   19 C    0 0 1
                                    20 C   -1 0 0
  61 ZN   4     3.2609     6.1622   29 C   -1 0 0   30 C    0 0 1   31 C   -1-1 0
                                    32 C   -1 0 1
  61 ZN   4     3.5068     6.6268   13 C   -1 0 0   14 C    0 0 1   15 C   -1-1 0
                                    16 C   -1 0 1

  62 ZN   4     1.9731     3.7286   45 N    0 0 0   46 N    0 0 0   47 N    1 1 0
                                    48 N    1 1 0
  62 ZN   4     2.8362     5.3596   49 N    1 1 1   50 N    0 0-1   51 N    0 1 0
                                    52 N    1 0 0
  62 ZN   4     3.0997     5.8576   17 C    0 0 0   18 C    0 0 0   19 C    1 1 0
                                    20 C    1 1 0
  62 ZN   4     3.2508     6.1431    1 H    0 0 0    2 H    0 0 0    3 H    1 1 0
                                     4 H    1 1 0
  62 ZN   4     3.7289     7.0466   13 C    0 1 0   14 C    1 0 0   15 C    0 0-1
                                    16 C    1 1 1
  62 ZN   4     3.7781     7.1396   21 C    0 1 0   22 C    1 0 0   23 C    0 0-1
                                    24 C    1 1 1


 SYMMETRY ALLOWED INTERNAL DEGREE(S) OF FREEDOM:  45
 TTTTTTTTTTTTTTTTTTTTTTTTTTTTTT SYMM        TELAPSE       31.26 TCPU        3.46
 TTTTTTTTTTTTTTTTTTTTTTTTTTTTTT INT_SCREEN  TELAPSE       31.27 TCPU        3.47
 INFORMATION **** EXCBUF **** EXCH. BIPO BUFFER: WORDS USED =           0

 DFT PARAMETERS

     ATOM       ELECTRONS   NET CHARGE   R(ANGSTROM)
   1   1  H       1.0000      0.0000     1.11000000
  13   6  C       6.0000      0.0000     0.77000000
  37   7  N       7.0000      0.0000     0.74000000
  57   9  F       9.0000      0.0000     0.72000000
  61  30  ZN     30.0000      0.0000     1.37000000

 SIZE OF GRID=     457084
 TTTTTTTTTTTTTTTTTTTTTTTTTTTTTT MAKE_GRID2  TELAPSE       32.20 TCPU        4.39
 BECKE WEIGHT FUNCTION
 RADSAFE =     2.00
 TOLERANCES - DENSITY:10**- 6; POTENTIAL:10**- 9; GRID WGT:10**-14

 RADIAL INTEGRATION  - INTERVALS (POINTS,UPPER LIMIT):            1( 75,  4.0*R)

 ANGULAR INTEGRATION - INTERVALS (ACCURACY LEVEL [N. POINTS] UPPER LIMIT):
  1(  4[  86]   0.2)  2(  8[ 194]   0.5)  3( 12[ 350]   0.9)  4( 16[ 974]   3.5)
  5( 12[ 350]9999.0)
 TTTTTTTTTTTTTTTTTTTTTTTTTTTTTT INT_CALC    TELAPSE       32.24 TCPU        4.44
 EEEEEEEEEE INT_CALC TERMINATION  DATE 27 11 2023 TIME 06:41:26.7

 *******************************************************************************
 Z:\home\sanoj\Downloads\tmp_p\newconn.mol                                       
 CRYSTAL - SCF - TYPE OF CALCULATION :  RESTRICTED CLOSED SHELL
 *******************************************************************************

 CAPPA:IS1  3;IS2  3;IS3  3; K PTS MONK NET   6; SYMMOPS:K SPACE   8;G SPACE   4

 TTTTTTTTTTTTTTTTTTTTTTTTTTTTTT SDIK        TELAPSE       32.47 TCPU        4.66

 AAAAAAAAAAAAAAAAAAAAAAAAAAAAAAAAAAAAAAAAAAAAAAAAAAAAAAAAAAAAAAAAAAAAAAAAAAAAAAA
         ATOMIC WAVEFUNCTION(S)


 NUCLEAR CHARGE  1.0  SYMMETRY SPECIES            S
 N. ELECTRONS    1.0  NUMBER OF PRIMITIVE GTOS    4
                      NUMBER OF CONTRACTED GTOS   2
                      NUMBER OF CLOSED SHELLS     0
                      OPEN SHELL OCCUPATION       1

  ZNUC SCFIT  TOTAL HF ENERGY   KINETIC ENERGY   VIRIAL THEOREM ACCURACY
   1.0   1   -4.946643675E-01  4.917913167E-01 -2.005842012E+00  9.4E-17

 NUCLEAR CHARGE  6.0  SYMMETRY SPECIES            S    P
 N. ELECTRONS    6.0  NUMBER OF PRIMITIVE GTOS    7    4
                      NUMBER OF CONTRACTED GTOS   3    2
                      NUMBER OF CLOSED SHELLS     2    0
                      OPEN SHELL OCCUPATION       0    2

  ZNUC SCFIT  TOTAL HF ENERGY   KINETIC ENERGY   VIRIAL THEOREM ACCURACY
   6.0   6   -3.750912652E+01  3.905246519E+01 -1.960480378E+00  3.7E-06

 NUCLEAR CHARGE  7.0  SYMMETRY SPECIES            S    P
 N. ELECTRONS    7.0  NUMBER OF PRIMITIVE GTOS    7    4
                      NUMBER OF CONTRACTED GTOS   3    2
                      NUMBER OF CLOSED SHELLS     2    0
                      OPEN SHELL OCCUPATION       0    3

  ZNUC SCFIT  TOTAL HF ENERGY   KINETIC ENERGY   VIRIAL THEOREM ACCURACY
   7.0   9   -5.432196661E+01  5.425066284E+01 -2.001314339E+00  1.2E-06

 NUCLEAR CHARGE  9.0  SYMMETRY SPECIES            S    P
 N. ELECTRONS    9.0  NUMBER OF PRIMITIVE GTOS    7    4
                      NUMBER OF CONTRACTED GTOS   3    2
                      NUMBER OF CLOSED SHELLS     2    0
                      OPEN SHELL OCCUPATION       0    5

  ZNUC SCFIT  TOTAL HF ENERGY   KINETIC ENERGY   VIRIAL THEOREM ACCURACY
   9.0  14   -9.927886620E+01  9.927374065E+01 -2.000051630E+00  4.0E-06

 NUCLEAR CHARGE 30.0  SYMMETRY SPECIES            S    P    D
 N. ELECTRONS   30.0  NUMBER OF PRIMITIVE GTOS   14    9    5
                      NUMBER OF CONTRACTED GTOS   5    3    2
                      NUMBER OF CLOSED SHELLS     4    2    1
                      OPEN SHELL OCCUPATION       0    0    0

  ZNUC SCFIT  TOTAL HF ENERGY   KINETIC ENERGY   VIRIAL THEOREM ACCURACY
  30.0  10   -1.777404290E+03  1.777325716E+03 -2.000044209E+00  2.5E-06

 AAAAAAAAAAAAAAAAAAAAAAAAAAAAAAAAAAAAAAAAAAAAAAAAAAAAAAAAAAAAAAAAAAAAAAAAAAAAAAA

 TOTAL ATOMIC CHARGES:
   1.0000000   1.0000000   1.0000000   1.0000000   1.0000000   1.0000000
   1.0000000   1.0000000   1.0000000   1.0000000   1.0000000   1.0000000
   6.0000000   6.0000000   6.0000000   6.0000000   6.0000000   6.0000000
   6.0000000   6.0000000   6.0000000   6.0000000   6.0000000   6.0000000
   6.0000000   6.0000000   6.0000000   6.0000000   6.0000000   6.0000000
   6.0000000   6.0000000   6.0000000   6.0000000   6.0000000   6.0000000
   7.0000000   7.0000000   7.0000000   7.0000000   7.0000000   7.0000000
   7.0000000   7.0000000   7.0000000   7.0000000   7.0000000   7.0000000
   7.0000000   7.0000000   7.0000000   7.0000000   7.0000000   7.0000000
   7.0000000   7.0000000   9.0000000   9.0000000   9.0000000   9.0000000
  30.0000000  30.0000000
 TTTTTTTTTTTTTTTTTTTTTTTTTTTTTT MOQGAD      TELAPSE       34.30 TCPU        6.49
 TTTTTTTTTTTTTTTTTTTTTTTTTTTTTT SHELLXN     TELAPSE      126.51 TCPU       87.50
 TTTTTTTTTTTTTTTTTTTTTTTTTTTTTT MONMO3      TELAPSE      128.94 TCPU       89.93
 NUMERICALLY INTEGRATED DENSITY    392.0000398209
 TTTTTTTTTTTTTTTTTTTTTTTTTTTTTT NUMDFT      TELAPSE      131.47 TCPU       92.45
 CYC   0 ETOT(AU) -5.972972247700E+03 DETOT -5.97E+03 tst  0.00E+00 PX  1.00E+00
 TTTTTTTTTTTTTTTTTTTTTTTTTTTTTT DIIS        TELAPSE      131.56 TCPU       92.54
 TTTTTTTTTTTTTTTTTTTTTTTTTTTTTT FDIK        TELAPSE      162.43 TCPU      122.24
 INSULATING STATE
 TOP OF VALENCE BANDS -    BAND    196; K    4; EIG -1.3285275E-01 AU
 TOP OF VALENCE BANDS -    BAND    196; K    1; EIG -1.3392524E-01 AU
 BOTTOM OF VIRTUAL BANDS - BAND    197; K    4; EIG -1.0801115E-01 AU
 DIRECT ENERGY BAND GAP:   0.6760 eV
 BOTTOM OF VIRTUAL BANDS - BAND    197; K    1; EIG -1.0665378E-01 AU
 TTTTTTTTTTTTTTTTTTTTTTTTTTTTTT PDIG        TELAPSE      162.98 TCPU      122.78
 TOTAL ATOMIC CHARGES:
   1.1843647   1.1843647   1.1843647   1.1843647   1.2711808   1.2711808
   1.2711808   1.2711808   1.2379949   1.2379949   1.2379949   1.2379949
   6.0381596   6.0381596   6.0381596   6.0381596   5.4858708   5.4858708
   5.4858708   5.4858708   6.2120773   6.2120773   6.2120773   6.2120773
   5.8621625   5.8621625   5.8621625   5.8621625   5.8579743   5.8579743
   5.8579743   5.8579743   5.1428849   5.1428849   5.1428849   5.1428849
   7.3721663   7.3721663   7.3721663   7.3721663   7.1763391   7.1763391
   7.1763391   7.1763391   7.3762955   7.3762955   7.3762955   7.3762955
   7.1640128   7.1640128   7.1640128   7.1640128   7.4748485   7.4748485
   7.4748485   7.4748485   9.2904388   9.2904388   9.2904388   9.2904388
  27.6024762  27.8104409
 TTTTTTTTTTTTTTTTTTTTTTTTTTTTTT MOQGAD      TELAPSE      163.03 TCPU      122.83
 TTTTTTTTTTTTTTTTTTTTTTTTTTTTTT SHELLXN     TELAPSE      260.98 TCPU      217.24
 TTTTTTTTTTTTTTTTTTTTTTTTTTTTTT MONMO3      TELAPSE      263.18 TCPU      219.43
 NUMERICALLY INTEGRATED DENSITY    392.0000915658
 TTTTTTTTTTTTTTTTTTTTTTTTTTTTTT NUMDFT      TELAPSE      270.38 TCPU      226.61
 CYC   1 ETOT(AU) -5.967731063045E+03 DETOT  5.24E+00 tst  0.00E+00 PX  1.00E+00
 TTTTTTTTTTTTTTTTTTTTTTTTTTTTTT DIIS        TELAPSE      270.81 TCPU      227.03
 DIIS TEST: 0.15596E+02 AT SCF   CYCLE   1 - MIX   30 %
 TTTTTTTTTTTTTTTTTTTTTTTTTTTTTT FDIK        TELAPSE      285.36 TCPU      237.22
 INSULATING STATE
 TOP OF VALENCE BANDS -    BAND    196; K    3; EIG -1.3361409E-01 AU
 TOP OF VALENCE BANDS -    BAND    196; K    1; EIG -1.3658385E-01 AU
 BOTTOM OF VIRTUAL BANDS - BAND    197; K    6; EIG -1.2640989E-01 AU
 INDIRECT ENERGY BAND GAP:   0.1960 eV
 BOTTOM OF VIRTUAL BANDS - BAND    197; K    1; EIG -1.2081266E-01 AU
 TTTTTTTTTTTTTTTTTTTTTTTTTTTTTT PDIG        TELAPSE      285.90 TCPU      237.76
 TOTAL ATOMIC CHARGES:
   1.1507836   1.1507836   1.1507836   1.1507836   1.2806755   1.2806755
   1.2806755   1.2806755   1.2034085   1.2034085   1.2034085   1.2034085
   6.2704238   6.2704238   6.2704238   6.2704238   6.2177967   6.2177967
   6.2177967   6.2177967   6.1891924   6.1891924   6.1891924   6.1891924
   5.9710754   5.9710754   5.9710754   5.9710754   6.2506018   6.2506018
   6.2506018   6.2506018   5.8860370   5.8860370   5.8860370   5.8860370
   7.0311416   7.0311416   7.0311416   7.0311416   6.7966421   6.7966421
   6.7966421   6.7966421   6.9836711   6.9836711   6.9836711   6.9836711
   6.8071783   6.8071783   6.8071783   6.8071783   5.9755357   5.9755357
   5.9755357   5.9755357   9.0186832   9.0186832   9.0186832   9.0186832
  30.0595404  29.8090730
 TTTTTTTTTTTTTTTTTTTTTTTTTTTTTT MOQGAD      TELAPSE      285.95 TCPU      237.81
 TTTTTTTTTTTTTTTTTTTTTTTTTTTTTT SHELLXN     TELAPSE      383.10 TCPU      332.17
 TTTTTTTTTTTTTTTTTTTTTTTTTTTTTT MONMO3      TELAPSE      385.61 TCPU      334.67
 NUMERICALLY INTEGRATED DENSITY    392.0001342189
 TTTTTTTTTTTTTTTTTTTTTTTTTTTTTT NUMDFT      TELAPSE      392.91 TCPU      341.95
 CYC   2 ETOT(AU) -5.966156353094E+03 DETOT  1.57E+00 tst  1.48E-01 PX  9.39E-01
 TTTTTTTTTTTTTTTTTTTTTTTTTTTTTT DIIS        TELAPSE      393.28 TCPU      342.31
 DIIS TEST: 0.24217E+02 AT SCF   CYCLE   2 - DIIS ACTIVE - HISTORY:     2 CYCLES
 TTTTTTTTTTTTTTTTTTTTTTTTTTTTTT FDIK        TELAPSE      406.43 TCPU      353.31
 INSULATING STATE
 TOP OF VALENCE BANDS -    BAND    196; K    1; EIG -2.5739024E-01 AU
 BOTTOM OF VIRTUAL BANDS - BAND    197; K    1; EIG -1.3318168E-01 AU
 DIRECT ENERGY BAND GAP:   3.3799 eV
 TTTTTTTTTTTTTTTTTTTTTTTTTTTTTT PDIG        TELAPSE      406.97 TCPU      353.85
 TOTAL ATOMIC CHARGES:
   1.1149623   1.1149623   1.1149623   1.1149623   1.1648023   1.1648023
   1.1648023   1.1648023   1.1375094   1.1375094   1.1375094   1.1375094
   5.8482907   5.8482907   5.8482907   5.8482907   5.7657729   5.7657729
   5.7657729   5.7657729   5.9052383   5.9052383   5.9052383   5.9052383
   6.1273104   6.1273104   6.1273104   6.1273104   5.9210511   5.9210511
   5.9210511   5.9210511   5.5088947   5.5088947   5.5088947   5.5088947
   6.9442845   6.9442845   6.9442845   6.9442845   7.1463733   7.1463733
   7.1463733   7.1463733   6.9932339   6.9932339   6.9932339   6.9932339
   7.1312544   7.1312544   7.1312544   7.1312544   7.5649809   7.5649809
   7.5649809   7.5649809   9.1187027   9.1187027   9.1187027   9.1187027
  29.2198037  29.2095492
 TTTTTTTTTTTTTTTTTTTTTTTTTTTTTT MOQGAD      TELAPSE      407.02 TCPU      353.90
 TTTTTTTTTTTTTTTTTTTTTTTTTTTTTT SHELLXN     TELAPSE      502.70 TCPU      448.40
 TTTTTTTTTTTTTTTTTTTTTTTTTTTTTT MONMO3      TELAPSE      506.74 TCPU      452.42
 NUMERICALLY INTEGRATED DENSITY    392.0000972478
 TTTTTTTTTTTTTTTTTTTTTTTTTTTTTT NUMDFT      TELAPSE      513.94 TCPU      459.59
 CYC   3 ETOT(AU) -5.969204178475E+03 DETOT -3.05E+00 tst  6.77E-02 PX  7.16E-01
 TTTTTTTTTTTTTTTTTTTTTTTTTTTTTT DIIS        TELAPSE      514.61 TCPU      460.25
 DIIS TEST: 0.61200E+01 AT SCF   CYCLE   3 - DIIS ACTIVE - HISTORY:     3 CYCLES
 TTTTTTTTTTTTTTTTTTTTTTTTTTTTTT FDIK        TELAPSE      529.51 TCPU      469.49
 INSULATING STATE
 TOP OF VALENCE BANDS -    BAND    196; K    3; EIG -2.1304979E-01 AU
 TOP OF VALENCE BANDS -    BAND    196; K    1; EIG -2.1387644E-01 AU
 BOTTOM OF VIRTUAL BANDS - BAND    197; K    4; EIG -1.2609759E-01 AU
 INDIRECT ENERGY BAND GAP:   2.3661 eV
 BOTTOM OF VIRTUAL BANDS - BAND    197; K    1; EIG -1.2569260E-01 AU
 TTTTTTTTTTTTTTTTTTTTTTTTTTTTTT PDIG        TELAPSE      530.05 TCPU      470.03
 TOTAL ATOMIC CHARGES:
   1.0960624   1.0960624   1.0960624   1.0960624   1.1945661   1.1945661
   1.1945661   1.1945661   1.1983985   1.1983985   1.1983985   1.1983985
   6.1961999   6.1961999   6.1961999   6.1961999   5.7525957   5.7525957
   5.7525957   5.7525957   6.3129104   6.3129104   6.3129104   6.3129104
   5.7784841   5.7784841   5.7784841   5.7784841   6.0209132   6.0209132
   6.0209132   6.0209132   5.4495627   5.4495627   5.4495627   5.4495627
   7.2557074   7.2557074   7.2557074   7.2557074   7.0182690   7.0182690
   7.0182690   7.0182690   7.2253375   7.2253375   7.2253375   7.2253375
   7.0267656   7.0267656   7.0267656   7.0267656   6.8909279   6.8909279
   6.8909279   6.8909279   9.2178402   9.2178402   9.2178402   9.2178402
  28.6979347  28.7639026
 TTTTTTTTTTTTTTTTTTTTTTTTTTTTTT MOQGAD      TELAPSE      530.10 TCPU      470.08
 TTTTTTTTTTTTTTTTTTTTTTTTTTTTTT SHELLXN     TELAPSE      626.31 TCPU      563.93
 TTTTTTTTTTTTTTTTTTTTTTTTTTTTTT MONMO3      TELAPSE      628.97 TCPU      566.58
 NUMERICALLY INTEGRATED DENSITY    392.0001138125
 TTTTTTTTTTTTTTTTTTTTTTTTTTTTTT NUMDFT      TELAPSE      636.33 TCPU      573.75
 CYC   4 ETOT(AU) -5.969724409275E+03 DETOT -5.20E-01 tst  1.05E-02 PX  2.40E-01
 TTTTTTTTTTTTTTTTTTTTTTTTTTTTTT DIIS        TELAPSE      636.51 TCPU      573.92
 DIIS TEST: 0.20001E+01 AT SCF   CYCLE   4 - DIIS ACTIVE - HISTORY:     4 CYCLES
 TTTTTTTTTTTTTTTTTTTTTTTTTTTTTT FDIK        TELAPSE      647.95 TCPU      583.11
 INSULATING STATE
 TOP OF VALENCE BANDS -    BAND    196; K    4; EIG -2.3772816E-01 AU
 TOP OF VALENCE BANDS -    BAND    196; K    1; EIG -2.3902669E-01 AU
 BOTTOM OF VIRTUAL BANDS - BAND    197; K    1; EIG -1.2632725E-01 AU
 INDIRECT ENERGY BAND GAP:   3.0314 eV
 TTTTTTTTTTTTTTTTTTTTTTTTTTTTTT PDIG        TELAPSE      648.50 TCPU      583.65
 TOTAL ATOMIC CHARGES:
   1.1149692   1.1149692   1.1149692   1.1149692   1.1941504   1.1941504
   1.1941504   1.1941504   1.1771577   1.1771577   1.1771577   1.1771577
   6.0789873   6.0789873   6.0789873   6.0789873   5.7740490   5.7740490
   5.7740490   5.7740490   6.1512601   6.1512601   6.1512601   6.1512601
   5.9883738   5.9883738   5.9883738   5.9883738   6.0354517   6.0354517
   6.0354517   6.0354517   5.4902287   5.4902287   5.4902287   5.4902287
   7.1851931   7.1851931   7.1851931   7.1851931   7.0593335   7.0593335
   7.0593335   7.0593335   7.1291007   7.1291007   7.1291007   7.1291007
   7.0228388   7.0228388   7.0228388   7.0228388   7.0054464   7.0054464
   7.0054464   7.0054464   9.1628515   9.1628515   9.1628515   9.1628515
  28.8520436  28.8703891
 TTTTTTTTTTTTTTTTTTTTTTTTTTTTTT MOQGAD      TELAPSE      648.54 TCPU      583.70
 TTTTTTTTTTTTTTTTTTTTTTTTTTTTTT SHELLXN     TELAPSE      744.33 TCPU      676.96
 TTTTTTTTTTTTTTTTTTTTTTTTTTTTTT MONMO3      TELAPSE      747.86 TCPU      680.48
 NUMERICALLY INTEGRATED DENSITY    392.0001096885
 TTTTTTTTTTTTTTTTTTTTTTTTTTTTTT NUMDFT      TELAPSE      755.04 TCPU      687.64
 CYC   5 ETOT(AU) -5.970017418576E+03 DETOT -2.93E-01 tst  1.11E-03 PX  1.81E-01
 TTTTTTTTTTTTTTTTTTTTTTTTTTTTTT DIIS        TELAPSE      756.07 TCPU      688.66
 DIIS TEST: 0.68787E-01 AT SCF   CYCLE   5 - DIIS ACTIVE - HISTORY:     5 CYCLES
 TTTTTTTTTTTTTTTTTTTTTTTTTTTTTT FDIK        TELAPSE      767.66 TCPU      697.68
 INSULATING STATE
 TOP OF VALENCE BANDS -    BAND    196; K    4; EIG -2.3877313E-01 AU
 TOP OF VALENCE BANDS -    BAND    196; K    1; EIG -2.4011623E-01 AU
 BOTTOM OF VIRTUAL BANDS - BAND    197; K    1; EIG -1.2620969E-01 AU
 INDIRECT ENERGY BAND GAP:   3.0630 eV
 TTTTTTTTTTTTTTTTTTTTTTTTTTTTTT PDIG        TELAPSE      768.20 TCPU      698.22
 TOTAL ATOMIC CHARGES:
   1.1107323   1.1107323   1.1107323   1.1107323   1.1899841   1.1899841
   1.1899841   1.1899841   1.1781443   1.1781443   1.1781443   1.1781443
   6.1099998   6.1099998   6.1099998   6.1099998   5.8101326   5.8101326
   5.8101326   5.8101326   6.1633489   6.1633489   6.1633489   6.1633489
   5.8877675   5.8877675   5.8877675   5.8877675   5.9758226   5.9758226
   5.9758226   5.9758226   5.5166308   5.5166308   5.5166308   5.5166308
   7.0895075   7.0895075   7.0895075   7.0895075   7.0180282   7.0180282
   7.0180282   7.0180282   7.1602924   7.1602924   7.1602924   7.1602924
   7.0854096   7.0854096   7.0854096   7.0854096   7.0872315   7.0872315
   7.0872315   7.0872315   9.1667526   9.1667526   9.1667526   9.1667526
  28.8828782  28.9179833
 TTTTTTTTTTTTTTTTTTTTTTTTTTTTTT MOQGAD      TELAPSE      768.25 TCPU      698.27
 TTTTTTTTTTTTTTTTTTTTTTTTTTTTTT SHELLXN     TELAPSE      865.11 TCPU      791.61
 TTTTTTTTTTTTTTTTTTTTTTTTTTTTTT MONMO3      TELAPSE      868.52 TCPU      795.01
 NUMERICALLY INTEGRATED DENSITY    392.0001108954
 TTTTTTTTTTTTTTTTTTTTTTTTTTTTTT NUMDFT      TELAPSE      875.80 TCPU      802.27
 CYC   6 ETOT(AU) -5.970013024243E+03 DETOT  4.39E-03 tst  1.15E-04 PX  2.88E-02
 TTTTTTTTTTTTTTTTTTTTTTTTTTTTTT DIIS        TELAPSE      878.40 TCPU      804.86
 DIIS TEST: 0.99921E-01 AT SCF   CYCLE   6 - DIIS ACTIVE - HISTORY:     6 CYCLES
 TTTTTTTTTTTTTTTTTTTTTTTTTTTTTT FDIK        TELAPSE      890.85 TCPU      817.05
 INSULATING STATE
 TOP OF VALENCE BANDS -    BAND    196; K    4; EIG -2.3883734E-01 AU
 TOP OF VALENCE BANDS -    BAND    196; K    1; EIG -2.4012845E-01 AU
 BOTTOM OF VIRTUAL BANDS - BAND    197; K    1; EIG -1.2650838E-01 AU
 INDIRECT ENERGY BAND GAP:   3.0566 eV
 TTTTTTTTTTTTTTTTTTTTTTTTTTTTTT PDIG        TELAPSE      891.40 TCPU      817.59
 TOTAL ATOMIC CHARGES:
   1.1094708   1.1094708   1.1094708   1.1094708   1.1889076   1.1889076
   1.1889076   1.1889076   1.1755136   1.1755136   1.1755136   1.1755136
   6.0911149   6.0911149   6.0911149   6.0911149   5.7933824   5.7933824
   5.7933824   5.7933824   6.1516733   6.1516733   6.1516733   6.1516733
   5.9175862   5.9175862   5.9175862   5.9175862   6.0081928   6.0081928
   6.0081928   6.0081928   5.5076730   5.5076730   5.5076730   5.5076730
   7.1675961   7.1675961   7.1675961   7.1675961   7.0670835   7.0670835
   7.0670835   7.0670835   7.1131801   7.1131801   7.1131801   7.1131801
   7.0261089   7.0261089   7.0261089   7.0261089   7.0683936   7.0683936
   7.0683936   7.0683936   9.1652657   9.1652657   9.1652657   9.1652657
  28.8856593  28.9097713
 TTTTTTTTTTTTTTTTTTTTTTTTTTTTTT MOQGAD      TELAPSE      891.45 TCPU      817.64
 TTTTTTTTTTTTTTTTTTTTTTTTTTTTTT SHELLXN     TELAPSE      987.61 TCPU      910.91
 TTTTTTTTTTTTTTTTTTTTTTTTTTTTTT MONMO3      TELAPSE      991.00 TCPU      914.30
 NUMERICALLY INTEGRATED DENSITY    392.0001110369
 TTTTTTTTTTTTTTTTTTTTTTTTTTTTTT NUMDFT      TELAPSE      998.17 TCPU      921.44
 CYC   7 ETOT(AU) -5.970024802949E+03 DETOT -1.18E-02 tst  1.13E-04 PX  2.14E-02
 TTTTTTTTTTTTTTTTTTTTTTTTTTTTTT DIIS        TELAPSE      998.44 TCPU      921.71
 DIIS TEST: 0.20109E-01 AT SCF   CYCLE   7 - DIIS ACTIVE - HISTORY:     7 CYCLES
 TTTTTTTTTTTTTTTTTTTTTTTTTTTTTT FDIK        TELAPSE     1009.26 TCPU      930.60
 INSULATING STATE
 TOP OF VALENCE BANDS -    BAND    196; K    4; EIG -2.3791386E-01 AU
 TOP OF VALENCE BANDS -    BAND    196; K    1; EIG -2.3923264E-01 AU
 BOTTOM OF VIRTUAL BANDS - BAND    197; K    1; EIG -1.2638474E-01 AU
 INDIRECT ENERGY BAND GAP:   3.0349 eV
 TTTTTTTTTTTTTTTTTTTTTTTTTTTTTT PDIG        TELAPSE     1009.80 TCPU      931.14
 TOTAL ATOMIC CHARGES:
   1.1105659   1.1105659   1.1105659   1.1105659   1.1882197   1.1882197
   1.1882197   1.1882197   1.1750237   1.1750237   1.1750237   1.1750237
   6.0803462   6.0803462   6.0803462   6.0803462   5.7811439   5.7811439
   5.7811439   5.7811439   6.1541022   6.1541022   6.1541022   6.1541022
   5.9527751   5.9527751   5.9527751   5.9527751   6.0111877   6.0111877
   6.0111877   6.0111877   5.5011422   5.5011422   5.5011422   5.5011422
   7.1491905   7.1491905   7.1491905   7.1491905   7.0429415   7.0429415
   7.0429415   7.0429415   7.1438044   7.1438044   7.1438044   7.1438044
   7.0493927   7.0493927   7.0493927   7.0493927   7.0476124   7.0476124
   7.0476124   7.0476124   9.1649900   9.1649900   9.1649900   9.1649900
  28.8814945  28.9087535
 TTTTTTTTTTTTTTTTTTTTTTTTTTTTTT MOQGAD      TELAPSE     1009.85 TCPU      931.19
 TTTTTTTTTTTTTTTTTTTTTTTTTTTTTT SHELLXN     TELAPSE     1105.77 TCPU     1024.69
 TTTTTTTTTTTTTTTTTTTTTTTTTTTTTT MONMO3      TELAPSE     1109.01 TCPU     1027.92
 NUMERICALLY INTEGRATED DENSITY    392.0001107678
 TTTTTTTTTTTTTTTTTTTTTTTTTTTTTT NUMDFT      TELAPSE     1116.25 TCPU     1035.13
 CYC   8 ETOT(AU) -5.970027283468E+03 DETOT -2.48E-03 tst  1.89E-05 PX  9.56E-03
 TTTTTTTTTTTTTTTTTTTTTTTTTTTTTT DIIS        TELAPSE     1116.51 TCPU     1035.39
 DIIS TEST: 0.37029E-02 AT SCF   CYCLE   8 - DIIS ACTIVE - HISTORY:     8 CYCLES
 TTTTTTTTTTTTTTTTTTTTTTTTTTTTTT FDIK        TELAPSE     1127.69 TCPU     1044.15
 INSULATING STATE
 TOP OF VALENCE BANDS -    BAND    196; K    4; EIG -2.3884069E-01 AU
 TOP OF VALENCE BANDS -    BAND    196; K    1; EIG -2.4016333E-01 AU
 BOTTOM OF VIRTUAL BANDS - BAND    197; K    1; EIG -1.2644465E-01 AU
 INDIRECT ENERGY BAND GAP:   3.0585 eV
 TTTTTTTTTTTTTTTTTTTTTTTTTTTTTT PDIG        TELAPSE     1128.23 TCPU     1044.69
 TOTAL ATOMIC CHARGES:
   1.1102604   1.1102604   1.1102604   1.1102604   1.1877954   1.1877954
   1.1877954   1.1877954   1.1761399   1.1761399   1.1761399   1.1761399
   6.0904489   6.0904489   6.0904489   6.0904489   5.7869583   5.7869583
   5.7869583   5.7869583   6.1524981   6.1524981   6.1524981   6.1524981
   5.9370314   5.9370314   5.9370314   5.9370314   6.0076632   6.0076632
   6.0076632   6.0076632   5.4986363   5.4986363   5.4986363   5.4986363
   7.1474815   7.1474815   7.1474815   7.1474815   7.0504267   7.0504267
   7.0504267   7.0504267   7.1345951   7.1345951   7.1345951   7.1345951
   7.0451698   7.0451698   7.0451698   7.0451698   7.0615192   7.0615192
   7.0615192   7.0615192   9.1652058   9.1652058   9.1652058   9.1652058
  28.8837171  28.9089621
 TTTTTTTTTTTTTTTTTTTTTTTTTTTTTT MOQGAD      TELAPSE     1128.28 TCPU     1044.73
 TTTTTTTTTTTTTTTTTTTTTTTTTTTTTT SHELLXN     TELAPSE     1224.79 TCPU     1138.39
 TTTTTTTTTTTTTTTTTTTTTTTTTTTTTT MONMO3      TELAPSE     1227.74 TCPU     1141.34
 NUMERICALLY INTEGRATED DENSITY    392.0001105040
 TTTTTTTTTTTTTTTTTTTTTTTTTTTTTT NUMDFT      TELAPSE     1234.94 TCPU     1148.51
 CYC   9 ETOT(AU) -5.970027820143E+03 DETOT -5.37E-04 tst  1.56E-06 PX  4.38E-03
 TTTTTTTTTTTTTTTTTTTTTTTTTTTTTT DIIS        TELAPSE     1235.11 TCPU     1148.67
 DIIS TEST: 0.26686E-03 AT SCF   CYCLE   9 - DIIS ACTIVE - HISTORY:     9 CYCLES
 TTTTTTTTTTTTTTTTTTTTTTTTTTTTTT FDIK        TELAPSE     1245.67 TCPU     1156.91
 INSULATING STATE
 TOP OF VALENCE BANDS -    BAND    196; K    4; EIG -2.3882453E-01 AU
 TOP OF VALENCE BANDS -    BAND    196; K    1; EIG -2.4015114E-01 AU
 BOTTOM OF VIRTUAL BANDS - BAND    197; K    1; EIG -1.2641317E-01 AU
 INDIRECT ENERGY BAND GAP:   3.0589 eV
 TTTTTTTTTTTTTTTTTTTTTTTTTTTTTT PDIG        TELAPSE     1246.21 TCPU     1157.45
 TOTAL ATOMIC CHARGES:
   1.1100752   1.1100752   1.1100752   1.1100752   1.1883320   1.1883320
   1.1883320   1.1883320   1.1756736   1.1756736   1.1756736   1.1756736
   6.0860175   6.0860175   6.0860175   6.0860175   5.7863299   5.7863299
   5.7863299   5.7863299   6.1531593   6.1531593   6.1531593   6.1531593
   5.9357320   5.9357320   5.9357320   5.9357320   6.0048523   6.0048523
   6.0048523   6.0048523   5.5053504   5.5053504   5.5053504   5.5053504
   7.1496120   7.1496120   7.1496120   7.1496120   7.0491867   7.0491867
   7.0491867   7.0491867   7.1351272   7.1351272   7.1351272   7.1351272
   7.0457001   7.0457001   7.0457001   7.0457001   7.0618562   7.0618562
   7.0618562   7.0618562   9.1655182   9.1655182   9.1655182   9.1655182
  28.8818122  28.9080982
 TTTTTTTTTTTTTTTTTTTTTTTTTTTTTT MOQGAD      TELAPSE     1246.26 TCPU     1157.50
 TTTTTTTTTTTTTTTTTTTTTTTTTTTTTT SHELLXN     TELAPSE     1342.13 TCPU     1251.18
 TTTTTTTTTTTTTTTTTTTTTTTTTTTTTT MONMO3      TELAPSE     1343.51 TCPU     1252.56
 NUMERICALLY INTEGRATED DENSITY    392.0001105945
 TTTTTTTTTTTTTTTTTTTTTTTTTTTTTT NUMDFT      TELAPSE     1350.75 TCPU     1259.78
 CYC  10 ETOT(AU) -5.970027839323E+03 DETOT -1.92E-05 tst  5.02E-07 PX  2.23E-03
 TTTTTTTTTTTTTTTTTTTTTTTTTTTTTT DIIS        TELAPSE     1351.02 TCPU     1260.05
 DIIS TEST: 0.13957E-03 AT SCF   CYCLE  10 - DIIS ACTIVE - HISTORY:    10 CYCLES
 TTTTTTTTTTTTTTTTTTTTTTTTTTTTTT FDIK        TELAPSE     1361.99 TCPU     1268.46
 INSULATING STATE
 TOP OF VALENCE BANDS -    BAND    196; K    4; EIG -2.3883049E-01 AU
 TOP OF VALENCE BANDS -    BAND    196; K    1; EIG -2.4015302E-01 AU
 BOTTOM OF VIRTUAL BANDS - BAND    197; K    1; EIG -1.2645702E-01 AU
 INDIRECT ENERGY BAND GAP:   3.0578 eV
 TTTTTTTTTTTTTTTTTTTTTTTTTTTTTT PDIG        TELAPSE     1362.53 TCPU     1269.00
 TOTAL ATOMIC CHARGES:
   1.1101643   1.1101643   1.1101643   1.1101643   1.1879952   1.1879952
   1.1879952   1.1879952   1.1755944   1.1755944   1.1755944   1.1755944
   6.0871083   6.0871083   6.0871083   6.0871083   5.7868851   5.7868851
   5.7868851   5.7868851   6.1527568   6.1527568   6.1527568   6.1527568
   5.9369170   5.9369170   5.9369170   5.9369170   6.0073350   6.0073350
   6.0073350   6.0073350   5.5022869   5.5022869   5.5022869   5.5022869
   7.1484634   7.1484634   7.1484634   7.1484634   7.0491257   7.0491257
   7.0491257   7.0491257   7.1356048   7.1356048   7.1356048   7.1356048
   7.0457883   7.0457883   7.0457883   7.0457883   7.0613289   7.0613289
   7.0613289   7.0613289   9.1650657   9.1650657   9.1650657   9.1650657
  28.8821260  28.9081950
 TTTTTTTTTTTTTTTTTTTTTTTTTTTTTT MOQGAD      TELAPSE     1362.58 TCPU     1269.05
 TTTTTTTTTTTTTTTTTTTTTTTTTTTTTT SHELLXN     TELAPSE     1456.90 TCPU     1362.55
 TTTTTTTTTTTTTTTTTTTTTTTTTTTTTT MONMO3      TELAPSE     1460.05 TCPU     1365.69
 NUMERICALLY INTEGRATED DENSITY    392.0001106178
 TTTTTTTTTTTTTTTTTTTTTTTTTTTTTT NUMDFT      TELAPSE     1467.25 TCPU     1372.86
 CYC  11 ETOT(AU) -5.970027856594E+03 DETOT -1.73E-05 tst  1.55E-07 PX  1.10E-03
 TTTTTTTTTTTTTTTTTTTTTTTTTTTTTT DIIS        TELAPSE     1467.52 TCPU     1373.12
 DIIS TEST: 0.94569E-05 AT SCF   CYCLE  11 - DIIS ACTIVE - HISTORY:    11 CYCLES
 TTTTTTTTTTTTTTTTTTTTTTTTTTTTTT FDIK        TELAPSE     1478.63 TCPU     1379.86
 INSULATING STATE
 TOP OF VALENCE BANDS -    BAND    196; K    4; EIG -2.3878616E-01 AU
 TOP OF VALENCE BANDS -    BAND    196; K    1; EIG -2.4010964E-01 AU
 BOTTOM OF VIRTUAL BANDS - BAND    197; K    1; EIG -1.2643609E-01 AU
 INDIRECT ENERGY BAND GAP:   3.0572 eV
 TTTTTTTTTTTTTTTTTTTTTTTTTTTTTT PDIG        TELAPSE     1479.17 TCPU     1380.40
 TOTAL ATOMIC CHARGES:
   1.1101701   1.1101701   1.1101701   1.1101701   1.1881044   1.1881044
   1.1881044   1.1881044   1.1756953   1.1756953   1.1756953   1.1756953
   6.0875990   6.0875990   6.0875990   6.0875990   5.7865091   5.7865091
   5.7865091   5.7865091   6.1530909   6.1530909   6.1530909   6.1530909
   5.9369802   5.9369802   5.9369802   5.9369802   6.0061353   6.0061353
   6.0061353   6.0061353   5.5023332   5.5023332   5.5023332   5.5023332
   7.1484863   7.1484863   7.1484863   7.1484863   7.0498093   7.0498093
   7.0498093   7.0498093   7.1349679   7.1349679   7.1349679   7.1349679
   7.0457798   7.0457798   7.0457798   7.0457798   7.0611439   7.0611439
   7.0611439   7.0611439   9.1654209   9.1654209   9.1654209   9.1654209
  28.8824867  28.9086109
 TTTTTTTTTTTTTTTTTTTTTTTTTTTTTT MOQGAD      TELAPSE     1479.22 TCPU     1380.45
 TTTTTTTTTTTTTTTTTTTTTTTTTTTTTT SHELLXN     TELAPSE     1573.25 TCPU     1473.82
 TTTTTTTTTTTTTTTTTTTTTTTTTTTTTT MONMO3      TELAPSE     1576.46 TCPU     1477.02
 NUMERICALLY INTEGRATED DENSITY    392.0001105968
 TTTTTTTTTTTTTTTTTTTTTTTTTTTTTT NUMDFT      TELAPSE     1583.63 TCPU     1484.16
 CYC  12 ETOT(AU) -5.970027857114E+03 DETOT -5.20E-07 tst  1.41E-08 PX  3.54E-04
 TTTTTTTTTTTTTTTTTTTTTTTTTTTTTT DIIS        TELAPSE     1584.49 TCPU     1485.02
 DIIS TEST: 0.59047E-05 AT SCF   CYCLE  12 - DIIS ACTIVE - HISTORY:    12 CYCLES
 TTTTTTTTTTTTTTTTTTTTTTTTTTTTTT FDIK        TELAPSE     1596.16 TCPU     1492.85
 INSULATING STATE
 TOP OF VALENCE BANDS -    BAND    196; K    4; EIG -2.3881207E-01 AU
 TOP OF VALENCE BANDS -    BAND    196; K    1; EIG -2.4013554E-01 AU
 BOTTOM OF VIRTUAL BANDS - BAND    197; K    1; EIG -1.2644031E-01 AU
 INDIRECT ENERGY BAND GAP:   3.0578 eV
 TTTTTTTTTTTTTTTTTTTTTTTTTTTTTT PDIG        TELAPSE     1596.69 TCPU     1493.38
 TOTAL ATOMIC CHARGES:
   1.1101902   1.1101902   1.1101902   1.1101902   1.1880582   1.1880582
   1.1880582   1.1880582   1.1757058   1.1757058   1.1757058   1.1757058
   6.0873582   6.0873582   6.0873582   6.0873582   5.7866318   5.7866318
   5.7866318   5.7866318   6.1528513   6.1528513   6.1528513   6.1528513
   5.9367174   5.9367174   5.9367174   5.9367174   6.0066438   6.0066438
   6.0066438   6.0066438   5.5025136   5.5025136   5.5025136   5.5025136
   7.1487839   7.1487839   7.1487839   7.1487839   7.0491261   7.0491261
   7.0491261   7.0491261   7.1355061   7.1355061   7.1355061   7.1355061
   7.0456369   7.0456369   7.0456369   7.0456369   7.0613716   7.0613716
   7.0613716   7.0613716   9.1652094   9.1652094   9.1652094   9.1652094
  28.8823558  28.9084269
 TTTTTTTTTTTTTTTTTTTTTTTTTTTTTT MOQGAD      TELAPSE     1596.74 TCPU     1493.43
 TTTTTTTTTTTTTTTTTTTTTTTTTTTTTT SHELLXN     TELAPSE     1691.04 TCPU     1587.03
 +++ ENERGIES IN A.U. +++
 ::: EXT EL-POLE                                  -9.6195205976529E+03
 ::: EXT EL-SPHEROPOLE                             6.1751365486680E+01
 ::: BIELET ZONE E-E                               1.1691656400143E+04
 ::: TOTAL E-E                                     2.1338871679763E+03
 ::: TOTAL E-N + N-E                              -1.2924609627431E+04
 ::: TOTAL N-N                                    -6.6832879389429E+02
 ::: KINETIC ENERGY                                5.9422704549305E+03
 ::: PSEUDO TOTAL   ENERGY                        -5.5167807984187E+03
 ::: VIRIAL COEFFICIENT                            1.0371313162935E+00
 TTTTTTTTTTTTTTTTTTTTTTTTTTTTTT MONMO3      TELAPSE     1694.00 TCPU     1589.98
 NUMERICALLY INTEGRATED DENSITY    392.0001106060
 TTTTTTTTTTTTTTTTTTTTTTTTTTTTTT NUMDFT      TELAPSE     1701.19 TCPU     1597.15
 CYC  13 ETOT(AU) -5.970027857975E+03 DETOT -8.61E-07 tst  4.73E-09 PX  3.54E-04

[...]
 DIIS TEST: 0.41420E-02 AT CPHF  CYCLE   9 - DIIS ACTIVE - HISTORY:     9 CYCLES
 CYCLE   9   ALPHA  938.359216  EPSILON    3.540273  DELTA    1.2986E-02
 TTTTTTTTTTTTTTTTTTTTTTTTTTTTTT MOQGAD      TELAPSE   151752.58 TCPU   150577.32
 TTTTTTTTTTTTTTTTTTTTTTTTTTTTTT CP_MONMON   TELAPSE   151786.43 TCPU   150611.03
 DIIS TEST: 0.14366E-02 AT CPHF  CYCLE  10 - DIIS ACTIVE - HISTORY:    10 CYCLES
 CYCLE  10   ALPHA  938.324769  EPSILON    3.540179  DELTA   -3.4447E-02
 TTTTTTTTTTTTTTTTTTTTTTTTTTTTTT MOQGAD      TELAPSE   153441.36 TCPU   152252.10
 TTTTTTTTTTTTTTTTTTTTTTTTTTTTTT CP_MONMON   TELAPSE   153475.20 TCPU   152285.81
 DIIS TEST: 0.10261E-03 AT CPHF  CYCLE  11 - DIIS ACTIVE - HISTORY:    11 CYCLES
 CYCLE  11   ALPHA  938.306457  EPSILON    3.540130  DELTA   -1.8312E-02
 TTTTTTTTTTTTTTTTTTTTTTTTTTTTTT MOQGAD      TELAPSE   155132.77 TCPU   153933.74
 TTTTTTTTTTTTTTTTTTTTTTTTTTTTTT CP_MONMON   TELAPSE   155166.47 TCPU   153967.29
 DIIS TEST: 0.12356E-04 AT CPHF  CYCLE  12 - DIIS ACTIVE - HISTORY:    12 CYCLES
 CYCLE  12   ALPHA  938.282772  EPSILON    3.540066  DELTA   -2.3684E-02
 TTTTTTTTTTTTTTTTTTTTTTTTTTTTTT MOQGAD      TELAPSE   156828.15 TCPU   155615.13
 TTTTTTTTTTTTTTTTTTTTTTTTTTTTTT CP_MONMON   TELAPSE   156861.99 TCPU   155648.87
 DIIS TEST: 0.11588E-05 AT CPHF  CYCLE  13 - DIIS ACTIVE - HISTORY:    13 CYCLES
 CYCLE  13   ALPHA  938.278197  EPSILON    3.540053  DELTA   -4.5752E-03
 TTTTTTTTTTTTTTTTTTTTTTTTTTTTTT MOQGAD      TELAPSE   158513.94 TCPU   157289.14
 TTTTTTTTTTTTTTTTTTTTTTTTTTTTTT CP_MONMON   TELAPSE   158547.48 TCPU   157322.56
 DIIS TEST: 0.85446E-07 AT CPHF  CYCLE  14 - DIIS ACTIVE - HISTORY:    14 CYCLES
 CYCLE  14   ALPHA  938.276808  EPSILON    3.540050  DELTA   -1.3898E-03
 TTTTTTTTTTTTTTTTTTTTTTTTTTTTTT MOQGAD      TELAPSE   160199.47 TCPU   158962.41
 TTTTTTTTTTTTTTTTTTTTTTTTTTTTTT CP_MONMON   TELAPSE   160233.31 TCPU   158996.14
 DIIS TEST: 0.20762E-07 AT CPHF  CYCLE  15 - DIIS ACTIVE - HISTORY:    15 CYCLES
 CYCLE  15   ALPHA  938.276491  EPSILON    3.540049  DELTA   -3.1650E-04
 TTTTTTTTTTTTTTTTTTTTTTTTTTTTTT CP_SC       TELAPSE   160349.01 TCPU   159105.58

 *******************************************************************************

 ELECTRIC FIELD APPLIED ALONG CARTESIAN DIRECTION Z

 *******************************************************************************
 THE NUMBER OF SYMMETRY OPERATORS HAS BEEN REDUCED FROM  4 TO  1

 NEW GRID IN RECIPROCAL SPACE
 *******************************************************************************
 POINTS IN THE IBZ                  14 SHRINKING FACTORS               3  3  3
 *******************************************************************************
 *** K POINTS COORDINATES (OBLIQUE COORDINATES IN UNITS OF SHRINK FAC. )
   1-R(  0  0  0)   2-C(  1  0  0)   3-C(  0  1  2)   4-C(  2  0  1)
   5-C(  0  2  0)   6-C(  1  1  0)   7-C(  1  1  1)   8-C(  1  0  1)
   9-C(  0  1  1)  10-C(  2  1  0)  11-C(  0  0  2)  12-C(  2  1  1)
  13-C(  2  1  2)  14-C(  2  2  1)

 GCALCO - MAX INDICES DIRECT LATTICE VECTOR    14    14    16
 NO.OF VECTORS CREATED 6999 STARS  484 RMAX   198.64190 BOHR
 TTTTTTTTTTTTTTTTTTTTTTTTTTTTTT gordsh1     TELAPSE   160400.41 TCPU   159155.47

 MATRIX SIZE: P(G) 1853192, F(G)  927664, P(G) IRR  929934, F(G) IRR  929934
 MAX G-VECTOR INDEX FOR 1- AND 2-ELECTRON INTEGRALS  59

 TTTTTTTTTTTTTTTTTTTTTTTTTTTTTT INPUT       TELAPSE   160422.45 TCPU   159177.32
 TTTTTTTTTTTTTTTTTTTTTTTTTTTTTT SYMM        TELAPSE   160422.45 TCPU   159177.32

 ***** NEW REFERENCE GEOMETRY *****
 TTTTTTTTTTTTTTTTTTTTTTTTTTTTTT INT_SCREEN  TELAPSE   160422.46 TCPU   159177.33
 INFORMATION **** EXCBUF **** EXCH. BIPO BUFFER: WORDS USED =           0

 DFT PARAMETERS

     ATOM       ELECTRONS   NET CHARGE   R(ANGSTROM)
   1   1  H       1.0000      0.0000     1.11000000
  13   6  C       6.0000      0.0000     0.77000000
  37   7  N       7.0000      0.0000     0.74000000
  57   9  F       9.0000      0.0000     0.72000000
  61  30  ZN     30.0000      0.0000     1.37000000

 SIZE OF GRID=    1828110
 TTTTTTTTTTTTTTTTTTTTTTTTTTTTTT MAKE_GRID2  TELAPSE   160424.89 TCPU   159179.75
 BECKE WEIGHT FUNCTION
 RADSAFE =     2.00
 TOLERANCES - DENSITY:10**- 6; POTENTIAL:10**- 9; GRID WGT:10**-14

 RADIAL INTEGRATION  - INTERVALS (POINTS,UPPER LIMIT):            1( 75,  4.0*R)

 ANGULAR INTEGRATION - INTERVALS (ACCURACY LEVEL [N. POINTS] UPPER LIMIT):
  1(  4[  86]   0.2)  2(  8[ 194]   0.5)  3( 12[ 350]   0.9)  4( 16[ 974]   3.5)
  5( 12[ 350]9999.0)
 TTTTTTTTTTTTTTTTTTTTTTTTTTTTTT INT_CALC    TELAPSE   160425.01 TCPU   159179.87
 CYCLE   0   ALPHA  588.600988  EPSILON    2.593427  DELTA    5.8860E+02
 TTTTTTTTTTTTTTTTTTTTTTTTTTTTTT MOQGAD      TELAPSE   162069.95 TCPU   160818.64
 TTTTTTTTTTTTTTTTTTTTTTTTTTTTTT CP_MONMON   TELAPSE   162103.37 TCPU   160851.98
 DIIS TEST: 0.82466E+02 AT CPHF  CYCLE   1 - MIX    0 %
 CYCLE   1   ALPHA  266.111998  EPSILON    1.720403  DELTA   -3.2249E+02
 TTTTTTTTTTTTTTTTTTTTTTTTTTTTTT MOQGAD      TELAPSE   163773.71 TCPU   162510.92
 TTTTTTTTTTTTTTTTTTTTTTTTTTTTTT CP_MONMON   TELAPSE   163807.13 TCPU   162544.25
 DIIS TEST: 0.67736E+03 AT CPHF  CYCLE   2 - DIIS ACTIVE - HISTORY:     2 CYCLES
 CYCLE   2   ALPHA  426.232818  EPSILON    2.153873  DELTA    1.6012E+02
 TTTTTTTTTTTTTTTTTTTTTTTTTTTTTT MOQGAD      TELAPSE   165474.22 TCPU   164197.44
 TTTTTTTTTTTTTTTTTTTTTTTTTTTTTT CP_MONMON   TELAPSE   165507.63 TCPU   164230.74
 DIIS TEST: 0.22272E+02 AT CPHF  CYCLE   3 - DIIS ACTIVE - HISTORY:     3 CYCLES
 CYCLE   3   ALPHA  456.652440  EPSILON    2.236223  DELTA    3.0420E+01
 TTTTTTTTTTTTTTTTTTTTTTTTTTTTTT MOQGAD      TELAPSE   167170.88 TCPU   165885.91
 TTTTTTTTTTTTTTTTTTTTTTTTTTTTTT CP_MONMON   TELAPSE   167204.18 TCPU   165919.06
 DIIS TEST: 0.62706E+01 AT CPHF  CYCLE   4 - DIIS ACTIVE - HISTORY:     4 CYCLES
 CYCLE   4   ALPHA  458.147798  EPSILON    2.240272  DELTA    1.4954E+00
 TTTTTTTTTTTTTTTTTTTTTTTTTTTTTT MOQGAD      TELAPSE   168871.73 TCPU   167573.91
 TTTTTTTTTTTTTTTTTTTTTTTTTTTTTT CP_MONMON   TELAPSE   168905.06 TCPU   167607.15
 DIIS TEST: 0.16970E+00 AT CPHF  CYCLE   5 - DIIS ACTIVE - HISTORY:     5 CYCLES
 CYCLE   5   ALPHA  458.575961  EPSILON    2.241431  DELTA    4.2816E-01
 TTTTTTTTTTTTTTTTTTTTTTTTTTTTTT MOQGAD      TELAPSE   170568.85 TCPU   169259.61
 TTTTTTTTTTTTTTTTTTTTTTTTTTTTTT CP_MONMON   TELAPSE   170602.14 TCPU   169292.78
 DIIS TEST: 0.23963E-01 AT CPHF  CYCLE   6 - DIIS ACTIVE - HISTORY:     6 CYCLES
 CYCLE   6   ALPHA  458.786657  EPSILON    2.242001  DELTA    2.1070E-01
 TTTTTTTTTTTTTTTTTTTTTTTTTTTTTT MOQGAD      TELAPSE   172276.13 TCPU   170956.16
 TTTTTTTTTTTTTTTTTTTTTTTTTTTTTT CP_MONMON   TELAPSE   172309.57 TCPU   170989.41
 DIIS TEST: 0.49084E-02 AT CPHF  CYCLE   7 - DIIS ACTIVE - HISTORY:     7 CYCLES
 CYCLE   7   ALPHA  458.802865  EPSILON    2.242045  DELTA    1.6208E-02
 TTTTTTTTTTTTTTTTTTTTTTTTTTTTTT MOQGAD      TELAPSE   173973.78 TCPU   172637.65
 TTTTTTTTTTTTTTTTTTTTTTTTTTTTTT CP_MONMON   TELAPSE   174007.26 TCPU   172670.90
 DIIS TEST: 0.11424E-01 AT CPHF  CYCLE   8 - DIIS ACTIVE - HISTORY:     8 CYCLES
 CYCLE   8   ALPHA  458.800818  EPSILON    2.242039  DELTA   -2.0465E-03
 TTTTTTTTTTTTTTTTTTTTTTTTTTTTTT MOQGAD      TELAPSE   175671.91 TCPU   174321.96
 TTTTTTTTTTTTTTTTTTTTTTTTTTTTTT CP_MONMON   TELAPSE   175705.33 TCPU   174355.28
 DIIS TEST: 0.43674E-02 AT CPHF  CYCLE   9 - DIIS ACTIVE - HISTORY:     9 CYCLES
 CYCLE   9   ALPHA  458.827350  EPSILON    2.242111  DELTA    2.6532E-02
 TTTTTTTTTTTTTTTTTTTTTTTTTTTTTT MOQGAD      TELAPSE   177370.59 TCPU   176008.67
 TTTTTTTTTTTTTTTTTTTTTTTTTTTTTT CP_MONMON   TELAPSE   177404.28 TCPU   176042.25
 DIIS TEST: 0.17343E-03 AT CPHF  CYCLE  10 - DIIS ACTIVE - HISTORY:    10 CYCLES
 CYCLE  10   ALPHA  458.813346  EPSILON    2.242073  DELTA   -1.4004E-02
 TTTTTTTTTTTTTTTTTTTTTTTTTTTTTT MOQGAD      TELAPSE   179069.84 TCPU   177696.10
 TTTTTTTTTTTTTTTTTTTTTTTTTTTTTT CP_MONMON   TELAPSE   179103.12 TCPU   177729.24
 DIIS TEST: 0.25273E-04 AT CPHF  CYCLE  11 - DIIS ACTIVE - HISTORY:    11 CYCLES
 CYCLE  11   ALPHA  458.807890  EPSILON    2.242059  DELTA   -5.4554E-03
 TTTTTTTTTTTTTTTTTTTTTTTTTTTTTT MOQGAD      TELAPSE   180769.96 TCPU   179384.89
 TTTTTTTTTTTTTTTTTTTTTTTTTTTTTT CP_MONMON   TELAPSE   180803.57 TCPU   179418.41
 DIIS TEST: 0.27458E-05 AT CPHF  CYCLE  12 - DIIS ACTIVE - HISTORY:    12 CYCLES
 CYCLE  12   ALPHA  458.805214  EPSILON    2.242051  DELTA   -2.6768E-03
 TTTTTTTTTTTTTTTTTTTTTTTTTTTTTT MOQGAD      TELAPSE   182472.23 TCPU   181075.90
 TTTTTTTTTTTTTTTTTTTTTTTTTTTTTT CP_MONMON   TELAPSE   182505.54 TCPU   181109.05
 DIIS TEST: 0.43640E-06 AT CPHF  CYCLE  13 - DIIS ACTIVE - HISTORY:    13 CYCLES
 CYCLE  13   ALPHA  458.804787  EPSILON    2.242050  DELTA   -4.2635E-04
 TTTTTTTTTTTTTTTTTTTTTTTTTTTTTT CP_SC       TELAPSE   182600.61 TCPU   181197.86

 *******************************************************************************

 POLARIZABILITY (ALPHA), DIELECTRIC (EPSILON) AND FIRST-ORDER ELECTRIC
 SUSCEPTIBILITY (CHI(1)) TENSORS (INDEPENDENT COMPONENTS)

  FR.(eV) COMP.   ALPHA(Re,Im)           EPSILON(Re,Im)                CHI(1)
  2.331   XX     938.2765       0.0000       3.5400       0.0000       2.5400
  2.331   XY      -0.0010       0.0000      -0.0000       0.0000      -0.0000
  2.331   XZ      -0.0000       0.0000      -0.0000       0.0000      -0.0000
  2.331   YY     938.2765       0.0000       3.5400       0.0000       2.5400
  2.331   YZ      -0.0000       0.0000      -0.0000       0.0000      -0.0000
  2.331   ZZ     458.8048       0.0000       2.2421       0.0000       1.2421

 DIELECTRIC TENSOR

 TENSOR IN PRINCIPAL AXES SYSTEM
 AA  3.540046E+00 BB  3.540051E+00 CC  2.242050E+00

 REFRACTIVE INDICES 
 AA  1.497348E+00 BB  1.881501E+00 CC  1.881502E+00

 OPTICALLY ANISOTROPIC - UNIAXIAL CRYSTAL

 BIREFRINGENCE =  0.3842 (NEGATIVE) - OBLATE OPTICAL ELLIPSOID

 EPSILON=N**2=1+CHI(1)=1+ALPHA*4*PI/V,   4*PI/V=   0.00271 BOHR**(-3)
 ALPHA IN BOHR**3; EPSILON AND CHI(1) ARE DIMENSIONLESS.
 *******************************************************************************


  Pockels Effect beta(-omega;omega,0) with omega=   1.1653 eV


 SIZE OF GRID=    1828110
 TTTTTTTTTTTTTTTTTTTTTTTTTTTTTT MAKE_GRID2  TELAPSE   183013.52 TCPU   181607.05
 BECKE WEIGHT FUNCTION
 RADSAFE =     2.00
 TOLERANCES - DENSITY:10**- 6; POTENTIAL:10**- 9; GRID WGT:10**-14

 RADIAL INTEGRATION  - INTERVALS (POINTS,UPPER LIMIT):            1( 75,  4.0*R)

 ANGULAR INTEGRATION - INTERVALS (ACCURACY LEVEL [N. POINTS] UPPER LIMIT):
  1(  4[  86]   0.2)  2(  8[ 194]   0.5)  3( 12[ 350]   0.9)  4( 16[ 974]   3.5)
  5( 12[ 350]9999.0)

 SIZE OF GRID=    1828110
 TTTTTTTTTTTTTTTTTTTTTTTTTTTTTT MAKE_GRID2  TELAPSE   183016.91 TCPU   181609.99
 BECKE WEIGHT FUNCTION
 RADSAFE =     2.00
 TOLERANCES - DENSITY:10**- 6; POTENTIAL:10**- 9; GRID WGT:10**-14

 RADIAL INTEGRATION  - INTERVALS (POINTS,UPPER LIMIT):            1( 75,  4.0*R)

 ANGULAR INTEGRATION - INTERVALS (ACCURACY LEVEL [N. POINTS] UPPER LIMIT):
  1(  4[  86]   0.2)  2(  8[ 194]   0.5)  3( 12[ 350]   0.9)  4( 16[ 974]   3.5)
  5( 12[ 350]9999.0)
 *******************************************************************************

 DC-POCKELS AND SECOND ELECTRIC SUSCEPTIBILITY (CHI(2))
 TENSORS (INDEPENDENT COMPONENTS)

BETA                                         CHI(2)       d(MKS)       d(cgs)
 *******************************************************************************

     XXX          0.5564E-04   0.7531E-07   0.7323E-07   0.1747E-08
     XXY          0.2135E-03   0.2890E-06   0.2810E-06   0.6703E-08
     XXZ          0.6497E+03   0.8795E+00   0.8551E+00   0.2040E-01
     XYX          0.8627E-02   0.1168E-04   0.1135E-04   0.2709E-06
     XYY          0.1531E-03   0.2072E-06   0.2014E-06   0.4806E-08
     XYZ          0.2851E+03   0.3859E+00   0.3753E+00   0.8952E-02
     XZX          0.6333E+03   0.8573E+00   0.8336E+00   0.1989E-01
     XZY          0.3034E+03   0.4107E+00   0.3994E+00   0.9527E-02
     XZZ          0.6779E-03   0.9176E-06   0.8922E-06   0.2129E-07
     YXX          0.8615E-02   0.1166E-04   0.1134E-04   0.2705E-06
     YXY          0.1705E-03   0.2308E-06   0.2244E-06   0.5354E-08
     YXZ          0.2851E+03   0.3859E+00   0.3753E+00   0.8952E-02
     YYX          0.1958E-04   0.2650E-07   0.2577E-07   0.6148E-09
     YYY          0.1667E-01   0.2256E-04   0.2194E-04   0.5234E-06
     YYZ         -0.6498E+03  -0.8795E+00  -0.8552E+00  -0.2040E-01
     YZX          0.3034E+03   0.4107E+00   0.3993E+00   0.9527E-02
     YZY         -0.6334E+03  -0.8573E+00  -0.8336E+00  -0.1989E-01
     YZZ          0.1423E-01   0.1927E-04   0.1873E-04   0.4469E-06
     ZXX          0.6334E+03   0.8574E+00   0.8337E+00   0.1989E-01
     ZXY          0.3034E+03   0.4107E+00   0.3993E+00   0.9526E-02
     ZXZ          0.5685E-03   0.7695E-06   0.7482E-06   0.1785E-07
     ZYX          0.3034E+03   0.4106E+00   0.3993E+00   0.9525E-02
     ZYY         -0.6335E+03  -0.8575E+00  -0.8337E+00  -0.1989E-01
     ZYZ          0.1423E-01   0.1927E-04   0.1873E-04   0.4469E-06
     ZZX          0.5295E-03   0.7167E-06   0.6969E-06   0.1663E-07
     ZZY          0.1388E-04   0.1879E-07   0.1827E-07   0.4358E-09
     ZZZ         -0.3005E-01  -0.4068E-04  -0.3955E-04  -0.9435E-06
 *******************************************************************************
 CHI(2) = BETA*2PI/V

 BETA AND CHI(2) IN A.U.:    [BETA] = M**(-1/2) L**(7/2) T
                             [CHI(2)] = 1/F
                             (L=LENGTH, M=MASS, T=TIME, F=FIELD INTENSITY)

 ELECTRIC SUSCEPTIBILITY IN THE SECOND HARMONIC GENERATION (SHG) CONVENTION IS:
                   d(A.U.)= 1/2 CHI(2)
                   d(MKS) = d(A.U.)/0.514220632 pm/V
                   d(CGS) = d(A.U.)/(4PI*1.7152535)  10**(-7) esu

 FIELD INTENSITY: 1 A.U. = 0.514220632*10**(11) V/m = 1.7152535*10**7 esu
 BEWARE:                CHI(2)=P/(E0*F**2)   (MKS)
                        CHI(2)=P/F**2        (CGS)
 WHERE P IS THE POLARIZATION VECTOR AND F IS THE APPLIED ELECTRIC FIELD.
 CONSISTENCY IS  PRESERVED BY MULTIPLYING THE CGS VALUE TIMES THE PERMITTIVITY
 OF THE VACUUM, E0 (CONVERSION FACTORS FROM www.physics.nist.gov/constants).
 IN PARENTHESIS: BETA BEFORE SYMMETRIZATION.

  SHG Effect beta(-2omega;omega,omega) with omega=   1.1653 eV


 SIZE OF GRID=    1828110
 TTTTTTTTTTTTTTTTTTTTTTTTTTTTTT MAKE_GRID2  TELAPSE   183349.50 TCPU   181940.59
 BECKE WEIGHT FUNCTION
 RADSAFE =     2.00
 TOLERANCES - DENSITY:10**- 6; POTENTIAL:10**- 9; GRID WGT:10**-14

 RADIAL INTEGRATION  - INTERVALS (POINTS,UPPER LIMIT):            1( 75,  4.0*R)

 ANGULAR INTEGRATION - INTERVALS (ACCURACY LEVEL [N. POINTS] UPPER LIMIT):
  1(  4[  86]   0.2)  2(  8[ 194]   0.5)  3( 12[ 350]   0.9)  4( 16[ 974]   3.5)
  5( 12[ 350]9999.0)

 SIZE OF GRID=    1828110
 TTTTTTTTTTTTTTTTTTTTTTTTTTTTTT MAKE_GRID2  TELAPSE   183352.33 TCPU   181943.40
 BECKE WEIGHT FUNCTION
 RADSAFE =     2.00
 TOLERANCES - DENSITY:10**- 6; POTENTIAL:10**- 9; GRID WGT:10**-14

 RADIAL INTEGRATION  - INTERVALS (POINTS,UPPER LIMIT):            1( 75,  4.0*R)

 ANGULAR INTEGRATION - INTERVALS (ACCURACY LEVEL [N. POINTS] UPPER LIMIT):
  1(  4[  86]   0.2)  2(  8[ 194]   0.5)  3( 12[ 350]   0.9)  4( 16[ 974]   3.5)
  5( 12[ 350]9999.0)
 *******************************************************************************

 SECOND HARMONIC GENERATION (SHG)  AND SECOND ELECTRIC SUSCEPTIBILITY (CHI(2))
 TENSORS (INDEPENDENT COMPONENTS)

BETA                                         CHI(2)       d(MKS)       d(cgs)
 *******************************************************************************

     XXX          0.1610E-03   0.2179E-06   0.2118E-06   0.5054E-08
     XXY          0.8593E-02   0.1163E-04   0.1131E-04   0.2698E-06
     XXZ          0.1155E+04   0.1563E+01   0.1520E+01   0.3626E-01
     XYX          0.8593E-02   0.1163E-04   0.1131E-04   0.2698E-06
     XYY          0.3761E-03   0.5090E-06   0.4950E-06   0.1181E-07
     XYZ          0.4836E+03   0.6546E+00   0.6365E+00   0.1519E-01
     XZX          0.1155E+04   0.1563E+01   0.1520E+01   0.3626E-01
     XZY          0.4836E+03   0.6546E+00   0.6365E+00   0.1519E-01
     XZZ          0.8904E-03   0.1205E-05   0.1172E-05   0.2796E-07
     YXX          0.1234E-03   0.1671E-06   0.1624E-06   0.3875E-08
     YXY          0.6871E-04   0.9300E-07   0.9043E-07   0.2157E-08
     YXZ          0.4837E+03   0.6547E+00   0.6366E+00   0.1519E-01
     YYX          0.6871E-04   0.9300E-07   0.9043E-07   0.2157E-08
     YYY          0.1646E-01   0.2229E-04   0.2167E-04   0.5170E-06
     YYZ         -0.1155E+04  -0.1563E+01  -0.1520E+01  -0.3627E-01
     YZX          0.4837E+03   0.6547E+00   0.6366E+00   0.1519E-01
     YZY         -0.1155E+04  -0.1563E+01  -0.1520E+01  -0.3627E-01
     YZZ         -0.2381E-04  -0.3223E-07  -0.3134E-07  -0.7477E-09
     ZXX          0.1128E+04   0.1527E+01   0.1485E+01   0.3542E-01
     ZXY          0.5584E+03   0.7558E+00   0.7349E+00   0.1753E-01
     ZXZ          0.5475E-03   0.7411E-06   0.7206E-06   0.1719E-07
     ZYX          0.5584E+03   0.7558E+00   0.7349E+00   0.1753E-01
     ZYY         -0.1128E+04  -0.1527E+01  -0.1485E+01  -0.3542E-01
     ZYZ          0.1446E-01   0.1957E-04   0.1903E-04   0.4540E-06
     ZZX          0.5475E-03   0.7411E-06   0.7206E-06   0.1719E-07
     ZZY          0.1446E-01   0.1957E-04   0.1903E-04   0.4540E-06
     ZZZ         -0.3033E-01  -0.4105E-04  -0.3992E-04  -0.9523E-06
 *******************************************************************************
 CHI(2) = BETA*2PI/V

 BETA AND CHI(2) IN A.U.:    [BETA] = M**(-1/2) L**(7/2) T
                             [CHI(2)] = 1/F
                             (L=LENGTH, M=MASS, T=TIME, F=FIELD INTENSITY)

 ELECTRIC SUSCEPTIBILITY IN THE SECOND HARMONIC GENERATION (SHG) CONVENTION IS:
                   d(A.U.)= 1/2 CHI(2)
                   d(MKS) = d(A.U.)/0.514220632 pm/V
                   d(CGS) = d(A.U.)/(4PI*1.7152535)  10**(-7) esu

 FIELD INTENSITY: 1 A.U. = 0.514220632*10**(11) V/m = 1.7152535*10**7 esu
 BEWARE:                CHI(2)=P/(E0*F**2)   (MKS)
                        CHI(2)=P/F**2        (CGS)
 WHERE P IS THE POLARIZATION VECTOR AND F IS THE APPLIED ELECTRIC FIELD.
 CONSISTENCY IS  PRESERVED BY MULTIPLYING THE CGS VALUE TIMES THE PERMITTIVITY
 OF THE VACUUM, E0 (CONVERSION FACTORS FROM www.physics.nist.gov/constants).
 IN PARENTHESIS: BETA BEFORE SYMMETRIZATION.

 *******************************************************************************


 GCALCO - MAX INDICES DIRECT LATTICE VECTOR    14    14    16
 NO.OF VECTORS CREATED 6999 STARS  484 RMAX   198.64190 BOHR

 CAPPA:IS1  3;IS2  3;IS3  3; K PTS MONK NET   6; SYMMOPS:K SPACE   8;G SPACE   4

 TTTTTTTTTTTTTTTTTTTTTTTTTTTTTT END         TELAPSE   183352.70 TCPU   181943.77
 EEEEEEEEEE TERMINATION  DATE 29 11 2023 TIME 09:36:47.2
NODE    0 CPU TIME =    181943.769
NODE    1 CPU TIME =    182421.659
NODE    2 CPU TIME =    182276.570
NODE    3 CPU TIME =    182349.590
NODE    4 CPU TIME =    182121.722
NODE    5 CPU TIME =    182392.095
NODE    6 CPU TIME =    182272.063
NODE    7 CPU TIME =    182319.177
NODE    8 CPU TIME =    182046.047
NODE    9 CPU TIME =    182359.116
NODE   10 CPU TIME =    182055.970
NODE   11 CPU TIME =    182113.146
NODE   12 CPU TIME =    181863.232
NODE   13 CPU TIME =    182145.892
NODE   14 CPU TIME =    182024.910
NODE   15 CPU TIME =    182084.237
NODE   16 CPU TIME =    181821.431
NODE   17 CPU TIME =    182160.661
NODE   18 CPU TIME =    181975.331
NODE   19 CPU TIME =    182062.832
NODE   20 CPU TIME =    181833.136
NODE   21 CPU TIME =    182123.352
NODE   22 CPU TIME =    181981.321
NODE   23 CPU TIME =    182012.947
    TOTAL CPU TIME =   4370760.205
trying normal rsh (/usr/bin/rsh)
exec: No such file or directory
trying normal rsh (/usr/bin/rsh)
exec: No such file or directory
trying normal rsh (/usr/bin/rsh)
exec: No such file or directory
trying normal rsh (/usr/bin/rsh)
exec: No such file or directory
