Loading crystal17/1.0.2/intel/19.0
  Loading requirement: intel/19.0 ompi/4.0.1/intel/19.0
 PROCESS            0  OF           24  WORKING
 PROCESS            6  OF           24  WORKING
 PROCESS            7  OF           24  WORKING
 PROCESS            9  OF           24  WORKING
 PROCESS           10  OF           24  WORKING
 PROCESS           11  OF           24  WORKING
 PROCESS           13  OF           24  WORKING
 PROCESS           14  OF           24  WORKING
 PROCESS           15  OF           24  WORKING
 PROCESS           16  OF           24  WORKING
 PROCESS           17  OF           24  WORKING
 PROCESS           18  OF           24  WORKING
 PROCESS           19  OF           24  WORKING
 PROCESS           20  OF           24  WORKING
 PROCESS           21  OF           24  WORKING
 PROCESS           22  OF           24  WORKING
 PROCESS           23  OF           24  WORKING
 PROCESS            1  OF           24  WORKING
 PROCESS            3  OF           24  WORKING
 PROCESS            4  OF           24  WORKING
 PROCESS            5  OF           24  WORKING
 PROCESS            8  OF           24  WORKING
 PROCESS           12  OF           24  WORKING
 PROCESS            2  OF           24  WORKING

         
 *******************************************************************************
 *                                                                             *
 *                               CRYSTAL17                                     *
 *                      public : 1.0.2 - March 1st, 2018                       *
 *                       HTTP://WWW.CRYSTAL.UNITO.IT                           *
 *                                                                             *
 *                              MAIN AUTHORS                                   *
 *                                                                             *
 *  R. DOVESI(1,11), V.R. SAUNDERS(2), C. ROETTI(1,11), R. ORLANDO(1,11),      *
 *  C.M. ZICOVICH-WILSON(1,3), F. PASCALE(4), B. CIVALLERI(1,11),              *
 *  K. DOLL(5), N.M. HARRISON(2,6), I.J. BUSH(7), Ph. D'ARCO(8),               *
 *  M. LLUNELL(9), M. CAUSA'(10), Y. NOEL(8), L. MASCHIO(1,11), A. ERBA(1,11)  *
 *  M. RE'RAT(14), S. CASASSA(1,11)                                            *
 *                                                                             *
 *        CONTRIBUTIONS TO THE CODE HAVE ALSO BEEN GIVEN BY                    *
 *                                                                             *
 *  M. FERRABONE(1,11), M. DE LA PIERRE(1,11), M. FERRERO(1,11),               *
 *  J. BAIMA(1,11), E. ALBANESE(1,11), M.F. PEINTINGER(12), R. BAST(13),       *
 *  B. KIRTMAN(15), V. LACIVITA(1,11), R. DEMICHELIS(1,16)                     *
 *  G. BRANDEBURG(17), S. SALUSTRO(1,11), G. SANSONE(1,11)                     *
 *  M.T. RUGGIERO(18)                                                          *
 *                                                                             *
 * (1) THEORETICAL CHEMISTRY GROUP - UNIVERSITA' DI TORINO - TORINO (ITALY)    *
 * (2) COMPUTATIONAL SCIENCE & ENGINEERING DEPARTMENT - STFC DARESBURY (UK)    *
 * (3) UNIVERSIDAD AUTONOMA DEL ESTADO DE MORELOS - CUERNAVACA (MEXICO)        *
 * (4) UNIVERSITE' DE LORRAINE - NANCY (FRANCE)                                *
 * (5) UNIVERSITAET STUTTGART- STUTTGART (GERMANY)                             *
 * (6) IMPERIAL COLLEGE - LONDON (UK)                                          *
 * (7) OXFORD E-RESEARCH CENTRE - OXFORD (UK)                                  *
 * (8) UPMC - SORBONNE UNIVERSITES - PARIS (FRANCE)                            *
 * (9) UNIVERSIDAD DE BARCELONA - BARCELONA (SPAIN)                            *
 *(10) UNIVERSITA' DI NAPOLI "FEDERICO II" - NAPOLI (ITALY)                    *
 *(11) NIS - NANOSTRUCTURED INTERFACES AND SURFACES - TORINO (ITALY)           *
 *(12) MPI FUER CHEMISCHE ENERGIEKONVERSION - MUELHEIM AN DER RUHR (GERMANY)   *
 *(13) UNIVERSITY OF TROMSO - TROMSO (NORWAY)                                  *
 *(14) UNIVERSITE' DE PAU ET DES PAYS DE L'ADOUR - PAU (FRANCE)                *
 *(15) UNIVERSITY OF CALIFORNIA SANTA BARBARA - SANTA BARBARA (USA)            *
 *(16) CURTIN UNIVERSITY - PERTH (AUSTRALIA)                                   *
 *(17) UNIVERSITY COLLEGE LONDON - LONDON (UK)                                 *
 *(18) CAMBRIDGE UNIVERSITY - CAMBRIDGE (UK)                                   *
 *                                                                             *
 *******************************************************************************
 EEEEEEEEEE STARTING  DATE 27 11 2023 TIME 11:09:27.5
 Z:\home\sanoj\Downloads\tmp_p\newconn.mol                                       

 CRYSTAL CALCULATION
 (INPUT ACCORDING TO THE INTERNATIONAL TABLES FOR X-RAY CRYSTALLOGRAPHY)
 CRYSTAL FAMILY                       :  TETRAGONAL  
 CRYSTAL CLASS  (GROTH - 1921)        :  TETRAGONAL DISPHENOIDAL              

 SPACE GROUP (NONCENTROSYMMETRIC)     :  I -4            

 LATTICE PARAMETERS  (ANGSTROMS AND DEGREES) - CONVENTIONAL CELL
        A           B           C        ALPHA        BETA       GAMMA
    10.49590    10.49590    12.52648    90.00000    90.00000    90.00000


 NUMBER OF IRREDUCIBLE ATOMS IN THE CONVENTIONAL CELL:   17

 INPUT COORDINATES

 ATOM AT. N.              COORDINATES
   1   1     5.588000000000E-02  7.784800000000E-01  3.595500000000E-01
   2   1     4.660000000000E-01  8.053800000000E-01  4.037400000000E-01
   3   1     8.338000000000E-02  5.396000000000E-01  3.560300000000E-01
   4   6     2.593400000000E-01  8.122700000000E-01  3.809300000000E-01
   5   6     2.522700000000E-01 -4.938000000000E-02  3.778300000000E-01
   6   6     1.501800000000E-01  7.356500000000E-01  3.686200000000E-01
   7   6     2.880600000000E-01  5.553400000000E-01  3.730600000000E-01
   8   6     3.779900000000E-01  7.512800000000E-01  3.914800000000E-01
   9   6     8.360200000000E-01  3.960100000000E-01  3.658200000000E-01
  10   7     3.447700000000E-01  2.788000000000E-02  3.391000000000E-01
  11   7     3.016000000000E-01  1.514900000000E-01  3.478700000000E-01
  12   7     1.537400000000E-01  2.433000000000E-02  4.098400000000E-01
  13   7     1.864500000000E-01  1.494300000000E-01  3.893700000000E-01
  14   7     3.921000000000E-01  6.243900000000E-01  3.861900000000E-01
  15   9     3.041600000000E-01  4.285900000000E-01  3.645300000000E-01
  16  30     0.000000000000E+00  5.000000000000E-01  7.500000000000E-01
  17  30     0.000000000000E+00  0.000000000000E+00  5.000000000000E-01

 *******************************************************************************

 << INFORMATION >>: FROM NOW ON, ALL COORDINATES REFER TO THE PRIMITIVE CELL

 *******************************************************************************

 LATTICE PARAMETERS  (ANGSTROMS AND DEGREES) - PRIMITIVE CELL
       A          B          C        ALPHA      BETA     GAMMA        VOLUME
    9.71134    9.71134    9.71134   114.57907 114.57907  99.67753    689.982636

 COORDINATES OF THE EQUIVALENT ATOMS (FRACTIONAL UNITS)

 N. ATOM EQUIV AT. N.          X                  Y                  Z

   1   1   1    1 H     1.38030000000E-01  4.15430000000E-01 -1.65640000000E-01
   2   1   2    1 H    -4.18930000000E-01  3.03670000000E-01  1.65640000000E-01
   3   1   3    1 H    -4.15430000000E-01  4.18930000000E-01 -2.77400000000E-01
   4   1   4    1 H    -3.03670000000E-01 -1.38030000000E-01  2.77400000000E-01

   5   2   1    1 H     2.09120000000E-01 -1.30260000000E-01  2.71380000000E-01
   6   2   2    1 H    -4.01640000000E-01 -6.22600000000E-02 -2.71380000000E-01
   7   2   3    1 H     1.30260000000E-01  4.01640000000E-01  3.39380000000E-01
   8   2   4    1 H     6.22600000000E-02 -2.09120000000E-01 -3.39380000000E-01

   9   3   1    1 H    -1.04370000000E-01  4.39410000000E-01 -3.77020000000E-01
  10   3   2    1 H    -1.83570000000E-01  2.72650000000E-01  3.77020000000E-01
  11   3   3    1 H    -4.39410000000E-01  1.83570000000E-01  4.56220000000E-01
  12   3   4    1 H    -2.72650000000E-01  1.04370000000E-01 -4.56220000000E-01

  13   4   1    6 C     1.93200000000E-01 -3.59730000000E-01  7.16100000000E-02
  14   4   2    6 C    -4.31340000000E-01  1.21590000000E-01 -7.16100000000E-02
  15   4   3    6 C     3.59730000000E-01  4.31340000000E-01 -4.47070000000E-01
  16   4   4    6 C    -1.21590000000E-01 -1.93200000000E-01  4.47070000000E-01

  17   5   1    6 C     3.28450000000E-01 -3.69900000000E-01  2.02890000000E-01
  18   5   2    6 C     4.27210000000E-01  1.25560000000E-01 -2.02890000000E-01
  19   5   3    6 C     3.69900000000E-01 -4.27210000000E-01 -3.01650000000E-01
  20   5   4    6 C    -1.25560000000E-01 -3.28450000000E-01  3.01650000000E-01

  21   6   1    6 C     1.04270000000E-01 -4.81200000000E-01 -1.14170000000E-01
  22   6   2    6 C    -3.67030000000E-01  2.18440000000E-01  1.14170000000E-01
  23   6   3    6 C     4.81200000000E-01  3.67030000000E-01 -4.14530000000E-01
  24   6   4    6 C    -2.18440000000E-01 -1.04270000000E-01  4.14530000000E-01

  25   7   1    6 C    -7.16000000000E-02 -3.38880000000E-01 -1.56600000000E-01
  26   7   2    6 C    -1.82280000000E-01  8.50000000000E-02  1.56600000000E-01
  27   7   3    6 C     3.38880000000E-01  1.82280000000E-01  2.67280000000E-01
  28   7   4    6 C    -8.50000000000E-02  7.16000000000E-02 -2.67280000000E-01

  29   8   1    6 C     1.42760000000E-01 -2.30530000000E-01  1.29270000000E-01
  30   8   2    6 C    -3.59800000000E-01  1.34900000000E-02 -1.29270000000E-01
  31   8   3    6 C     2.30530000000E-01  3.59800000000E-01  3.73290000000E-01
  32   8   4    6 C    -1.34900000000E-02 -1.42760000000E-01 -3.73290000000E-01

  33   9   1    6 C    -2.38170000000E-01  2.01840000000E-01  2.32030000000E-01
  34   9   2    6 C    -3.01900000000E-02 -4.70200000000E-01 -2.32030000000E-01
  35   9   3    6 C    -2.01840000000E-01  3.01900000000E-02 -4.40010000000E-01
  36   9   4    6 C     4.70200000000E-01  2.38170000000E-01  4.40010000000E-01

  37  10   1    7 N     3.66980000000E-01 -3.16130000000E-01  3.72650000000E-01
  38  10   2    7 N     3.11220000000E-01 -5.67000000000E-03 -3.72650000000E-01
  39  10   3    7 N     3.16130000000E-01 -3.11220000000E-01 -3.16890000000E-01
  40  10   4    7 N     5.67000000000E-03 -3.66980000000E-01  3.16890000000E-01

  41  11   1    7 N     4.99360000000E-01 -3.50530000000E-01  4.53090000000E-01
  42  11   2    7 N     1.96380000000E-01  4.62700000000E-02 -4.53090000000E-01
  43  11   3    7 N     3.50530000000E-01 -1.96380000000E-01 -1.50110000000E-01
  44  11   4    7 N    -4.62700000000E-02 -4.99360000000E-01  1.50110000000E-01

  45  12   1    7 N     4.34170000000E-01 -4.36420000000E-01  1.78070000000E-01
  46  12   2    7 N     3.85510000000E-01  2.56100000000E-01 -1.78070000000E-01
  47  12   3    7 N     4.36420000000E-01 -3.85510000000E-01 -1.29410000000E-01
  48  12   4    7 N    -2.56100000000E-01 -4.34170000000E-01  1.29410000000E-01

  49  13   1    7 N    -4.61200000000E-01 -4.24180000000E-01  3.35880000000E-01
  50  13   2    7 N     2.39940000000E-01  2.02920000000E-01 -3.35880000000E-01
  51  13   3    7 N     4.24180000000E-01 -2.39940000000E-01 -3.70200000000E-02
  52  13   4    7 N    -2.02920000000E-01  4.61200000000E-01  3.70200000000E-02

  53  14   1    7 N     1.05800000000E-02 -2.21710000000E-01  1.64900000000E-02
  54  14   2    7 N    -2.38200000000E-01 -5.91000000000E-03 -1.64900000000E-02
  55  14   3    7 N     2.21710000000E-01  2.38200000000E-01  2.32290000000E-01
  56  14   4    7 N     5.91000000000E-03 -1.05800000000E-02 -2.32290000000E-01

  57  15   1    9 F    -2.06880000000E-01 -3.31310000000E-01 -2.67250000000E-01
  58  15   2    9 F    -6.40600000000E-02  6.03700000000E-02  2.67250000000E-01
  59  15   3    9 F     3.31310000000E-01  6.40600000000E-02  1.24430000000E-01
  60  15   4    9 F    -6.03700000000E-02  2.06880000000E-01 -1.24430000000E-01

  61  16   1   30 ZN    2.50000000000E-01 -2.50000000000E-01 -5.00000000000E-01

  62  17   1   30 ZN   -5.00000000000E-01 -5.00000000000E-01  0.00000000000E+00

 NUMBER OF SYMMETRY OPERATORS         :    4
 *******************************************************************************
 * GEOMETRY EDITING - INPUT COORDINATES ARE GIVEN IN ANGSTROM         
 *******************************************************************************

 GEOMETRY NOW FULLY CONSISTENT WITH THE GROUP

 GCALCO - MAX INDICES DIRECT LATTICE VECTOR    14    14    16
 NO.OF VECTORS CREATED 6999 STARS  485 RMAX   198.94668 BOHR

 GEOMETRY FOR WAVE FUNCTION - DIMENSIONALITY OF THE SYSTEM    3
 (NON PERIODIC DIRECTION: LATTICE PARAMETER FORMALLY SET TO 500)
 *******************************************************************************
 LATTICE PARAMETERS (ANGSTROMS AND DEGREES) - BOHR = 0.5291772083 ANGSTROM
 PRIMITIVE CELL - CENTRING CODE 6/0 VOLUME=   689.982636 - DENSITY  1.887 g/cm^3
         A              B              C           ALPHA      BETA       GAMMA 
     9.71133841     9.71133841     9.71133841   114.579069 114.579069  99.677529
 *******************************************************************************
 ATOMS IN THE ASYMMETRIC UNIT   17 - ATOMS IN THE UNIT CELL:   62
     ATOM                 X/A                 Y/B                 Z/C    
 *******************************************************************************
      1 T   1 H     1.380300000000E-01  4.154300000000E-01 -1.656400000000E-01
      2 F   1 H    -4.189300000000E-01  3.036700000000E-01  1.656400000000E-01
      3 F   1 H    -4.154300000000E-01  4.189300000000E-01 -2.774000000000E-01
      4 F   1 H    -3.036700000000E-01 -1.380300000000E-01  2.774000000000E-01
      5 T   1 H     2.091200000000E-01 -1.302600000000E-01  2.713800000000E-01
      6 F   1 H    -4.016400000000E-01 -6.226000000000E-02 -2.713800000000E-01
      7 F   1 H     1.302600000000E-01  4.016400000000E-01  3.393800000000E-01
      8 F   1 H     6.226000000000E-02 -2.091200000000E-01 -3.393800000000E-01
      9 T   1 H    -1.043700000000E-01  4.394100000000E-01 -3.770200000000E-01
     10 F   1 H    -1.835700000000E-01  2.726500000000E-01  3.770200000000E-01
     11 F   1 H    -4.394100000000E-01  1.835700000000E-01  4.562200000000E-01
     12 F   1 H    -2.726500000000E-01  1.043700000000E-01 -4.562200000000E-01
     13 T   6 C     1.932000000000E-01 -3.597300000000E-01  7.161000000000E-02
     14 F   6 C    -4.313400000000E-01  1.215900000000E-01 -7.161000000000E-02
     15 F   6 C     3.597300000000E-01  4.313400000000E-01 -4.470700000000E-01
     16 F   6 C    -1.215900000000E-01 -1.932000000000E-01  4.470700000000E-01
     17 T   6 C     3.284500000000E-01 -3.699000000000E-01  2.028900000000E-01
     18 F   6 C     4.272100000000E-01  1.255600000000E-01 -2.028900000000E-01
     19 F   6 C     3.699000000000E-01 -4.272100000000E-01 -3.016500000000E-01
     20 F   6 C    -1.255600000000E-01 -3.284500000000E-01  3.016500000000E-01
     21 T   6 C     1.042700000000E-01 -4.812000000000E-01 -1.141700000000E-01
     22 F   6 C    -3.670300000000E-01  2.184400000000E-01  1.141700000000E-01
     23 F   6 C     4.812000000000E-01  3.670300000000E-01 -4.145300000000E-01
     24 F   6 C    -2.184400000000E-01 -1.042700000000E-01  4.145300000000E-01
     25 T   6 C    -7.160000000000E-02 -3.388800000000E-01 -1.566000000000E-01
     26 F   6 C    -1.822800000000E-01  8.500000000000E-02  1.566000000000E-01
     27 F   6 C     3.388800000000E-01  1.822800000000E-01  2.672800000000E-01
     28 F   6 C    -8.500000000000E-02  7.160000000000E-02 -2.672800000000E-01
     29 T   6 C     1.427600000000E-01 -2.305300000000E-01  1.292700000000E-01
     30 F   6 C    -3.598000000000E-01  1.349000000000E-02 -1.292700000000E-01
     31 F   6 C     2.305300000000E-01  3.598000000000E-01  3.732900000000E-01
     32 F   6 C    -1.349000000000E-02 -1.427600000000E-01 -3.732900000000E-01
     33 T   6 C    -2.381700000000E-01  2.018400000000E-01  2.320300000000E-01
     34 F   6 C    -3.019000000000E-02 -4.702000000000E-01 -2.320300000000E-01
     35 F   6 C    -2.018400000000E-01  3.019000000000E-02 -4.400100000000E-01
     36 F   6 C     4.702000000000E-01  2.381700000000E-01  4.400100000000E-01
     37 T   7 N     3.669800000000E-01 -3.161300000000E-01  3.726500000000E-01
     38 F   7 N     3.112200000000E-01 -5.670000000000E-03 -3.726500000000E-01
     39 F   7 N     3.161300000000E-01 -3.112200000000E-01 -3.168900000000E-01
     40 F   7 N     5.670000000000E-03 -3.669800000000E-01  3.168900000000E-01
     41 T   7 N     4.993600000000E-01 -3.505300000000E-01  4.530900000000E-01
     42 F   7 N     1.963800000000E-01  4.627000000000E-02 -4.530900000000E-01
     43 F   7 N     3.505300000000E-01 -1.963800000000E-01 -1.501100000000E-01
     44 F   7 N    -4.627000000000E-02 -4.993600000000E-01  1.501100000000E-01
     45 T   7 N     4.341700000000E-01 -4.364200000000E-01  1.780700000000E-01
     46 F   7 N     3.855100000000E-01  2.561000000000E-01 -1.780700000000E-01
     47 F   7 N     4.364200000000E-01 -3.855100000000E-01 -1.294100000000E-01
     48 F   7 N    -2.561000000000E-01 -4.341700000000E-01  1.294100000000E-01
     49 T   7 N    -4.612000000000E-01 -4.241800000000E-01  3.358800000000E-01
     50 F   7 N     2.399400000000E-01  2.029200000000E-01 -3.358800000000E-01
     51 F   7 N     4.241800000000E-01 -2.399400000000E-01 -3.702000000000E-02
     52 F   7 N    -2.029200000000E-01  4.612000000000E-01  3.702000000000E-02
     53 T   7 N     1.058000000000E-02 -2.217100000000E-01  1.649000000000E-02
     54 F   7 N    -2.382000000000E-01 -5.910000000000E-03 -1.649000000000E-02
     55 F   7 N     2.217100000000E-01  2.382000000000E-01  2.322900000000E-01
     56 F   7 N     5.910000000000E-03 -1.058000000000E-02 -2.322900000000E-01
     57 T   9 F    -2.068800000000E-01 -3.313100000000E-01 -2.672500000000E-01
     58 F   9 F    -6.406000000000E-02  6.037000000000E-02  2.672500000000E-01
     59 F   9 F     3.313100000000E-01  6.406000000000E-02  1.244300000000E-01
     60 F   9 F    -6.037000000000E-02  2.068800000000E-01 -1.244300000000E-01
     61 T  30 ZN    2.500000000000E-01 -2.500000000000E-01 -5.000000000000E-01
     62 T  30 ZN   -5.000000000000E-01 -5.000000000000E-01  0.000000000000E+00

 TRANSFORMATION MATRIX PRIMITIVE-CRYSTALLOGRAPHIC CELL
  0.0000  1.0000  1.0000  1.0000  0.0000  1.0000  1.0000  1.0000  0.0000

 *******************************************************************************
 CRYSTALLOGRAPHIC CELL (VOLUME=       1379.96527200)
         A              B              C           ALPHA      BETA       GAMMA 
    10.49589839    10.49589839    12.52647632    90.000000  90.000000  90.000000

 COORDINATES IN THE CRYSTALLOGRAPHIC CELL
     ATOM                 X/A                 Y/B                 Z/C    
 *******************************************************************************
      1 T   1 H     5.588000000000E-02 -2.215200000000E-01  3.595500000000E-01
      2 F   1 H    -5.588000000000E-02  2.215200000000E-01  3.595500000000E-01
      3 F   1 H    -2.215200000000E-01 -5.588000000000E-02 -3.595500000000E-01
      4 F   1 H     2.215200000000E-01  5.588000000000E-02 -3.595500000000E-01
      5 T   1 H    -3.400000000000E-02  3.053800000000E-01 -9.626000000000E-02
      6 F   1 H     3.400000000000E-02 -3.053800000000E-01 -9.626000000000E-02
      7 F   1 H     3.053800000000E-01  3.400000000000E-02  9.626000000000E-02
      8 F   1 H    -3.053800000000E-01 -3.400000000000E-02  9.626000000000E-02
      9 T   1 H    -4.166200000000E-01  3.960000000000E-02 -1.439700000000E-01
     10 F   1 H     4.166200000000E-01 -3.960000000000E-02 -1.439700000000E-01
     11 F   1 H     3.960000000000E-02  4.166200000000E-01  1.439700000000E-01
     12 F   1 H    -3.960000000000E-02 -4.166200000000E-01  1.439700000000E-01
     13 T   6 C    -2.406600000000E-01  3.122700000000E-01 -1.190700000000E-01
     14 F   6 C     2.406600000000E-01 -3.122700000000E-01 -1.190700000000E-01
     15 F   6 C     3.122700000000E-01  2.406600000000E-01  1.190700000000E-01
     16 F   6 C    -3.122700000000E-01 -2.406600000000E-01  1.190700000000E-01
     17 T   6 C     2.522700000000E-01 -4.938000000000E-02  3.778300000000E-01
     18 F   6 C    -2.522700000000E-01  4.938000000000E-02  3.778300000000E-01
     19 F   6 C    -4.938000000000E-02 -2.522700000000E-01 -3.778300000000E-01
     20 F   6 C     4.938000000000E-02  2.522700000000E-01 -3.778300000000E-01
     21 T   6 C    -3.498200000000E-01  2.356500000000E-01 -1.313800000000E-01
     22 F   6 C     3.498200000000E-01 -2.356500000000E-01 -1.313800000000E-01
     23 F   6 C     2.356500000000E-01  3.498200000000E-01  1.313800000000E-01
     24 F   6 C    -2.356500000000E-01 -3.498200000000E-01  1.313800000000E-01
     25 T   6 C    -2.119400000000E-01  5.534000000000E-02 -1.269400000000E-01
     26 F   6 C     2.119400000000E-01 -5.534000000000E-02 -1.269400000000E-01
     27 F   6 C     5.534000000000E-02  2.119400000000E-01  1.269400000000E-01
     28 F   6 C    -5.534000000000E-02 -2.119400000000E-01  1.269400000000E-01
     29 T   6 C    -1.220100000000E-01  2.512800000000E-01 -1.085200000000E-01
     30 F   6 C     1.220100000000E-01 -2.512800000000E-01 -1.085200000000E-01
     31 F   6 C     2.512800000000E-01  1.220100000000E-01  1.085200000000E-01
     32 F   6 C    -2.512800000000E-01 -1.220100000000E-01  1.085200000000E-01
     33 T   6 C     3.360200000000E-01 -1.039900000000E-01 -1.341800000000E-01
     34 F   6 C    -3.360200000000E-01  1.039900000000E-01 -1.341800000000E-01
     35 F   6 C    -1.039900000000E-01 -3.360200000000E-01  1.341800000000E-01
     36 F   6 C     1.039900000000E-01  3.360200000000E-01  1.341800000000E-01
     37 T   7 N     3.447700000000E-01  2.788000000000E-02  3.391000000000E-01
     38 F   7 N    -3.447700000000E-01 -2.788000000000E-02  3.391000000000E-01
     39 F   7 N     2.788000000000E-02 -3.447700000000E-01 -3.391000000000E-01
     40 F   7 N    -2.788000000000E-02  3.447700000000E-01 -3.391000000000E-01
     41 T   7 N    -1.984000000000E-01 -3.485100000000E-01 -1.521300000000E-01
     42 F   7 N     1.984000000000E-01  3.485100000000E-01 -1.521300000000E-01
     43 F   7 N    -3.485100000000E-01  1.984000000000E-01  1.521300000000E-01
     44 F   7 N     3.485100000000E-01 -1.984000000000E-01  1.521300000000E-01
     45 T   7 N     1.537400000000E-01  2.433000000000E-02  4.098400000000E-01
     46 F   7 N    -1.537400000000E-01 -2.433000000000E-02  4.098400000000E-01
     47 F   7 N     2.433000000000E-02 -1.537400000000E-01 -4.098400000000E-01
     48 F   7 N    -2.433000000000E-02  1.537400000000E-01 -4.098400000000E-01
     49 T   7 N    -3.135500000000E-01 -3.505700000000E-01 -1.106300000000E-01
     50 F   7 N     3.135500000000E-01  3.505700000000E-01 -1.106300000000E-01
     51 F   7 N    -3.505700000000E-01  3.135500000000E-01  1.106300000000E-01
     52 F   7 N     3.505700000000E-01 -3.135500000000E-01  1.106300000000E-01
     53 T   7 N    -1.079000000000E-01  1.243900000000E-01 -1.138100000000E-01
     54 F   7 N     1.079000000000E-01 -1.243900000000E-01 -1.138100000000E-01
     55 F   7 N     1.243900000000E-01  1.079000000000E-01  1.138100000000E-01
     56 F   7 N    -1.243900000000E-01 -1.079000000000E-01  1.138100000000E-01
     57 T   9 F    -1.958400000000E-01 -7.141000000000E-02 -1.354700000000E-01
     58 F   9 F     1.958400000000E-01  7.141000000000E-02 -1.354700000000E-01
     59 F   9 F    -7.141000000000E-02  1.958400000000E-01  1.354700000000E-01
     60 F   9 F     7.141000000000E-02 -1.958400000000E-01  1.354700000000E-01
     61 T  30 ZN   -5.000000000000E-01 -4.477975674000E-17  2.500000000000E-01
     62 T  30 ZN    0.000000000000E+00  0.000000000000E+00 -5.000000000000E-01

 T = ATOM BELONGING TO THE ASYMMETRIC UNIT

 ****    4 SYMMOPS - TRANSLATORS IN FRACTIONAL UNITS
 **** MATRICES AND TRANSLATORS IN THE CRYSTALLOGRAPHIC REFERENCE FRAME
   V INV                    ROTATION MATRICES                   TRANSLATORS
   1   1  1.00  0.00  0.00  0.00  1.00  0.00  0.00  0.00  1.00  0.00  0.00  0.00
   2   2 -0.00  1.00 -1.00  1.00 -0.00 -1.00  0.00  0.00 -1.00  0.00  0.00  0.00
   3   4  0.00 -1.00 -0.00  0.00 -1.00  1.00  1.00 -1.00  0.00  0.00  0.00  0.00
   4   3 -1.00  0.00  1.00 -1.00  0.00 -0.00 -1.00  1.00  0.00  0.00  0.00  0.00

 DIRECT LATTICE VECTORS CARTESIAN COMPONENTS (ANGSTROM)
          X                    Y                    Z
  -0.524794919430E+01   0.524794919430E+01   0.626323816220E+01
   0.524794919430E+01  -0.524794919430E+01   0.626323816220E+01
   0.524794919430E+01   0.524794919430E+01  -0.626323816220E+01


 CARTESIAN COORDINATES - PRIMITIVE CELL
 *******************************************************************************
 *      ATOM          X(ANGSTROM)         Y(ANGSTROM)         Z(ANGSTROM)
 *******************************************************************************
    1     1 H     5.865108019550E-01 -2.325051411043E+00  4.503894562438E+00
    2     1 H    -5.865108019550E-01  2.325051411043E+00  4.503894562438E+00
    3     1 H    -2.325051411043E+00 -5.865108019550E-01 -4.503894562438E+00
    4     1 H     2.325051411043E+00  5.865108019550E-01 -4.503894562438E+00
    5     1 H    -3.568605452124E-01  3.205237449911E+00 -1.205798610987E+00
    6     1 H     3.568605452124E-01 -3.205237449911E+00 -1.205798610987E+00
    7     1 H     3.205237449911E+00  3.568605452124E-01  1.205798610987E+00
    8     1 H    -3.205237449911E+00 -3.568605452124E-01  1.205798610987E+00
    9     1 H    -4.372801186659E+00  4.156375761886E-01 -1.803436796424E+00
   10     1 H     4.372801186659E+00 -4.156375761886E-01 -1.803436796424E+00
   11     1 H     4.156375761886E-01  4.372801186659E+00  1.803436796424E+00
   12     1 H    -4.156375761886E-01 -4.372801186659E+00  1.803436796424E+00
   13     6 C    -2.525942906200E+00  3.277554189808E+00 -1.491527535946E+00
   14     6 C     2.525942906200E+00 -3.277554189808E+00 -1.491527535946E+00
   15     6 C     3.277554189808E+00  2.525942906200E+00  1.491527535946E+00
   16     6 C    -3.277554189808E+00 -2.525942906200E+00  1.491527535946E+00
   17     6 C     2.647800286492E+00 -5.182874624291E-01  4.732878549648E+00
   18     6 C    -2.647800286492E+00  5.182874624291E-01  4.732878549648E+00
   19     6 C    -5.182874624291E-01 -2.647800286492E+00 -4.732878549648E+00
   20     6 C     5.182874624291E-01  2.647800286492E+00 -4.732878549648E+00
   21     6 C    -3.671675174300E+00  2.473358455274E+00 -1.645728459500E+00
   22     6 C     3.671675174300E+00 -2.473358455274E+00 -1.645728459500E+00
   23     6 C     2.473358455274E+00  3.671675174300E+00  1.645728459500E+00
   24     6 C    -2.473358455274E+00 -3.671675174300E+00  1.645728459500E+00
   25     6 C    -2.224500704480E+00  5.808430168251E-01 -1.590110904619E+00
   26     6 C     2.224500704480E+00 -5.808430168251E-01 -1.590110904619E+00
   27     6 C     5.808430168251E-01  2.224500704480E+00  1.590110904619E+00
   28     6 C    -5.808430168251E-01 -2.224500704480E+00  1.590110904619E+00
   29     6 C    -1.280604562393E+00  2.637409347087E+00 -1.359373210724E+00
   30     6 C     1.280604562393E+00 -2.637409347087E+00 -1.359373210724E+00
   31     6 C     2.637409347087E+00  1.280604562393E+00  1.359373210724E+00
   32     6 C    -2.637409347087E+00 -1.280604562393E+00  1.359373210724E+00
   33     6 C     3.526831776537E+00 -1.091468473431E+00 -1.680802593208E+00
   34     6 C    -3.526831776537E+00  1.091468473431E+00 -1.680802593208E+00
   35     6 C    -1.091468473431E+00 -3.526831776537E+00  1.680802593208E+00
   36     6 C     1.091468473431E+00  3.526831776537E+00  1.680802593208E+00
   37     7 N     3.618670887438E+00  2.926256470742E-01  4.247728121604E+00
   38     7 N    -3.618670887438E+00 -2.926256470742E-01  4.247728121604E+00
   39     7 N     2.926256470742E-01 -3.618670887438E+00 -4.247728121604E+00
   40     7 N    -2.926256470742E-01  3.618670887438E+00 -4.247728121604E+00
   41     7 N    -2.082386240298E+00 -3.657925547411E+00 -1.905652843231E+00
   42     7 N     2.082386240298E+00  3.657925547411E+00 -1.905652843231E+00
   43     7 N    -3.657925547411E+00  2.082386240298E+00  1.905652843231E+00
   44     7 N     3.657925547411E+00 -2.082386240298E+00  1.905652843231E+00
   45     7 N     1.613639418263E+00  2.553652077946E-01  5.133851056792E+00
   46     7 N    -1.613639418263E+00 -2.553652077946E-01  5.133851056792E+00
   47     7 N     2.553652077946E-01 -1.613639418263E+00 -5.133851056792E+00
   48     7 N    -2.553652077946E-01  1.613639418263E+00 -5.133851056792E+00
   49     7 N    -3.290988939746E+00 -3.679547098092E+00 -1.385804075768E+00
   50     7 N     3.290988939746E+00  3.679547098092E+00 -1.385804075768E+00
   51     7 N    -3.679547098092E+00  3.290988939746E+00  1.385804075768E+00
   52     7 N     3.679547098092E+00 -3.290988939746E+00  1.385804075768E+00
   53     7 N    -1.132507436130E+00  1.305584800558E+00 -1.425638270480E+00
   54     7 N     1.132507436130E+00 -1.305584800558E+00 -1.425638270480E+00
   55     7 N     1.305584800558E+00  1.132507436130E+00  1.425638270480E+00
   56     7 N    -1.305584800558E+00 -1.132507436130E+00  1.425638270480E+00
   57     9 F    -2.055516740423E+00 -7.495121039299E-01 -1.696961747666E+00
   58     9 F     2.055516740423E+00  7.495121039299E-01 -1.696961747666E+00
   59     9 F    -7.495121039299E-01  2.055516740423E+00  1.696961747666E+00
   60     9 F     7.495121039299E-01 -2.055516740423E+00  1.696961747666E+00
   61    30 ZN    5.247949194300E+00 -4.700037766092E-16 -9.394857243300E+00
   62    30 ZN    0.000000000000E+00  0.000000000000E+00  6.263238162200E+00

 *******************************************************************************
 STARTING BASIS SET HANDLING 
 *******************************************************************************

 Loading internal basis set: POB-DZVPP           

 Please cite in your publication:
 Peintinger, M. F., Oliveira, D. V. and Bredow, T. (2013), Generally applicable 
 solid-state Gaussian basis sets, in preparation                                
                                                                                
                    

 *******************************************************************************
 LOCAL ATOMIC FUNCTIONS BASIS SET
 *******************************************************************************
   ATOM   X(AU)   Y(AU)   Z(AU)  N. TYPE  EXPONENT  S COEF   P COEF   D/F/G COEF
 *******************************************************************************
   1 H    1.108  -4.394   8.511
                                  1 S  
                                         2.263E+01 1.441E-02 0.000E+00 0.000E+00
                                         3.236E+00 1.072E-01 0.000E+00 0.000E+00
                                         7.304E-01 3.846E-01 0.000E+00 0.000E+00
                                  2 S  
                                         1.417E-01 1.000E+00 0.000E+00 0.000E+00
                           3-     5 P  
                                         3.944E-01 0.000E+00 1.000E+00 0.000E+00
                           6-     8 P  
                                         1.006E-01 0.000E+00 1.000E+00 0.000E+00
   2 H   -1.108   4.394   8.511
   3 H   -4.394  -1.108  -8.511
   4 H    4.394   1.108  -8.511
   5 H   -0.674   6.057  -2.279
   6 H    0.674  -6.057  -2.279
   7 H    6.057   0.674   2.279
   8 H   -6.057  -0.674   2.279
   9 H   -8.263   0.785  -3.408
  10 H    8.263  -0.785  -3.408
  11 H    0.785   8.263   3.408
  12 H   -0.785  -8.263   3.408
  13 C   -4.773   6.194  -2.819
                                 97 S  
                                         1.238E+03 5.457E-03 0.000E+00 0.000E+00
                                         1.863E+02 4.064E-02 0.000E+00 0.000E+00
                                         4.225E+01 1.803E-01 0.000E+00 0.000E+00
                                         1.168E+01 4.632E-01 0.000E+00 0.000E+00
                                         3.593E+00 4.409E-01 0.000E+00 0.000E+00
                                 98 S  
                                         5.281E+00 1.000E+00 0.000E+00 0.000E+00
                                 99 S  
                                         4.447E-01 1.000E+00 0.000E+00 0.000E+00
                         100-   102 P  
                                         9.468E+00 0.000E+00 3.839E-02 0.000E+00
                                         2.010E+00 0.000E+00 2.112E-01 0.000E+00
                                         5.477E-01 0.000E+00 5.133E-01 0.000E+00
                         103-   105 P  
                                         1.604E-01 0.000E+00 1.000E+00 0.000E+00
                         106-   110 D  
                                         6.070E-01 0.000E+00 0.000E+00 1.000E+00
                         111-   115 D  
                                         2.939E-01 0.000E+00 0.000E+00 1.000E+00
  14 C    4.773  -6.194  -2.819
  15 C    6.194   4.773   2.819
  16 C   -6.194  -4.773   2.819
  17 C    5.004  -0.979   8.944
  18 C   -5.004   0.979   8.944
  19 C   -0.979  -5.004  -8.944
  20 C    0.979   5.004  -8.944
  21 C   -6.938   4.674  -3.110
  22 C    6.938  -4.674  -3.110
  23 C    4.674   6.938   3.110
  24 C   -4.674  -6.938   3.110
  25 C   -4.204   1.098  -3.005
  26 C    4.204  -1.098  -3.005
  27 C    1.098   4.204   3.005
  28 C   -1.098  -4.204   3.005
  29 C   -2.420   4.984  -2.569
  30 C    2.420  -4.984  -2.569
  31 C    4.984   2.420   2.569
  32 C   -4.984  -2.420   2.569
  33 C    6.665  -2.063  -3.176
  34 C   -6.665   2.063  -3.176
  35 C   -2.063  -6.665   3.176
  36 C    2.063   6.665   3.176
  37 N    6.838   0.553   8.027
                                553 S  
                                         1.713E+03-5.393E-03 0.000E+00 0.000E+00
                                         2.576E+02-4.022E-02 0.000E+00 0.000E+00
                                         5.846E+01-1.793E-01 0.000E+00 0.000E+00
                                         1.620E+01-4.638E-01 0.000E+00 0.000E+00
                                         5.005E+00-4.417E-01 0.000E+00 0.000E+00
                                554 S  
                                         6.217E-01 1.000E+00 0.000E+00 0.000E+00
                                555 S  
                                         2.921E-01 1.000E+00 0.000E+00 0.000E+00
                         556-   558 P  
                                         1.357E+01 0.000E+00-4.007E-02 0.000E+00
                                         2.926E+00 0.000E+00-2.181E-01 0.000E+00
                                         7.993E-01 0.000E+00-5.129E-01 0.000E+00
                         559-   561 P  
                                         2.244E-01 0.000E+00 1.000E+00 0.000E+00
                         562-   566 D  
                                         3.118E-01 0.000E+00 0.000E+00 1.000E+00
  38 N   -6.838  -0.553   8.027
  39 N    0.553  -6.838  -8.027
  40 N   -0.553   6.838  -8.027
  41 N   -3.935  -6.912  -3.601
  42 N    3.935   6.912  -3.601
  43 N   -6.912   3.935   3.601
  44 N    6.912  -3.935   3.601
  45 N    3.049   0.483   9.702
  46 N   -3.049  -0.483   9.702
  47 N    0.483  -3.049  -9.702
  48 N   -0.483   3.049  -9.702
  49 N   -6.219  -6.953  -2.619
  50 N    6.219   6.953  -2.619
  51 N   -6.953   6.219   2.619
  52 N    6.953  -6.219   2.619
  53 N   -2.140   2.467  -2.694
  54 N    2.140  -2.467  -2.694
  55 N    2.467   2.140   2.694
  56 N   -2.467  -2.140   2.694
  57 F   -3.884  -1.416  -3.207
                                833 S  
                                         2.895E+03-5.341E-03 0.000E+00 0.000E+00
                                         4.354E+02-3.990E-02 0.000E+00 0.000E+00
                                         9.884E+01-1.791E-01 0.000E+00 0.000E+00
                                         2.749E+01-4.676E-01 0.000E+00 0.000E+00
                                         8.541E+00-4.465E-01 0.000E+00 0.000E+00
                                834 S  
                                         1.123E+00 1.000E+00 0.000E+00 0.000E+00
                                835 S  
                                         3.743E-01 1.000E+00 0.000E+00 0.000E+00
                         836-   838 P  
                                         2.270E+01 0.000E+00-4.521E-02 0.000E+00
                                         4.987E+00 0.000E+00-2.375E-01 0.000E+00
                                         1.349E+00 0.000E+00-5.129E-01 0.000E+00
                         839-   841 P  
                                         3.474E-01 0.000E+00 1.000E+00 0.000E+00
                         842-   846 D  
                                         9.203E-01 0.000E+00 0.000E+00 1.000E+00
                         847-   851 D  
                                         3.977E-01 0.000E+00 0.000E+00 1.000E+00
  58 F    3.884   1.416  -3.207
  59 F   -1.416   3.884   3.207
  60 F    1.416  -3.884   3.207
  61 ZN   9.917  -0.000 -17.754
                                909 S  
                                         8.200E+04 1.421E-03 0.000E+00 0.000E+00
                                         1.231E+04 1.089E-02 0.000E+00 0.000E+00
                                         2.801E+03 5.406E-02 0.000E+00 0.000E+00
                                         7.910E+02 1.885E-01 0.000E+00 0.000E+00
                                         2.576E+02 3.835E-01 0.000E+00 0.000E+00
                                         8.881E+01 2.972E-01 0.000E+00 0.000E+00
                                910 S  
                                         1.719E+02-1.105E-01 0.000E+00 0.000E+00
                                         2.030E+01 6.461E-01 0.000E+00 0.000E+00
                                         8.346E+00 4.422E-01 0.000E+00 0.000E+00
                                911 S  
                                         1.485E+01-2.271E-01 0.000E+00 0.000E+00
                                         2.450E+00 7.243E-01 0.000E+00 0.000E+00
                                         9.985E-01 4.484E-01 0.000E+00 0.000E+00
                                912 S  
                                         1.493E+00 1.000E+00 0.000E+00 0.000E+00
                                913 S  
                                         1.830E-01 1.000E+00 0.000E+00 0.000E+00
                         914-   916 P  
                                         1.072E+03 0.000E+00 9.277E-03 0.000E+00
                                         2.527E+02 0.000E+00 6.954E-02 0.000E+00
                                         8.010E+01 0.000E+00 2.716E-01 0.000E+00
                                         2.890E+01 0.000E+00 5.340E-01 0.000E+00
                                         1.077E+01 0.000E+00 3.450E-01 0.000E+00
                         917-   919 P  
                                         5.645E+00 0.000E+00 3.413E-01 0.000E+00
                                         2.168E+00 0.000E+00 5.639E-01 0.000E+00
                                         8.054E-01 0.000E+00 2.368E-01 0.000E+00
                         920-   922 P  
                                         2.721E-01 0.000E+00 1.000E+00 0.000E+00
                         923-   927 D  
                                         5.609E+01 0.000E+00 0.000E+00 2.959E-02
                                         1.575E+01 0.000E+00 0.000E+00 1.587E-01
                                         5.312E+00 0.000E+00 0.000E+00 3.798E-01
                                         1.774E+00 0.000E+00 0.000E+00 4.690E-01
                         928-   932 D  
                                         5.073E-01 0.000E+00 0.000E+00 1.000E+00
                         933-   939 F  
                                         2.814E+00 0.000E+00 0.000E+00 1.000E+00
                         940-   946 F  
                                         1.300E+00 0.000E+00 0.000E+00 1.000E+00
  62 ZN   0.000   0.000  11.836

 *******************************************************************************
 FINISHED BASIS SET HANDLING 
 *******************************************************************************

 INFORMATION **** SET_MPP **** PCRYSTAL CALCULATION
 INFORMATION **** READM2 **** NEW DEFAULT: FOCK/KS MATRIX MIXING SET TO 30 %
 INFORMATION **** READM2 **** NEW DEFAULT: FULL DIRECT SCF MODE
 INFORMATION **** READM2 **** NEW DEFAULT: COULOMB BIPOLAR BUFFER SET TO 32 Mb
 INFORMATION **** READM2 **** NEW DEFAULT: EXCHANGE BIPOLAR BUFFER SET TO 32 Mb

 *******************************************************************************
 NEW DEFAULT: DFT INTEGRATION GRID INCREASED TO XLGRID
 NEW DEFAULT: DIIS ACCELERATOR ACTIVE
 USE KEYWORD NODIIS TO TURN IT OFF
 *******************************************************************************

 INFORMATION **** DFTD3_INPUT **** PERFORM DISPERSION CORRECTION DFT-D3(BJ) IN THE BECKE-JOHNSON DAMPING SCHEME

 PLEASE CITE:
 (1) DFT-D3 Reference
  S. Grimme, J. Antony, S. Ehrlich, and H. Krieg, J. Chem. Phys. 132 (2010), 154104
 (2) BJ-Damping Reference
  S. Grimme, S. Ehrlich, and L. Goerigk, J. Comput. Chem. 32 (2011), 1456-1465
 (3) General DFT-D Review
  S. Grimme, A. Hansen, J. G. Brandenburg, and C. Bannwarth,
  Chem. Rev. 116 (2016), 5105-5154

 INFORMATION **** TOLINTEG **** COULOMB AND EXCHANGE SERIES TOLERANCES MODIFIED
 INFORMATION **** BIPOSIZE **** COULOMB BIPOLAR BUFFER SET TO   100000000
 INFORMATION **** MAXCYCLE **** MAX NUMBER OF SCF CYCLES SET TO          50
 *******************************************************************************
 N. OF ATOMS PER CELL        62  COULOMB OVERLAP TOL         (T1) 10**  -12
 NUMBER OF SHELLS           388  COULOMB PENETRATION TOL     (T2) 10**  -12
 NUMBER OF AO               984  EXCHANGE OVERLAP TOL        (T3) 10**   20
 N. OF ELECTRONS PER CELL   392  EXCHANGE PSEUDO OVP (F(G))  (T4) 10**   20
 CORE ELECTRONS PER CELL    132  EXCHANGE PSEUDO OVP (P(G))  (T5) 10**   20
 N. OF SYMMETRY OPERATORS     4  POLE ORDER IN MONO ZONE                  4
 *******************************************************************************
 TYPE OF CALCULATION :  RESTRICTED CLOSED SHELL
 KOHN-SHAM HAMILTONIAN

 (EXCHANGE)[CORRELATION] FUNCTIONAL:(PERDEW-BURKE-ERNZERHOF)[PERDEW-BURKE-ERNZERHOF]


 CAPPA:IS1  3;IS2  3;IS3  3; K PTS MONK NET   6; SYMMOPS:K SPACE   8;G SPACE   4

 *******************************************************************************
 MAX NUMBER OF SCF CYCLES      50  CONVERGENCE ON DELTAP        10**-16
 WEIGHT OF F(I) IN F(I+1)      30% CONVERGENCE ON ENERGY        10**- 6
 SHRINK. FACT.(MONKH.)    3  3  3  NUMBER OF K POINTS IN THE IBZ      6
 SHRINKING FACTOR(GILAT NET)    3  NUMBER OF K POINTS(GILAT NET)      6
 *******************************************************************************
 *** K POINTS COORDINATES (OBLIQUE COORDINATES IN UNITS OF IS =  3)
   1-R(  0  0  0)   2-C(  1  0  0)   3-C(  1  1  0)   4-C(  2  1  0)
   5-C(  2  1  1)   6-C(  2  2  1)

 DIRECT LATTICE VECTORS COMPON. (A.U.)     RECIP. LATTICE VECTORS COMPON. (A.U.) 
        X            Y            Z              X            Y            Z
   -9.9171867    9.9171867   11.8358048      0.0000000    0.3167826    0.2654313
    9.9171867   -9.9171867   11.8358048      0.3167826    0.0000000    0.2654313
    9.9171867    9.9171867  -11.8358048      0.3167826    0.3167826    0.0000000

 DISK SPACE FOR EIGENVECTORS (FTN 10)    10650816 REALS

 SYMMETRY ADAPTION OF THE BLOCH FUNCTIONS ENABLED
 TTTTTTTTTTTTTTTTTTTTTTTTTTTTTT gordsh1     TELAPSE       23.19 TCPU        0.08

 MATRIX SIZE: P(G) 1849588, F(G)  925838, P(G) IRR  234110, F(G) IRR  234110
 MAX G-VECTOR INDEX FOR 1- AND 2-ELECTRON INTEGRALS  63

 TTTTTTTTTTTTTTTTTTTTTTTTTTTTTT INPUT       TELAPSE       26.20 TCPU        3.08

 NEIGHBORS OF THE NON-EQUIVALENT ATOMS

 N = NUMBER OF NEIGHBORS AT DISTANCE R
    ATOM  N     R/ANG      R/AU   NEIGHBORS (ATOM LABELS AND CELL INDICES)
   1 H    1     1.0930     2.0655   21 C    0 1 0
   1 H    1     2.1558     4.0739   34 C    0 1 0
   1 H    1     2.1812     4.1220   13 C    0 1 0
   1 H    1     2.5242     4.7701    9 H    0 1 0
   1 H    1     2.6798     5.0641   50 N    0 0-1
   1 H    1     2.7506     5.1979   17 C    0 0 0

   5 H    1     1.0951     2.0695   29 C    0 0 0
   5 H    1     2.0636     3.8997   53 N    0 0 0
   5 H    1     2.1890     4.1366   13 C    0 0 0
   5 H    1     2.5777     4.8712   42 N    0 0 0
   5 H    1     2.7316     5.1619   17 C    0-1 0
   5 H    1     2.7682     5.2312   38 N    0 0 1

   9 H    1     1.0897     2.0592   34 C    0 0 0
   9 H    1     1.9377     3.6617   10 H    0-1-1
   9 H    1     2.1652     4.0916   25 C    0 0 0
   9 H    1     2.1796     4.1189   21 C    0 0 0
   9 H    1     2.5242     4.7701    1 H    0-1 0
   9 H    1     2.5959     4.9055   57 F    0 0 0

  13 C    1     1.4065     2.6578   29 C    0 0 0
  13 C    1     1.4083     2.6612   21 C    0 0 0
  13 C    1     1.4545     2.7486   17 C    0-1 0
  13 C    1     2.1812     4.1220    1 H    0-1 0
  13 C    1     2.1890     4.1366    5 H    0 0 0
  13 C    1     2.4118     4.5576   34 C    0 0 0

  17 C    1     1.3523     2.5555   45 N    0 0 0
  17 C    1     1.3548     2.5602   37 N    0 0 0
  17 C    1     1.4545     2.7486   13 C    0 1 0
  17 C    1     2.2028     4.1627   49 N    1 1 1
  17 C    1     2.2032     4.1634   41 N    1 1 1
  17 C    1     2.4795     4.6856   29 C    0 1 0

  21 C    1     1.0930     2.0655    1 H    0-1 0
  21 C    1     1.3899     2.6265   34 C    0 0 0
  21 C    1     1.4083     2.6612   13 C    0 0 0
  21 C    1     2.1796     4.1189    9 H    0 0 0
  21 C    1     2.3831     4.5033   25 C    0 0 0
  21 C    1     2.4137     4.5613   29 C    0 0 0

  25 C    1     1.3209     2.4961   53 N    0 0 0
  25 C    1     1.3453     2.5422   57 F    0 0 0
  25 C    1     1.4018     2.6490   34 C    0 0 0
  25 C    1     2.1652     4.0916    9 H    0 0 0
  25 C    1     2.2746     4.2983   29 C    0 0 0
  25 C    1     2.3831     4.5033   21 C    0 0 0

  29 C    1     1.0951     2.0695    5 H    0 0 0
  29 C    1     1.3417     2.5354   53 N    0 0 0
  29 C    1     1.4065     2.6578   13 C    0 0 0
  29 C    1     2.2746     4.2983   25 C    0 0 0
  29 C    1     2.4137     4.5613   21 C    0 0 0
  29 C    1     2.4795     4.6856   17 C    0-1 0

  33 C    1     1.0897     2.0592   10 H    0 0 0
  33 C    1     1.3899     2.6265   22 C    0 0 0
  33 C    1     1.4018     2.6490   26 C    0 0 0
  33 C    1     2.1558     4.0739    2 H   -1 0 0
  33 C    1     2.3567     4.4536   58 F    0 0 0
  33 C    1     2.4118     4.5576   14 C    0 0 0

  37 N    1     1.3548     2.5602   17 C    0 0 0
  37 N    1     1.3786     2.6052   41 N    1 1 1
  37 N    1     1.9965     3.7728   61 ZN   1 1 0
  37 N    1     2.1876     4.1339   49 N    1 1 1
  37 N    1     2.1924     4.1431   45 N    0 0 0
  37 N    1     2.4899     4.7053   13 C    0 1 0

  41 N    1     1.3158     2.4866   49 N    0 0 0
  41 N    1     1.3786     2.6052   37 N   -1-1-1
  41 N    1     2.1891     4.1369   45 N   -1-1-1
  41 N    1     2.2032     4.1634   17 C   -1-1-1
  41 N    1     2.5777     4.8712    6 H    0 0 0
  41 N    1     2.8927     5.4663   61 ZN   0 0-1

  45 N    1     1.3523     2.5555   17 C    0 0 0
  45 N    1     1.3812     2.6101   49 N    1 1 1
  45 N    1     1.9861     3.7532   62 ZN   0 0 0
  45 N    1     2.1891     4.1369   41 N    1 1 1
  45 N    1     2.1924     4.1431   37 N    0 0 0
  45 N    1     2.5127     4.7483   13 C    0 1 0

  49 N    1     1.3158     2.4866   41 N    0 0 0
  49 N    1     1.3812     2.6101   45 N   -1-1-1
  49 N    1     2.1876     4.1339   37 N   -1-1-1
  49 N    1     2.2028     4.1627   17 C   -1-1-1
  49 N    1     2.6798     5.0641    2 H   -1-1-1
  49 N    1     2.8653     5.4147   62 ZN  -1-1-1

  53 N    1     1.3209     2.4961   25 C    0 0 0
  53 N    1     1.3417     2.5354   29 C    0 0 0
  53 N    1     2.0636     3.8997    5 H    0 0 0
  53 N    1     2.2691     4.2880   57 F    0 0 0
  53 N    1     2.4155     4.5646   13 C    0 0 0
  53 N    1     2.4174     4.5682   34 C    0 0 0

  57 F    1     1.3453     2.5422   25 C    0 0 0
  57 F    1     2.2691     4.2880   53 N    0 0 0
  57 F    1     2.3567     4.4536   34 C    0 0 0
  57 F    1     2.5959     4.9055    9 H    0 0 0
  57 F    1     2.8246     5.3376    3 H    0 0 0
  57 F    1     2.9160     5.5105   41 N    0 0 0

  61 ZN   4     1.9965     3.7728   37 N   -1-1 0   38 N   -1 0 1   39 N    0 0 1
                                    40 N   -1 0 0
  61 ZN   4     2.8300     5.3479    5 H   -1 0 0    6 H    0 0 1    7 H   -1-1 0
                                     8 H   -1 0 1
  61 ZN   4     2.8927     5.4663   41 N    0 0 1   42 N   -1 0 0   43 N   -1 0 1
                                    44 N   -1-1 0
  61 ZN   4     3.0973     5.8531   17 C   -1-1 0   18 C   -1 0 1   19 C    0 0 1
                                    20 C   -1 0 0
  61 ZN   4     3.4052     6.4350   29 C   -1 0 0   30 C    0 0 1   31 C   -1-1 0
                                    32 C   -1 0 1
  61 ZN   4     3.5990     6.8011   13 C   -1 0 0   14 C    0 0 1   15 C   -1-1 0
                                    16 C   -1 0 1

  62 ZN   4     1.9861     3.7532   45 N    0 0 0   46 N    0 0 0   47 N    1 1 0
                                    48 N    1 1 0
  62 ZN   4     2.8653     5.4147   49 N    1 1 1   50 N    0 0-1   51 N    0 1 0
                                    52 N    1 0 0
  62 ZN   4     2.9741     5.6202    1 H    0 0 0    2 H    0 0 0    3 H    1 1 0
                                     4 H    1 1 0
  62 ZN   4     3.1018     5.8616   17 C    0 0 0   18 C    0 0 0   19 C    1 1 0
                                    20 C    1 1 0
  62 ZN   4     3.5905     6.7850   21 C    0 1 0   22 C    1 0 0   23 C    0 0-1
                                    24 C    1 1 1
  62 ZN   4     3.6765     6.9475   13 C    0 1 0   14 C    1 0 0   15 C    0 0-1
                                    16 C    1 1 1


 SYMMETRY ALLOWED INTERNAL DEGREE(S) OF FREEDOM:  45
 TTTTTTTTTTTTTTTTTTTTTTTTTTTTTT SYMM        TELAPSE       26.96 TCPU        3.84
 TTTTTTTTTTTTTTTTTTTTTTTTTTTTTT INT_SCREEN  TELAPSE       26.97 TCPU        3.85
 INFORMATION **** EXCBUF **** EXCH. BIPO BUFFER: WORDS USED =           0

 DFT PARAMETERS

     ATOM       ELECTRONS   NET CHARGE   R(ANGSTROM)
   1   1  H       1.0000      0.0000     1.11000000
  13   6  C       6.0000      0.0000     0.77000000
  37   7  N       7.0000      0.0000     0.74000000
  57   9  F       9.0000      0.0000     0.72000000
  61  30  ZN     30.0000      0.0000     1.37000000

 SIZE OF GRID=     458044
 TTTTTTTTTTTTTTTTTTTTTTTTTTTTTT MAKE_GRID2  TELAPSE       27.89 TCPU        4.76
 BECKE WEIGHT FUNCTION
 RADSAFE =     2.00
 TOLERANCES - DENSITY:10**- 6; POTENTIAL:10**- 9; GRID WGT:10**-14

 RADIAL INTEGRATION  - INTERVALS (POINTS,UPPER LIMIT):            1( 75,  4.0*R)

 ANGULAR INTEGRATION - INTERVALS (ACCURACY LEVEL [N. POINTS] UPPER LIMIT):
  1(  4[  86]   0.2)  2(  8[ 194]   0.5)  3( 12[ 350]   0.9)  4( 16[ 974]   3.5)
  5( 12[ 350]9999.0)
 TTTTTTTTTTTTTTTTTTTTTTTTTTTTTT INT_CALC    TELAPSE       27.94 TCPU        4.81
 EEEEEEEEEE INT_CALC TERMINATION  DATE 27 11 2023 TIME 11:09:55.4

 *******************************************************************************
 Z:\home\sanoj\Downloads\tmp_p\newconn.mol                                       
 CRYSTAL - SCF - TYPE OF CALCULATION :  RESTRICTED CLOSED SHELL
 *******************************************************************************

 CAPPA:IS1  3;IS2  3;IS3  3; K PTS MONK NET   6; SYMMOPS:K SPACE   8;G SPACE   4

 TTTTTTTTTTTTTTTTTTTTTTTTTTTTTT SDIK        TELAPSE       28.16 TCPU        5.03

 AAAAAAAAAAAAAAAAAAAAAAAAAAAAAAAAAAAAAAAAAAAAAAAAAAAAAAAAAAAAAAAAAAAAAAAAAAAAAAA
         ATOMIC WAVEFUNCTION(S)


 NUCLEAR CHARGE  1.0  SYMMETRY SPECIES            S
 N. ELECTRONS    1.0  NUMBER OF PRIMITIVE GTOS    4
                      NUMBER OF CONTRACTED GTOS   2
                      NUMBER OF CLOSED SHELLS     0
                      OPEN SHELL OCCUPATION       1

  ZNUC SCFIT  TOTAL HF ENERGY   KINETIC ENERGY   VIRIAL THEOREM ACCURACY
   1.0   1   -4.946643675E-01  4.917913167E-01 -2.005842012E+00  9.4E-17

 NUCLEAR CHARGE  6.0  SYMMETRY SPECIES            S    P
 N. ELECTRONS    6.0  NUMBER OF PRIMITIVE GTOS    7    4
                      NUMBER OF CONTRACTED GTOS   3    2
                      NUMBER OF CLOSED SHELLS     2    0
                      OPEN SHELL OCCUPATION       0    2

  ZNUC SCFIT  TOTAL HF ENERGY   KINETIC ENERGY   VIRIAL THEOREM ACCURACY
   6.0   6   -3.750912652E+01  3.905246519E+01 -1.960480378E+00  3.7E-06

 NUCLEAR CHARGE  7.0  SYMMETRY SPECIES            S    P
 N. ELECTRONS    7.0  NUMBER OF PRIMITIVE GTOS    7    4
                      NUMBER OF CONTRACTED GTOS   3    2
                      NUMBER OF CLOSED SHELLS     2    0
                      OPEN SHELL OCCUPATION       0    3

  ZNUC SCFIT  TOTAL HF ENERGY   KINETIC ENERGY   VIRIAL THEOREM ACCURACY
   7.0   9   -5.432196661E+01  5.425066284E+01 -2.001314339E+00  1.2E-06

 NUCLEAR CHARGE  9.0  SYMMETRY SPECIES            S    P
 N. ELECTRONS    9.0  NUMBER OF PRIMITIVE GTOS    7    4
                      NUMBER OF CONTRACTED GTOS   3    2
                      NUMBER OF CLOSED SHELLS     2    0
                      OPEN SHELL OCCUPATION       0    5

  ZNUC SCFIT  TOTAL HF ENERGY   KINETIC ENERGY   VIRIAL THEOREM ACCURACY
   9.0  14   -9.927886620E+01  9.927374065E+01 -2.000051630E+00  4.0E-06

 NUCLEAR CHARGE 30.0  SYMMETRY SPECIES            S    P    D
 N. ELECTRONS   30.0  NUMBER OF PRIMITIVE GTOS   14    9    5
                      NUMBER OF CONTRACTED GTOS   5    3    2
                      NUMBER OF CLOSED SHELLS     4    2    1
                      OPEN SHELL OCCUPATION       0    0    0

  ZNUC SCFIT  TOTAL HF ENERGY   KINETIC ENERGY   VIRIAL THEOREM ACCURACY
  30.0  10   -1.777404290E+03  1.777325716E+03 -2.000044209E+00  2.5E-06

 AAAAAAAAAAAAAAAAAAAAAAAAAAAAAAAAAAAAAAAAAAAAAAAAAAAAAAAAAAAAAAAAAAAAAAAAAAAAAAA

 TOTAL ATOMIC CHARGES:
   1.0000000   1.0000000   1.0000000   1.0000000   1.0000000   1.0000000
   1.0000000   1.0000000   1.0000000   1.0000000   1.0000000   1.0000000
   6.0000000   6.0000000   6.0000000   6.0000000   6.0000000   6.0000000
   6.0000000   6.0000000   6.0000000   6.0000000   6.0000000   6.0000000
   6.0000000   6.0000000   6.0000000   6.0000000   6.0000000   6.0000000
   6.0000000   6.0000000   6.0000000   6.0000000   6.0000000   6.0000000
   7.0000000   7.0000000   7.0000000   7.0000000   7.0000000   7.0000000
   7.0000000   7.0000000   7.0000000   7.0000000   7.0000000   7.0000000
   7.0000000   7.0000000   7.0000000   7.0000000   7.0000000   7.0000000
   7.0000000   7.0000000   9.0000000   9.0000000   9.0000000   9.0000000
  30.0000000  30.0000000
 TTTTTTTTTTTTTTTTTTTTTTTTTTTTTT MOQGAD      TELAPSE       31.75 TCPU        8.62
 TTTTTTTTTTTTTTTTTTTTTTTTTTTTTT SHELLXN     TELAPSE      116.90 TCPU       87.02
 TTTTTTTTTTTTTTTTTTTTTTTTTTTTTT MONMO3      TELAPSE      125.92 TCPU       95.98
 NUMERICALLY INTEGRATED DENSITY    392.0000005981
 TTTTTTTTTTTTTTTTTTTTTTTTTTTTTT NUMDFT      TELAPSE      128.41 TCPU       98.45
 CYC   0 ETOT(AU) -5.973085961600E+03 DETOT -5.97E+03 tst  0.00E+00 PX  1.00E+00
 TTTTTTTTTTTTTTTTTTTTTTTTTTTTTT DIIS        TELAPSE      128.49 TCPU       98.53
 TTTTTTTTTTTTTTTTTTTTTTTTTTTTTT FDIK        TELAPSE      162.60 TCPU      124.99
 INSULATING STATE
 TOP OF VALENCE BANDS -    BAND    196; K    4; EIG -1.3391075E-01 AU
 TOP OF VALENCE BANDS -    BAND    196; K    1; EIG -1.3431647E-01 AU
 BOTTOM OF VIRTUAL BANDS - BAND    197; K    6; EIG -1.0043859E-01 AU
 INDIRECT ENERGY BAND GAP:   0.9108 eV
 BOTTOM OF VIRTUAL BANDS - BAND    197; K    1; EIG -9.9785360E-02 AU
 TTTTTTTTTTTTTTTTTTTTTTTTTTTTTT PDIG        TELAPSE      163.14 TCPU      125.53
 TOTAL ATOMIC CHARGES:
   1.2155019   1.2155019   1.2155019   1.2155019   1.3162386   1.3162386
   1.3162386   1.3162386   1.1443173   1.1443173   1.1443173   1.1443173
   6.0921260   6.0921260   6.0921260   6.0921260   5.4661060   5.4661060
   5.4661060   5.4661060   6.0771132   6.0771132   6.0771132   6.0771132
   5.0183316   5.0183316   5.0183316   5.0183316   5.7555765   5.7555765
   5.7555765   5.7555765   6.0849966   6.0849966   6.0849966   6.0849966
   7.3718299   7.3718299   7.3718299   7.3718299   7.1798393   7.1798393
   7.1798393   7.1798393   7.3666965   7.3666965   7.3666965   7.3666965
   7.1739572   7.1739572   7.1739572   7.1739572   7.5764334   7.5764334
   7.5764334   7.5764334   9.2792957   9.2792957   9.2792957   9.2792957
  27.7299364  27.7966244
 TTTTTTTTTTTTTTTTTTTTTTTTTTTTTT MOQGAD      TELAPSE      163.19 TCPU      125.57
 TTTTTTTTTTTTTTTTTTTTTTTTTTTTTT SHELLXN     TELAPSE      258.42 TCPU      216.30
 TTTTTTTTTTTTTTTTTTTTTTTTTTTTTT MONMO3      TELAPSE      264.53 TCPU      222.39
 NUMERICALLY INTEGRATED DENSITY    392.0000018558
 TTTTTTTTTTTTTTTTTTTTTTTTTTTTTT NUMDFT      TELAPSE      271.60 TCPU      229.42
 CYC   1 ETOT(AU) -5.967857363816E+03 DETOT  5.23E+00 tst  0.00E+00 PX  1.00E+00
 TTTTTTTTTTTTTTTTTTTTTTTTTTTTTT DIIS        TELAPSE      271.93 TCPU      229.75
 DIIS TEST: 0.13759E+02 AT SCF   CYCLE   1 - MIX   30 %
 TTTTTTTTTTTTTTTTTTTTTTTTTTTTTT FDIK        TELAPSE      284.01 TCPU      239.67
 INSULATING STATE
 TOP OF VALENCE BANDS -    BAND    196; K    1; EIG -1.5687086E-01 AU
 BOTTOM OF VIRTUAL BANDS - BAND    197; K    6; EIG -1.1999229E-01 AU
 INDIRECT ENERGY BAND GAP:   1.0035 eV
 BOTTOM OF VIRTUAL BANDS - BAND    197; K    1; EIG -1.1819375E-01 AU
 TTTTTTTTTTTTTTTTTTTTTTTTTTTTTT PDIG        TELAPSE      284.55 TCPU      240.22
 TOTAL ATOMIC CHARGES:
   1.1865791   1.1865791   1.1865791   1.1865791   1.3188676   1.3188676
   1.3188676   1.3188676   1.1051665   1.1051665   1.1051665   1.1051665
   6.1080349   6.1080349   6.1080349   6.1080349   6.1542613   6.1542613
   6.1542613   6.1542613   6.2228877   6.2228877   6.2228877   6.2228877
   6.2209271   6.2209271   6.2209271   6.2209271   6.1946260   6.1946260
   6.1946260   6.1946260   5.8609662   5.8609662   5.8609662   5.8609662
   6.9715270   6.9715270   6.9715270   6.9715270   6.7937903   6.7937903
   6.7937903   6.7937903   6.9407562   6.9407562   6.9407562   6.9407562
   6.8298844   6.8298844   6.8298844   6.8298844   6.1721780   6.1721780
   6.1721780   6.1721780   8.9964162   8.9964162   8.9964162   8.9964162
  29.8843086  29.8082176
 TTTTTTTTTTTTTTTTTTTTTTTTTTTTTT MOQGAD      TELAPSE      284.60 TCPU      240.26
 TTTTTTTTTTTTTTTTTTTTTTTTTTTTTT SHELLXN     TELAPSE      377.97 TCPU      330.91
 TTTTTTTTTTTTTTTTTTTTTTTTTTTTTT MONMO3      TELAPSE      384.12 TCPU      337.03
 NUMERICALLY INTEGRATED DENSITY    392.0000003883
 TTTTTTTTTTTTTTTTTTTTTTTTTTTTTT NUMDFT      TELAPSE      391.24 TCPU      344.12
 CYC   2 ETOT(AU) -5.967088845634E+03 DETOT  7.69E-01 tst  1.09E-01 PX  7.96E-01
 TTTTTTTTTTTTTTTTTTTTTTTTTTTTTT DIIS        TELAPSE      391.94 TCPU      344.83
 DIIS TEST: 0.15129E+02 AT SCF   CYCLE   2 - DIIS ACTIVE - HISTORY:     2 CYCLES
 TTTTTTTTTTTTTTTTTTTTTTTTTTTTTT FDIK        TELAPSE      403.25 TCPU      353.69
 INSULATING STATE
 TOP OF VALENCE BANDS -    BAND    196; K    3; EIG -2.5161430E-01 AU
 TOP OF VALENCE BANDS -    BAND    196; K    1; EIG -2.5345833E-01 AU
 BOTTOM OF VIRTUAL BANDS - BAND    197; K    1; EIG -1.1432212E-01 AU
 INDIRECT ENERGY BAND GAP:   3.7359 eV
 TTTTTTTTTTTTTTTTTTTTTTTTTTTTTT PDIG        TELAPSE      403.79 TCPU      354.23
 TOTAL ATOMIC CHARGES:
   1.1587287   1.1587287   1.1587287   1.1587287   1.2518417   1.2518417
   1.2518417   1.2518417   1.0917035   1.0917035   1.0917035   1.0917035
   5.8791160   5.8791160   5.8791160   5.8791160   5.7065129   5.7065129
   5.7065129   5.7065129   6.0152402   6.0152402   6.0152402   6.0152402
   5.5729524   5.5729524   5.5729524   5.5729524   5.8839260   5.8839260
   5.8839260   5.8839260   5.9287763   5.9287763   5.9287763   5.9287763
   7.0472972   7.0472972   7.0472972   7.0472972   7.1603041   7.1603041
   7.1603041   7.1603041   7.0556363   7.0556363   7.0556363   7.0556363
   7.1386163   7.1386163   7.1386163   7.1386163   7.4579514   7.4579514
   7.4579514   7.4579514   9.1429957   9.1429957   9.1429957   9.1429957
  29.0188721  29.0147334
 TTTTTTTTTTTTTTTTTTTTTTTTTTTTTT MOQGAD      TELAPSE      403.84 TCPU      354.28
 TTTTTTTTTTTTTTTTTTTTTTTTTTTTTT SHELLXN     TELAPSE      497.43 TCPU      445.10
 TTTTTTTTTTTTTTTTTTTTTTTTTTTTTT MONMO3      TELAPSE      503.08 TCPU      450.73
 NUMERICALLY INTEGRATED DENSITY    392.0000010733
 TTTTTTTTTTTTTTTTTTTTTTTTTTTTTT NUMDFT      TELAPSE      510.06 TCPU      457.67
 CYC   3 ETOT(AU) -5.969711534854E+03 DETOT -2.62E+00 tst  5.72E-03 PX  7.22E-01
 TTTTTTTTTTTTTTTTTTTTTTTTTTTTTT DIIS        TELAPSE      510.31 TCPU      457.92
 DIIS TEST: 0.23650E+01 AT SCF   CYCLE   3 - DIIS ACTIVE - HISTORY:     3 CYCLES
 TTTTTTTTTTTTTTTTTTTTTTTTTTTTTT FDIK        TELAPSE      523.08 TCPU      468.47
 INSULATING STATE
 TOP OF VALENCE BANDS -    BAND    196; K    1; EIG -2.2312705E-01 AU
 BOTTOM OF VIRTUAL BANDS - BAND    197; K    4; EIG -1.1728151E-01 AU
 INDIRECT ENERGY BAND GAP:   2.8802 eV
 BOTTOM OF VIRTUAL BANDS - BAND    197; K    1; EIG -1.1543280E-01 AU
 TTTTTTTTTTTTTTTTTTTTTTTTTTTTTT PDIG        TELAPSE      523.62 TCPU      469.01
 TOTAL ATOMIC CHARGES:
   1.1268737   1.1268737   1.1268737   1.1268737   1.2578574   1.2578574
   1.2578574   1.2578574   1.0925096   1.0925096   1.0925096   1.0925096
   6.1491629   6.1491629   6.1491629   6.1491629   5.7573250   5.7573250
   5.7573250   5.7573250   6.2685893   6.2685893   6.2685893   6.2685893
   5.4347572   5.4347572   5.4347572   5.4347572   5.8837140   5.8837140
   5.8837140   5.8837140   6.0482577   6.0482577   6.0482577   6.0482577
   7.2216273   7.2216273   7.2216273   7.2216273   6.9910149   6.9910149
   6.9910149   6.9910149   7.2161783   7.2161783   7.2161783   7.2161783
   7.0405785   7.0405785   7.0405785   7.0405785   6.9481466   6.9481466
   6.9481466   6.9481466   9.1743242   9.1743242   9.1743242   9.1743242
  28.7664698  28.7898638
 TTTTTTTTTTTTTTTTTTTTTTTTTTTTTT MOQGAD      TELAPSE      523.67 TCPU      469.06
 TTTTTTTTTTTTTTTTTTTTTTTTTTTTTT SHELLXN     TELAPSE      616.90 TCPU      559.67
 TTTTTTTTTTTTTTTTTTTTTTTTTTTTTT MONMO3      TELAPSE      625.21 TCPU      567.97
 NUMERICALLY INTEGRATED DENSITY    391.9999998930
 TTTTTTTTTTTTTTTTTTTTTTTTTTTTTT NUMDFT      TELAPSE      632.24 TCPU      574.97
 CYC   4 ETOT(AU) -5.969867464771E+03 DETOT -1.56E-01 tst  2.40E-03 PX  1.48E-01
 TTTTTTTTTTTTTTTTTTTTTTTTTTTTTT DIIS        TELAPSE      632.40 TCPU      575.13
 DIIS TEST: 0.12639E+01 AT SCF   CYCLE   4 - DIIS ACTIVE - HISTORY:     4 CYCLES
 TTTTTTTTTTTTTTTTTTTTTTTTTTTTTT FDIK        TELAPSE      643.37 TCPU      584.85
 INSULATING STATE
 TOP OF VALENCE BANDS -    BAND    196; K    2; EIG -2.5006435E-01 AU
 TOP OF VALENCE BANDS -    BAND    196; K    1; EIG -2.5050084E-01 AU
 BOTTOM OF VIRTUAL BANDS - BAND    197; K    4; EIG -1.1482981E-01 AU
 INDIRECT ENERGY BAND GAP:   3.6799 eV
 BOTTOM OF VIRTUAL BANDS - BAND    197; K    1; EIG -1.1263737E-01 AU
 TTTTTTTTTTTTTTTTTTTTTTTTTTTTTT PDIG        TELAPSE      643.91 TCPU      585.39
 TOTAL ATOMIC CHARGES:
   1.1384275   1.1384275   1.1384275   1.1384275   1.2470661   1.2470661
   1.2470661   1.2470661   1.0868301   1.0868301   1.0868301   1.0868301
   6.0573933   6.0573933   6.0573933   6.0573933   5.7638759   5.7638759
   5.7638759   5.7638759   6.1476390   6.1476390   6.1476390   6.1476390
   5.5755844   5.5755844   5.5755844   5.5755844   5.9575663   5.9575663
   5.9575663   5.9575663   6.0044627   6.0044627   6.0044627   6.0044627
   7.1578411   7.1578411   7.1578411   7.1578411   7.0693320   7.0693320
   7.0693320   7.0693320   7.0921565   7.0921565   7.0921565   7.0921565
   7.0440859   7.0440859   7.0440859   7.0440859   7.0811664   7.0811664
   7.0811664   7.0811664   9.1464653   9.1464653   9.1464653   9.1464653
  28.8609479  28.8594814
 TTTTTTTTTTTTTTTTTTTTTTTTTTTTTT MOQGAD      TELAPSE      643.96 TCPU      585.44
 TTTTTTTTTTTTTTTTTTTTTTTTTTTTTT SHELLXN     TELAPSE      737.25 TCPU      676.17
 TTTTTTTTTTTTTTTTTTTTTTTTTTTTTT MONMO3      TELAPSE      742.59 TCPU      681.48
 NUMERICALLY INTEGRATED DENSITY    392.0000010675
 TTTTTTTTTTTTTTTTTTTTTTTTTTTTTT NUMDFT      TELAPSE      749.57 TCPU      688.44
 CYC   5 ETOT(AU) -5.970049472525E+03 DETOT -1.82E-01 tst  5.94E-04 PX  1.22E-01
 TTTTTTTTTTTTTTTTTTTTTTTTTTTTTT DIIS        TELAPSE      749.78 TCPU      688.65
 DIIS TEST: 0.54696E-01 AT SCF   CYCLE   5 - DIIS ACTIVE - HISTORY:     5 CYCLES
 TTTTTTTTTTTTTTTTTTTTTTTTTTTTTT FDIK        TELAPSE      762.21 TCPU      696.48
 INSULATING STATE
 TOP OF VALENCE BANDS -    BAND    196; K    6; EIG -2.4843023E-01 AU
 TOP OF VALENCE BANDS -    BAND    196; K    1; EIG -2.4860189E-01 AU
 BOTTOM OF VIRTUAL BANDS - BAND    197; K    4; EIG -1.1596328E-01 AU
 INDIRECT ENERGY BAND GAP:   3.6046 eV
 BOTTOM OF VIRTUAL BANDS - BAND    197; K    1; EIG -1.1312731E-01 AU
 TTTTTTTTTTTTTTTTTTTTTTTTTTTTTT PDIG        TELAPSE      762.75 TCPU      697.02
 TOTAL ATOMIC CHARGES:
   1.1397113   1.1397113   1.1397113   1.1397113   1.2481949   1.2481949
   1.2481949   1.2481949   1.0866392   1.0866392   1.0866392   1.0866392
   6.0594717   6.0594717   6.0594717   6.0594717   5.7638660   5.7638660
   5.7638660   5.7638660   6.1725091   6.1725091   6.1725091   6.1725091
   5.5809932   5.5809932   5.5809932   5.5809932   5.9159540   5.9159540
   5.9159540   5.9159540   5.9795266   5.9795266   5.9795266   5.9795266
   7.0981862   7.0981862   7.0981862   7.0981862   7.0199453   7.0199453
   7.0199453   7.0199453   7.1619358   7.1619358   7.1619358   7.1619358
   7.1021596   7.1021596   7.1021596   7.1021596   7.0921733   7.0921733
   7.0921733   7.0921733   9.1374676   9.1374676   9.1374676   9.1374676
  28.8749691  28.8900955
 TTTTTTTTTTTTTTTTTTTTTTTTTTTTTT MOQGAD      TELAPSE      762.80 TCPU      697.07
 TTTTTTTTTTTTTTTTTTTTTTTTTTTTTT SHELLXN     TELAPSE      856.66 TCPU      788.07
 TTTTTTTTTTTTTTTTTTTTTTTTTTTTTT MONMO3      TELAPSE      861.51 TCPU      792.90
 NUMERICALLY INTEGRATED DENSITY    392.0000008285
 TTTTTTTTTTTTTTTTTTTTTTTTTTTTTT NUMDFT      TELAPSE      868.57 TCPU      799.93
 CYC   6 ETOT(AU) -5.970046975018E+03 DETOT  2.50E-03 tst  1.11E-04 PX  2.17E-02
 TTTTTTTTTTTTTTTTTTTTTTTTTTTTTT DIIS        TELAPSE      868.88 TCPU      800.24
 DIIS TEST: 0.71208E-01 AT SCF   CYCLE   6 - DIIS ACTIVE - HISTORY:     6 CYCLES
 TTTTTTTTTTTTTTTTTTTTTTTTTTTTTT FDIK        TELAPSE      881.36 TCPU      810.54
 INSULATING STATE
 TOP OF VALENCE BANDS -    BAND    196; K    6; EIG -2.4760489E-01 AU
 TOP OF VALENCE BANDS -    BAND    196; K    1; EIG -2.4773166E-01 AU
 BOTTOM OF VIRTUAL BANDS - BAND    197; K    4; EIG -1.1591428E-01 AU
 INDIRECT ENERGY BAND GAP:   3.5835 eV
 BOTTOM OF VIRTUAL BANDS - BAND    197; K    1; EIG -1.1360005E-01 AU
 TTTTTTTTTTTTTTTTTTTTTTTTTTTTTT PDIG        TELAPSE      881.90 TCPU      811.09
 TOTAL ATOMIC CHARGES:
   1.1387887   1.1387887   1.1387887   1.1387887   1.2491607   1.2491607
   1.2491607   1.2491607   1.0853724   1.0853724   1.0853724   1.0853724
   6.0577662   6.0577662   6.0577662   6.0577662   5.7673528   5.7673528
   5.7673528   5.7673528   6.1629816   6.1629816   6.1629816   6.1629816
   5.5787546   5.5787546   5.5787546   5.5787546   5.9319611   5.9319611
   5.9319611   5.9319611   5.9794298   5.9794298   5.9794298   5.9794298
   7.1536096   7.1536096   7.1536096   7.1536096   7.0655017   7.0655017
   7.0655017   7.0655017   7.1107374   7.1107374   7.1107374   7.1107374
   7.0531646   7.0531646   7.0531646   7.0531646   7.0823656   7.0823656
   7.0823656   7.0823656   9.1392424   9.1392424   9.1392424   9.1392424
  28.8850171  28.8902256
 TTTTTTTTTTTTTTTTTTTTTTTTTTTTTT MOQGAD      TELAPSE      881.95 TCPU      811.14
 TTTTTTTTTTTTTTTTTTTTTTTTTTTTTT SHELLXN     TELAPSE      975.23 TCPU      901.75
 TTTTTTTTTTTTTTTTTTTTTTTTTTTTTT MONMO3      TELAPSE      980.50 TCPU      907.00
 NUMERICALLY INTEGRATED DENSITY    392.0000010156
 TTTTTTTTTTTTTTTTTTTTTTTTTTTTTT NUMDFT      TELAPSE      987.49 TCPU      913.97
 CYC   7 ETOT(AU) -5.970055649534E+03 DETOT -8.67E-03 tst  5.15E-05 PX  1.66E-02
 TTTTTTTTTTTTTTTTTTTTTTTTTTTTTT DIIS        TELAPSE      987.67 TCPU      914.15
 DIIS TEST: 0.92488E-02 AT SCF   CYCLE   7 - DIIS ACTIVE - HISTORY:     7 CYCLES
 TTTTTTTTTTTTTTTTTTTTTTTTTTTTTT FDIK        TELAPSE      999.29 TCPU      923.40
 INSULATING STATE
 TOP OF VALENCE BANDS -    BAND    196; K    6; EIG -2.4807924E-01 AU
 TOP OF VALENCE BANDS -    BAND    196; K    1; EIG -2.4823954E-01 AU
 BOTTOM OF VIRTUAL BANDS - BAND    197; K    4; EIG -1.1600867E-01 AU
 INDIRECT ENERGY BAND GAP:   3.5938 eV
 BOTTOM OF VIRTUAL BANDS - BAND    197; K    1; EIG -1.1339458E-01 AU
 TTTTTTTTTTTTTTTTTTTTTTTTTTTTTT PDIG        TELAPSE      999.83 TCPU      923.95
 TOTAL ATOMIC CHARGES:
   1.1387204   1.1387204   1.1387204   1.1387204   1.2463124   1.2463124
   1.2463124   1.2463124   1.0839064   1.0839064   1.0839064   1.0839064
   6.0521753   6.0521753   6.0521753   6.0521753   5.7660844   5.7660844
   5.7660844   5.7660844   6.1582279   6.1582279   6.1582279   6.1582279
   5.5840661   5.5840661   5.5840661   5.5840661   5.9429522   5.9429522
   5.9429522   5.9429522   5.9924484   5.9924484   5.9924484   5.9924484
   7.1349960   7.1349960   7.1349960   7.1349960   7.0472086   7.0472086
   7.0472086   7.0472086   7.1199477   7.1199477   7.1199477   7.1199477
   7.0688680   7.0688680   7.0688680   7.0688680   7.0765987   7.0765987
   7.0765987   7.0765987   9.1427368   9.1427368   9.1427368   9.1427368
  28.8863748  28.8926275
 TTTTTTTTTTTTTTTTTTTTTTTTTTTTTT MOQGAD      TELAPSE      999.88 TCPU      923.99
 TTTTTTTTTTTTTTTTTTTTTTTTTTTTTT SHELLXN     TELAPSE     1090.93 TCPU     1014.41
 TTTTTTTTTTTTTTTTTTTTTTTTTTTTTT MONMO3      TELAPSE     1098.65 TCPU     1022.11
 NUMERICALLY INTEGRATED DENSITY    392.0000009597
 TTTTTTTTTTTTTTTTTTTTTTTTTTTTTT NUMDFT      TELAPSE     1105.67 TCPU     1029.11
 CYC   8 ETOT(AU) -5.970056975964E+03 DETOT -1.33E-03 tst  8.12E-06 PX  6.63E-03
 TTTTTTTTTTTTTTTTTTTTTTTTTTTTTT DIIS        TELAPSE     1105.91 TCPU     1029.35
 DIIS TEST: 0.14214E-02 AT SCF   CYCLE   8 - DIIS ACTIVE - HISTORY:     8 CYCLES
 TTTTTTTTTTTTTTTTTTTTTTTTTTTTTT FDIK        TELAPSE     1116.59 TCPU     1037.86
 INSULATING STATE
 TOP OF VALENCE BANDS -    BAND    196; K    6; EIG -2.4861767E-01 AU
 TOP OF VALENCE BANDS -    BAND    196; K    1; EIG -2.4878979E-01 AU
 BOTTOM OF VIRTUAL BANDS - BAND    197; K    4; EIG -1.1615374E-01 AU
 INDIRECT ENERGY BAND GAP:   3.6045 eV
 BOTTOM OF VIRTUAL BANDS - BAND    197; K    1; EIG -1.1356310E-01 AU
 TTTTTTTTTTTTTTTTTTTTTTTTTTTTTT PDIG        TELAPSE     1117.13 TCPU     1038.40
 TOTAL ATOMIC CHARGES:
   1.1384382   1.1384382   1.1384382   1.1384382   1.2462258   1.2462258
   1.2462258   1.2462258   1.0849384   1.0849384   1.0849384   1.0849384
   6.0594668   6.0594668   6.0594668   6.0594668   5.7638383   5.7638383
   5.7638383   5.7638383   6.1626225   6.1626225   6.1626225   6.1626225
   5.5794835   5.5794835   5.5794835   5.5794835   5.9365688   5.9365688
   5.9365688   5.9365688   5.9835638   5.9835638   5.9835638   5.9835638
   7.1386244   7.1386244   7.1386244   7.1386244   7.0501519   7.0501519
   7.0501519   7.0501519   7.1235209   7.1235209   7.1235209   7.1235209
   7.0618892   7.0618892   7.0618892   7.0618892   7.0846129   7.0846129
   7.0846129   7.0846129   9.1404779   9.1404779   9.1404779   9.1404779
  28.8880993  28.8942075
 TTTTTTTTTTTTTTTTTTTTTTTTTTTTTT MOQGAD      TELAPSE     1117.17 TCPU     1038.44
 TTTTTTTTTTTTTTTTTTTTTTTTTTTTTT SHELLXN     TELAPSE     1210.50 TCPU     1129.27
 TTTTTTTTTTTTTTTTTTTTTTTTTTTTTT MONMO3      TELAPSE     1216.29 TCPU     1135.04
 NUMERICALLY INTEGRATED DENSITY    392.0000009756
 TTTTTTTTTTTTTTTTTTTTTTTTTTTTTT NUMDFT      TELAPSE     1223.35 TCPU     1142.07
 CYC   9 ETOT(AU) -5.970057134784E+03 DETOT -1.59E-04 tst  1.34E-06 PX  3.13E-03
 TTTTTTTTTTTTTTTTTTTTTTTTTTTTTT DIIS        TELAPSE     1223.58 TCPU     1142.29
 DIIS TEST: 0.34047E-03 AT SCF   CYCLE   9 - DIIS ACTIVE - HISTORY:     9 CYCLES
 TTTTTTTTTTTTTTTTTTTTTTTTTTTTTT FDIK        TELAPSE     1232.38 TCPU     1150.78
 INSULATING STATE
 TOP OF VALENCE BANDS -    BAND    196; K    6; EIG -2.4816579E-01 AU
 TOP OF VALENCE BANDS -    BAND    196; K    1; EIG -2.4831672E-01 AU
 BOTTOM OF VIRTUAL BANDS - BAND    197; K    4; EIG -1.1607700E-01 AU
 INDIRECT ENERGY BAND GAP:   3.5943 eV
 BOTTOM OF VIRTUAL BANDS - BAND    197; K    1; EIG -1.1351060E-01 AU
 TTTTTTTTTTTTTTTTTTTTTTTTTTTTTT PDIG        TELAPSE     1232.93 TCPU     1151.33
 TOTAL ATOMIC CHARGES:
   1.1386025   1.1386025   1.1386025   1.1386025   1.2467978   1.2467978
   1.2467978   1.2467978   1.0848353   1.0848353   1.0848353   1.0848353
   6.0560005   6.0560005   6.0560005   6.0560005   5.7650761   5.7650761
   5.7650761   5.7650761   6.1627087   6.1627087   6.1627087   6.1627087
   5.5830602   5.5830602   5.5830602   5.5830602   5.9357744   5.9357744
   5.9357744   5.9357744   5.9854301   5.9854301   5.9854301   5.9854301
   7.1374902   7.1374902   7.1374902   7.1374902   7.0514035   7.0514035
   7.0514035   7.0514035   7.1196799   7.1196799   7.1196799   7.1196799
   7.0670682   7.0670682   7.0670682   7.0670682   7.0805893   7.0805893
   7.0805893   7.0805893   9.1407632   9.1407632   9.1407632   9.1407632
  28.8863694  28.8925106
 TTTTTTTTTTTTTTTTTTTTTTTTTTTTTT MOQGAD      TELAPSE     1232.98 TCPU     1151.37
 TTTTTTTTTTTTTTTTTTTTTTTTTTTTTT SHELLXN     TELAPSE     1326.49 TCPU     1242.37
 TTTTTTTTTTTTTTTTTTTTTTTTTTTTTT MONMO3      TELAPSE     1332.14 TCPU     1248.01
 NUMERICALLY INTEGRATED DENSITY    392.0000009408
 TTTTTTTTTTTTTTTTTTTTTTTTTTTTTT NUMDFT      TELAPSE     1339.18 TCPU     1255.03
 CYC  10 ETOT(AU) -5.970057174284E+03 DETOT -3.95E-05 tst  2.51E-07 PX  1.45E-03
 TTTTTTTTTTTTTTTTTTTTTTTTTTTTTT DIIS        TELAPSE     1339.38 TCPU     1255.22
 DIIS TEST: 0.94768E-04 AT SCF   CYCLE  10 - DIIS ACTIVE - HISTORY:    10 CYCLES
 TTTTTTTTTTTTTTTTTTTTTTTTTTTTTT FDIK        TELAPSE     1350.59 TCPU     1264.11
 INSULATING STATE
 TOP OF VALENCE BANDS -    BAND    196; K    6; EIG -2.4830912E-01 AU
 TOP OF VALENCE BANDS -    BAND    196; K    1; EIG -2.4846765E-01 AU
 BOTTOM OF VIRTUAL BANDS - BAND    197; K    4; EIG -1.1613117E-01 AU
 INDIRECT ENERGY BAND GAP:   3.5967 eV
 BOTTOM OF VIRTUAL BANDS - BAND    197; K    1; EIG -1.1355749E-01 AU
 TTTTTTTTTTTTTTTTTTTTTTTTTTTTTT PDIG        TELAPSE     1351.12 TCPU     1264.64
 TOTAL ATOMIC CHARGES:
   1.1387027   1.1387027   1.1387027   1.1387027   1.2465746   1.2465746
   1.2465746   1.2465746   1.0846075   1.0846075   1.0846075   1.0846075
   6.0560390   6.0560390   6.0560390   6.0560390   5.7657250   5.7657250
   5.7657250   5.7657250   6.1614017   6.1614017   6.1614017   6.1614017
   5.5821306   5.5821306   5.5821306   5.5821306   5.9377341   5.9377341
   5.9377341   5.9377341   5.9852852   5.9852852   5.9852852   5.9852852
   7.1377818   7.1377818   7.1377818   7.1377818   7.0498275   7.0498275
   7.0498275   7.0498275   7.1217357   7.1217357   7.1217357   7.1217357
   7.0653898   7.0653898   7.0653898   7.0653898   7.0814328   7.0814328
   7.0814328   7.0814328   9.1408986   9.1408986   9.1408986   9.1408986
  28.8863832  28.8925501
 TTTTTTTTTTTTTTTTTTTTTTTTTTTTTT MOQGAD      TELAPSE     1351.17 TCPU     1264.69
 TTTTTTTTTTTTTTTTTTTTTTTTTTTTTT SHELLXN     TELAPSE     1444.74 TCPU     1355.42
 TTTTTTTTTTTTTTTTTTTTTTTTTTTTTT MONMO3      TELAPSE     1450.55 TCPU     1361.21
 NUMERICALLY INTEGRATED DENSITY    392.0000009672
 TTTTTTTTTTTTTTTTTTTTTTTTTTTTTT NUMDFT      TELAPSE     1457.64 TCPU     1368.25
 CYC  11 ETOT(AU) -5.970057187124E+03 DETOT -1.28E-05 tst  6.16E-08 PX  6.24E-04
 TTTTTTTTTTTTTTTTTTTTTTTTTTTTTT DIIS        TELAPSE     1457.90 TCPU     1368.51
 DIIS TEST: 0.15182E-04 AT SCF   CYCLE  11 - DIIS ACTIVE - HISTORY:    11 CYCLES
 TTTTTTTTTTTTTTTTTTTTTTTTTTTTTT FDIK        TELAPSE     1468.53 TCPU     1376.68
 INSULATING STATE
 TOP OF VALENCE BANDS -    BAND    196; K    6; EIG -2.4831741E-01 AU
 TOP OF VALENCE BANDS -    BAND    196; K    1; EIG -2.4847589E-01 AU
 BOTTOM OF VIRTUAL BANDS - BAND    197; K    4; EIG -1.1610582E-01 AU
 INDIRECT ENERGY BAND GAP:   3.5977 eV
 BOTTOM OF VIRTUAL BANDS - BAND    197; K    1; EIG -1.1352655E-01 AU
 TTTTTTTTTTTTTTTTTTTTTTTTTTTTTT PDIG        TELAPSE     1469.07 TCPU     1377.22
 TOTAL ATOMIC CHARGES:
   1.1385757   1.1385757   1.1385757   1.1385757   1.2465628   1.2465628
   1.2465628   1.2465628   1.0845844   1.0845844   1.0845844   1.0845844
   6.0566656   6.0566656   6.0566656   6.0566656   5.7650986   5.7650986
   5.7650986   5.7650986   6.1622620   6.1622620   6.1622620   6.1622620
   5.5817718   5.5817718   5.5817718   5.5817718   5.9368851   5.9368851
   5.9368851   5.9368851   5.9856617   5.9856617   5.9856617   5.9856617
   7.1374228   7.1374228   7.1374228   7.1374228   7.0506876   7.0506876
   7.0506876   7.0506876   7.1209035   7.1209035   7.1209035   7.1209035
   7.0654583   7.0654583   7.0654583   7.0654583   7.0816029   7.0816029
   7.0816029   7.0816029   9.1408375   9.1408375   9.1408375   9.1408375
  28.8869065  28.8931731
 TTTTTTTTTTTTTTTTTTTTTTTTTTTTTT MOQGAD      TELAPSE     1469.12 TCPU     1377.27
 TTTTTTTTTTTTTTTTTTTTTTTTTTTTTT SHELLXN     TELAPSE     1560.49 TCPU     1468.07
 TTTTTTTTTTTTTTTTTTTTTTTTTTTTTT MONMO3      TELAPSE     1568.60 TCPU     1476.14
 NUMERICALLY INTEGRATED DENSITY    392.0000009646
 TTTTTTTTTTTTTTTTTTTTTTTTTTTTTT NUMDFT      TELAPSE     1575.68 TCPU     1483.12
 CYC  12 ETOT(AU) -5.970057188447E+03 DETOT -1.32E-06 tst  1.22E-08 PX  2.54E-04
 TTTTTTTTTTTTTTTTTTTTTTTTTTTTTT DIIS        TELAPSE     1576.06 TCPU     1483.50
 DIIS TEST: 0.49362E-05 AT SCF   CYCLE  12 - DIIS ACTIVE - HISTORY:    12 CYCLES
 TTTTTTTTTTTTTTTTTTTTTTTTTTTTTT FDIK        TELAPSE     1587.47 TCPU     1492.57
 INSULATING STATE
 TOP OF VALENCE BANDS -    BAND    196; K    6; EIG -2.4830654E-01 AU
 TOP OF VALENCE BANDS -    BAND    196; K    1; EIG -2.4846498E-01 AU
 BOTTOM OF VIRTUAL BANDS - BAND    197; K    4; EIG -1.1610924E-01 AU
 INDIRECT ENERGY BAND GAP:   3.5973 eV
 BOTTOM OF VIRTUAL BANDS - BAND    197; K    1; EIG -1.1353290E-01 AU
 TTTTTTTTTTTTTTTTTTTTTTTTTTTTTT PDIG        TELAPSE     1588.01 TCPU     1493.11
 TOTAL ATOMIC CHARGES:
   1.1386268   1.1386268   1.1386268   1.1386268   1.2465679   1.2465679
   1.2465679   1.2465679   1.0846846   1.0846846   1.0846846   1.0846846
   6.0565810   6.0565810   6.0565810   6.0565810   5.7650985   5.7650985
   5.7650985   5.7650985   6.1619792   6.1619792   6.1619792   6.1619792
   5.5820688   5.5820688   5.5820688   5.5820688   5.9370363   5.9370363
   5.9370363   5.9370363   5.9853190   5.9853190   5.9853190   5.9853190
   7.1378263   7.1378263   7.1378263   7.1378263   7.0501534   7.0501534
   7.0501534   7.0501534   7.1211936   7.1211936   7.1211936   7.1211936
   7.0655840   7.0655840   7.0655840   7.0655840   7.0815070   7.0815070
   7.0815070   7.0815070   9.1408548   9.1408548   9.1408548   9.1408548
  28.8867426  28.8929324
 TTTTTTTTTTTTTTTTTTTTTTTTTTTTTT MOQGAD      TELAPSE     1588.06 TCPU     1493.15
 TTTTTTTTTTTTTTTTTTTTTTTTTTTTTT SHELLXN     TELAPSE     1681.09 TCPU     1583.24
 TTTTTTTTTTTTTTTTTTTTTTTTTTTTTT MONMO3      TELAPSE     1686.59 TCPU     1588.72
 NUMERICALLY INTEGRATED DENSITY    392.0000009648
 TTTTTTTTTTTTTTTTTTTTTTTTTTTTTT NUMDFT      TELAPSE     1693.55 TCPU     1595.65
 CYC  13 ETOT(AU) -5.970057189151E+03 DETOT -7.04E-07 tst  1.83E-09 PX  1.44E-04
 TTTTTTTTTTTTTTTTTTTTTTTTTTTTTT DIIS        TELAPSE     1693.94 TCPU     1596.04
[...]
 DIIS TEST: 0.55643E+01 AT CPHF  CYCLE   4 - DIIS ACTIVE - HISTORY:     4 CYCLES
 CYCLE   4   ALPHA  914.790999  EPSILON    3.468863  DELTA    1.7164E+01
 TTTTTTTTTTTTTTTTTTTTTTTTTTTTTT MOQGAD      TELAPSE   163790.97 TCPU   162709.87
 TTTTTTTTTTTTTTTTTTTTTTTTTTTTTT CP_MONMON   TELAPSE   163824.84 TCPU   162743.56
 DIIS TEST: 0.18431E+01 AT CPHF  CYCLE   5 - DIIS ACTIVE - HISTORY:     5 CYCLES
 CYCLE   5   ALPHA  923.689616  EPSILON    3.492879  DELTA    8.8986E+00
 TTTTTTTTTTTTTTTTTTTTTTTTTTTTTT MOQGAD      TELAPSE   165505.29 TCPU   164410.07
 TTTTTTTTTTTTTTTTTTTTTTTTTTTTTT CP_MONMON   TELAPSE   165538.96 TCPU   164443.61
 DIIS TEST: 0.19899E+00 AT CPHF  CYCLE   6 - DIIS ACTIVE - HISTORY:     6 CYCLES
 CYCLE   6   ALPHA  926.142955  EPSILON    3.499500  DELTA    2.4533E+00
 TTTTTTTTTTTTTTTTTTTTTTTTTTTTTT MOQGAD      TELAPSE   167224.89 TCPU   166121.11
 TTTTTTTTTTTTTTTTTTTTTTTTTTTTTT CP_MONMON   TELAPSE   167258.89 TCPU   166154.95
 DIIS TEST: 0.19052E-01 AT CPHF  CYCLE   7 - DIIS ACTIVE - HISTORY:     7 CYCLES
 CYCLE   7   ALPHA  926.394060  EPSILON    3.500178  DELTA    2.5110E-01
 TTTTTTTTTTTTTTTTTTTTTTTTTTTTTT MOQGAD      TELAPSE   168922.02 TCPU   167801.90
 TTTTTTTTTTTTTTTTTTTTTTTTTTTTTT CP_MONMON   TELAPSE   168956.07 TCPU   167835.82
 DIIS TEST: 0.10081E+00 AT CPHF  CYCLE   8 - DIIS ACTIVE - HISTORY:     8 CYCLES
 CYCLE   8   ALPHA  926.427497  EPSILON    3.500268  DELTA    3.3438E-02
 TTTTTTTTTTTTTTTTTTTTTTTTTTTTTT MOQGAD      TELAPSE   170615.99 TCPU   169487.11
 TTTTTTTTTTTTTTTTTTTTTTTTTTTTTT CP_MONMON   TELAPSE   170649.96 TCPU   169520.94
 DIIS TEST: 0.74074E-02 AT CPHF  CYCLE   9 - DIIS ACTIVE - HISTORY:     9 CYCLES
 CYCLE   9   ALPHA  926.616511  EPSILON    3.500778  DELTA    1.8901E-01
 TTTTTTTTTTTTTTTTTTTTTTTTTTTTTT MOQGAD      TELAPSE   172376.61 TCPU   171234.86
 TTTTTTTTTTTTTTTTTTTTTTTTTTTTTT CP_MONMON   TELAPSE   172410.62 TCPU   171268.76
 DIIS TEST: 0.30720E-03 AT CPHF  CYCLE  10 - DIIS ACTIVE - HISTORY:    10 CYCLES
 CYCLE  10   ALPHA  926.586591  EPSILON    3.500697  DELTA   -2.9920E-02
 TTTTTTTTTTTTTTTTTTTTTTTTTTTTTT MOQGAD      TELAPSE   174075.38 TCPU   172921.51
 TTTTTTTTTTTTTTTTTTTTTTTTTTTTTT CP_MONMON   TELAPSE   174109.19 TCPU   172955.14
 DIIS TEST: 0.57591E-04 AT CPHF  CYCLE  11 - DIIS ACTIVE - HISTORY:    11 CYCLES
 CYCLE  11   ALPHA  926.570719  EPSILON    3.500654  DELTA   -1.5871E-02
 TTTTTTTTTTTTTTTTTTTTTTTTTTTTTT MOQGAD      TELAPSE   175777.00 TCPU   174615.03
 TTTTTTTTTTTTTTTTTTTTTTTTTTTTTT CP_MONMON   TELAPSE   175810.99 TCPU   174648.93
 DIIS TEST: 0.10680E-04 AT CPHF  CYCLE  12 - DIIS ACTIVE - HISTORY:    12 CYCLES
 CYCLE  12   ALPHA  926.552327  EPSILON    3.500605  DELTA   -1.8392E-02
 TTTTTTTTTTTTTTTTTTTTTTTTTTTTTT MOQGAD      TELAPSE   177480.81 TCPU   176308.99
 TTTTTTTTTTTTTTTTTTTTTTTTTTTTTT CP_MONMON   TELAPSE   177514.67 TCPU   176342.72
 DIIS TEST: 0.84363E-06 AT CPHF  CYCLE  13 - DIIS ACTIVE - HISTORY:    13 CYCLES
 CYCLE  13   ALPHA  926.548000  EPSILON    3.500593  DELTA   -4.3275E-03
 TTTTTTTTTTTTTTTTTTTTTTTTTTTTTT MOQGAD      TELAPSE   179176.63 TCPU   177992.63
 TTTTTTTTTTTTTTTTTTTTTTTTTTTTTT CP_MONMON   TELAPSE   179210.88 TCPU   178026.70
 DIIS TEST: 0.75667E-07 AT CPHF  CYCLE  14 - DIIS ACTIVE - HISTORY:    14 CYCLES
 CYCLE  14   ALPHA  926.546621  EPSILON    3.500589  DELTA   -1.3784E-03
 TTTTTTTTTTTTTTTTTTTTTTTTTTTTTT MOQGAD      TELAPSE   180887.93 TCPU   179691.70
 TTTTTTTTTTTTTTTTTTTTTTTTTTTTTT CP_MONMON   TELAPSE   180921.89 TCPU   179725.57
 DIIS TEST: 0.14107E-07 AT CPHF  CYCLE  15 - DIIS ACTIVE - HISTORY:    15 CYCLES
 CYCLE  15   ALPHA  926.546424  EPSILON    3.500589  DELTA   -1.9712E-04
 TTTTTTTTTTTTTTTTTTTTTTTTTTTTTT CP_SC       TELAPSE   181038.57 TCPU   179835.33

 *******************************************************************************

 ELECTRIC FIELD APPLIED ALONG CARTESIAN DIRECTION Z

 *******************************************************************************
 THE NUMBER OF SYMMETRY OPERATORS HAS BEEN REDUCED FROM  4 TO  1

 NEW GRID IN RECIPROCAL SPACE
 *******************************************************************************
 POINTS IN THE IBZ                  14 SHRINKING FACTORS               3  3  3
 *******************************************************************************
 *** K POINTS COORDINATES (OBLIQUE COORDINATES IN UNITS OF SHRINK FAC. )
   1-R(  0  0  0)   2-C(  1  0  0)   3-C(  0  1  2)   4-C(  2  0  1)
   5-C(  0  2  0)   6-C(  1  1  0)   7-C(  1  1  1)   8-C(  1  0  1)
   9-C(  0  1  1)  10-C(  2  1  0)  11-C(  0  0  2)  12-C(  2  1  1)
  13-C(  2  1  2)  14-C(  2  2  1)

 GCALCO - MAX INDICES DIRECT LATTICE VECTOR    14    14    16
 NO.OF VECTORS CREATED 6999 STARS  485 RMAX   198.94668 BOHR
 TTTTTTTTTTTTTTTTTTTTTTTTTTTTTT gordsh1     TELAPSE   181089.60 TCPU   179884.84

 MATRIX SIZE: P(G) 1849588, F(G)  925838, P(G) IRR  928108, F(G) IRR  928108
 MAX G-VECTOR INDEX FOR 1- AND 2-ELECTRON INTEGRALS  63

 TTTTTTTTTTTTTTTTTTTTTTTTTTTTTT INPUT       TELAPSE   181112.77 TCPU   179907.79
 TTTTTTTTTTTTTTTTTTTTTTTTTTTTTT SYMM        TELAPSE   181112.77 TCPU   179907.79

 ***** NEW REFERENCE GEOMETRY *****
 TTTTTTTTTTTTTTTTTTTTTTTTTTTTTT INT_SCREEN  TELAPSE   181112.79 TCPU   179907.80
 INFORMATION **** EXCBUF **** EXCH. BIPO BUFFER: WORDS USED =           0

 DFT PARAMETERS

     ATOM       ELECTRONS   NET CHARGE   R(ANGSTROM)
   1   1  H       1.0000      0.0000     1.11000000
  13   6  C       6.0000      0.0000     0.77000000
  37   7  N       7.0000      0.0000     0.74000000
  57   9  F       9.0000      0.0000     0.72000000
  61  30  ZN     30.0000      0.0000     1.37000000

 SIZE OF GRID=    1831946
 TTTTTTTTTTTTTTTTTTTTTTTTTTTTTT MAKE_GRID2  TELAPSE   181115.24 TCPU   179910.24
 BECKE WEIGHT FUNCTION
 RADSAFE =     2.00
 TOLERANCES - DENSITY:10**- 6; POTENTIAL:10**- 9; GRID WGT:10**-14

 RADIAL INTEGRATION  - INTERVALS (POINTS,UPPER LIMIT):            1( 75,  4.0*R)

 ANGULAR INTEGRATION - INTERVALS (ACCURACY LEVEL [N. POINTS] UPPER LIMIT):
  1(  4[  86]   0.2)  2(  8[ 194]   0.5)  3( 12[ 350]   0.9)  4( 16[ 974]   3.5)
  5( 12[ 350]9999.0)
 TTTTTTTTTTTTTTTTTTTTTTTTTTTTTT INT_CALC    TELAPSE   181115.36 TCPU   179910.37
 CYCLE   0   ALPHA  558.946076  EPSILON    2.508499  DELTA    5.5895E+02
 TTTTTTTTTTTTTTTTTTTTTTTTTTTTTT MOQGAD      TELAPSE   182761.73 TCPU   181549.77
 TTTTTTTTTTTTTTTTTTTTTTTTTTTTTT CP_MONMON   TELAPSE   182795.60 TCPU   181583.53
 DIIS TEST: 0.67012E+02 AT CPHF  CYCLE   1 - MIX    0 %
 CYCLE   1   ALPHA  287.004393  EPSILON    1.774575  DELTA   -2.7194E+02
 TTTTTTTTTTTTTTTTTTTTTTTTTTTTTT MOQGAD      TELAPSE   184469.95 TCPU   183247.25
 TTTTTTTTTTTTTTTTTTTTTTTTTTTTTT CP_MONMON   TELAPSE   184503.69 TCPU   183280.90
 DIIS TEST: 0.49465E+03 AT CPHF  CYCLE   2 - DIIS ACTIVE - HISTORY:     2 CYCLES
 CYCLE   2   ALPHA  411.403462  EPSILON    2.110307  DELTA    1.2440E+02
 TTTTTTTTTTTTTTTTTTTTTTTTTTTTTT MOQGAD      TELAPSE   186178.46 TCPU   184944.76
 TTTTTTTTTTTTTTTTTTTTTTTTTTTTTT CP_MONMON   TELAPSE   186212.46 TCPU   184978.65
 DIIS TEST: 0.22905E+02 AT CPHF  CYCLE   3 - DIIS ACTIVE - HISTORY:     3 CYCLES
 CYCLE   3   ALPHA  440.890197  EPSILON    2.189887  DELTA    2.9487E+01
 TTTTTTTTTTTTTTTTTTTTTTTTTTTTTT MOQGAD      TELAPSE   187885.84 TCPU   186641.67
 TTTTTTTTTTTTTTTTTTTTTTTTTTTTTT CP_MONMON   TELAPSE   187919.71 TCPU   186675.46
 DIIS TEST: 0.37744E+01 AT CPHF  CYCLE   4 - DIIS ACTIVE - HISTORY:     4 CYCLES
 CYCLE   4   ALPHA  441.543802  EPSILON    2.191650  DELTA    6.5361E-01
 TTTTTTTTTTTTTTTTTTTTTTTTTTTTTT MOQGAD      TELAPSE   189613.72 TCPU   188359.70
 TTTTTTTTTTTTTTTTTTTTTTTTTTTTTT CP_MONMON   TELAPSE   189649.12 TCPU   188392.92
 DIIS TEST: 0.10634E+00 AT CPHF  CYCLE   5 - DIIS ACTIVE - HISTORY:     5 CYCLES
 CYCLE   5   ALPHA  441.864401  EPSILON    2.192516  DELTA    3.2060E-01
 TTTTTTTTTTTTTTTTTTTTTTTTTTTTTT MOQGAD      TELAPSE   191377.84 TCPU   190109.68
 TTTTTTTTTTTTTTTTTTTTTTTTTTTTTT CP_MONMON   TELAPSE   191411.72 TCPU   190143.45
 DIIS TEST: 0.13386E-01 AT CPHF  CYCLE   6 - DIIS ACTIVE - HISTORY:     6 CYCLES
 CYCLE   6   ALPHA  442.006179  EPSILON    2.192898  DELTA    1.4178E-01
 TTTTTTTTTTTTTTTTTTTTTTTTTTTTTT MOQGAD      TELAPSE   193096.84 TCPU   191822.21
 TTTTTTTTTTTTTTTTTTTTTTTTTTTTTT CP_MONMON   TELAPSE   193130.56 TCPU   191855.78
 DIIS TEST: 0.33884E-02 AT CPHF  CYCLE   7 - DIIS ACTIVE - HISTORY:     7 CYCLES
 CYCLE   7   ALPHA  442.012965  EPSILON    2.192917  DELTA    6.7861E-03
 TTTTTTTTTTTTTTTTTTTTTTTTTTTTTT MOQGAD      TELAPSE   194804.32 TCPU   193515.13
 TTTTTTTTTTTTTTTTTTTTTTTTTTTTTT CP_MONMON   TELAPSE   194838.35 TCPU   193549.05
 DIIS TEST: 0.12741E-02 AT CPHF  CYCLE   8 - DIIS ACTIVE - HISTORY:     8 CYCLES
 CYCLE   8   ALPHA  442.012908  EPSILON    2.192917  DELTA   -5.7505E-05
 TTTTTTTTTTTTTTTTTTTTTTTTTTTTTT CP_SC       TELAPSE   194932.44 TCPU   193636.26

 *******************************************************************************

 POLARIZABILITY (ALPHA), DIELECTRIC (EPSILON) AND FIRST-ORDER ELECTRIC
 SUSCEPTIBILITY (CHI(1)) TENSORS (INDEPENDENT COMPONENTS)

  FR.(eV) COMP.   ALPHA(Re,Im)           EPSILON(Re,Im)                CHI(1)
  2.331   XX     926.5463       0.0000       3.5006       0.0000       2.5006
  2.331   XY       0.0007       0.0000       0.0000       0.0000       0.0000
  2.331   XZ      -0.0000       0.0000      -0.0000       0.0000      -0.0000
  2.331   YY     926.5464       0.0000       3.5006       0.0000       2.5006
  2.331   YZ      -0.0000       0.0000      -0.0000       0.0000      -0.0000
  2.331   ZZ     442.0129       0.0000       2.1929       0.0000       1.1929

 DIELECTRIC TENSOR

 TENSOR IN PRINCIPAL AXES SYSTEM
 AA  3.500587E+00 BB  3.500590E+00 CC  2.192917E+00

 REFRACTIVE INDICES 
 AA  1.480850E+00 BB  1.870986E+00 CC  1.870986E+00

 OPTICALLY ANISOTROPIC - UNIAXIAL CRYSTAL

 BIREFRINGENCE =  0.3901 (NEGATIVE) - OBLATE OPTICAL ELLIPSOID

 EPSILON=N**2=1+CHI(1)=1+ALPHA*4*PI/V,   4*PI/V=   0.00270 BOHR**(-3)
 ALPHA IN BOHR**3; EPSILON AND CHI(1) ARE DIMENSIONLESS.
 *******************************************************************************


  Pockels Effect beta(-omega;omega,0) with omega=   1.1653 eV


 SIZE OF GRID=    1831946
 TTTTTTTTTTTTTTTTTTTTTTTTTTTTTT MAKE_GRID2  TELAPSE   195335.58 TCPU   194035.68
 BECKE WEIGHT FUNCTION
 RADSAFE =     2.00
 TOLERANCES - DENSITY:10**- 6; POTENTIAL:10**- 9; GRID WGT:10**-14

 RADIAL INTEGRATION  - INTERVALS (POINTS,UPPER LIMIT):            1( 75,  4.0*R)

 ANGULAR INTEGRATION - INTERVALS (ACCURACY LEVEL [N. POINTS] UPPER LIMIT):
  1(  4[  86]   0.2)  2(  8[ 194]   0.5)  3( 12[ 350]   0.9)  4( 16[ 974]   3.5)
  5( 12[ 350]9999.0)

 SIZE OF GRID=    1831946
 TTTTTTTTTTTTTTTTTTTTTTTTTTTTTT MAKE_GRID2  TELAPSE   195339.22 TCPU   194038.79
 BECKE WEIGHT FUNCTION
 RADSAFE =     2.00
 TOLERANCES - DENSITY:10**- 6; POTENTIAL:10**- 9; GRID WGT:10**-14

 RADIAL INTEGRATION  - INTERVALS (POINTS,UPPER LIMIT):            1( 75,  4.0*R)

 ANGULAR INTEGRATION - INTERVALS (ACCURACY LEVEL [N. POINTS] UPPER LIMIT):
  1(  4[  86]   0.2)  2(  8[ 194]   0.5)  3( 12[ 350]   0.9)  4( 16[ 974]   3.5)
  5( 12[ 350]9999.0)
 *******************************************************************************

 DC-POCKELS AND SECOND ELECTRIC SUSCEPTIBILITY (CHI(2))
 TENSORS (INDEPENDENT COMPONENTS)

BETA                                         CHI(2)       d(MKS)       d(cgs)
 *******************************************************************************

     XXX         -0.2022E-02  -0.2729E-05  -0.2653E-05  -0.6329E-07
     XXY         -0.4866E-04  -0.6566E-07  -0.6384E-07  -0.1523E-08
     XXZ          0.3165E+02   0.4271E-01   0.4153E-01   0.9908E-03
     XYX         -0.6687E-03  -0.9023E-06  -0.8774E-06  -0.2093E-07
     XYY         -0.8422E-03  -0.1136E-05  -0.1105E-05  -0.2636E-07
     XYZ          0.2284E+02   0.3082E-01   0.2997E-01   0.7149E-03
     XZX          0.2915E+02   0.3934E-01   0.3825E-01   0.9125E-03
     XZY          0.2865E+02   0.3866E-01   0.3759E-01   0.8968E-03
     XZZ         -0.4650E-03  -0.6274E-06  -0.6101E-06  -0.1455E-07
     YXX         -0.7388E-03  -0.9969E-06  -0.9693E-06  -0.2313E-07
     YXY         -0.8719E-03  -0.1177E-05  -0.1144E-05  -0.2729E-07
     YXZ          0.2283E+02   0.3081E-01   0.2996E-01   0.7147E-03
     YYX          0.1451E-03   0.1958E-06   0.1904E-06   0.4543E-08
     YYY         -0.1574E-02  -0.2124E-05  -0.2066E-05  -0.4928E-07
     YYZ         -0.3164E+02  -0.4270E-01  -0.4152E-01  -0.9905E-03
     YZX          0.2865E+02   0.3866E-01   0.3759E-01   0.8967E-03
     YZY         -0.2888E+02  -0.3896E-01  -0.3789E-01  -0.9039E-03
     YZZ         -0.9846E-03  -0.1329E-05  -0.1292E-05  -0.3082E-07
     ZXX          0.2914E+02   0.3933E-01   0.3824E-01   0.9122E-03
     ZXY          0.2867E+02   0.3868E-01   0.3761E-01   0.8973E-03
     ZXZ         -0.5813E-03  -0.7844E-06  -0.7627E-06  -0.1820E-07
     ZYX          0.2867E+02   0.3869E-01   0.3762E-01   0.8975E-03
     ZYY         -0.2886E+02  -0.3895E-01  -0.3787E-01  -0.9035E-03
     ZYZ         -0.9878E-03  -0.1333E-05  -0.1296E-05  -0.3092E-07
     ZZX          0.6563E-03   0.8856E-06   0.8611E-06   0.2054E-07
     ZZY          0.3899E-04   0.5261E-07   0.5115E-07   0.1220E-08
     ZZZ          0.3277E+00   0.4422E-03   0.4300E-03   0.1026E-04
 *******************************************************************************
 CHI(2) = BETA*2PI/V

 BETA AND CHI(2) IN A.U.:    [BETA] = M**(-1/2) L**(7/2) T
                             [CHI(2)] = 1/F
                             (L=LENGTH, M=MASS, T=TIME, F=FIELD INTENSITY)

 ELECTRIC SUSCEPTIBILITY IN THE SECOND HARMONIC GENERATION (SHG) CONVENTION IS:
                   d(A.U.)= 1/2 CHI(2)
                   d(MKS) = d(A.U.)/0.514220632 pm/V
                   d(CGS) = d(A.U.)/(4PI*1.7152535)  10**(-7) esu

 FIELD INTENSITY: 1 A.U. = 0.514220632*10**(11) V/m = 1.7152535*10**7 esu
 BEWARE:                CHI(2)=P/(E0*F**2)   (MKS)
                        CHI(2)=P/F**2        (CGS)
 WHERE P IS THE POLARIZATION VECTOR AND F IS THE APPLIED ELECTRIC FIELD.
 CONSISTENCY IS  PRESERVED BY MULTIPLYING THE CGS VALUE TIMES THE PERMITTIVITY
 OF THE VACUUM, E0 (CONVERSION FACTORS FROM www.physics.nist.gov/constants).
 IN PARENTHESIS: BETA BEFORE SYMMETRIZATION.

  SHG Effect beta(-2omega;omega,omega) with omega=   1.1653 eV


 SIZE OF GRID=    1831946
 TTTTTTTTTTTTTTTTTTTTTTTTTTTTTT MAKE_GRID2  TELAPSE   195668.16 TCPU   194366.03
 BECKE WEIGHT FUNCTION
 RADSAFE =     2.00
 TOLERANCES - DENSITY:10**- 6; POTENTIAL:10**- 9; GRID WGT:10**-14

 RADIAL INTEGRATION  - INTERVALS (POINTS,UPPER LIMIT):            1( 75,  4.0*R)

 ANGULAR INTEGRATION - INTERVALS (ACCURACY LEVEL [N. POINTS] UPPER LIMIT):
  1(  4[  86]   0.2)  2(  8[ 194]   0.5)  3( 12[ 350]   0.9)  4( 16[ 974]   3.5)
  5( 12[ 350]9999.0)

 SIZE OF GRID=    1831946
 TTTTTTTTTTTTTTTTTTTTTTTTTTTTTT MAKE_GRID2  TELAPSE   195670.97 TCPU   194368.84
 BECKE WEIGHT FUNCTION
 RADSAFE =     2.00
 TOLERANCES - DENSITY:10**- 6; POTENTIAL:10**- 9; GRID WGT:10**-14

 RADIAL INTEGRATION  - INTERVALS (POINTS,UPPER LIMIT):            1( 75,  4.0*R)

 ANGULAR INTEGRATION - INTERVALS (ACCURACY LEVEL [N. POINTS] UPPER LIMIT):
  1(  4[  86]   0.2)  2(  8[ 194]   0.5)  3( 12[ 350]   0.9)  4( 16[ 974]   3.5)
  5( 12[ 350]9999.0)
 *******************************************************************************

 SECOND HARMONIC GENERATION (SHG)  AND SECOND ELECTRIC SUSCEPTIBILITY (CHI(2))
 TENSORS (INDEPENDENT COMPONENTS)

BETA                                         CHI(2)       d(MKS)       d(cgs)
 *******************************************************************************

     XXX         -0.3561E-02  -0.4805E-05  -0.4672E-05  -0.1115E-06
     XXY         -0.7496E-03  -0.1012E-05  -0.9836E-06  -0.2346E-07
     XXZ          0.6001E+02   0.8097E-01   0.7874E-01   0.1878E-02
     XYX         -0.7496E-03  -0.1012E-05  -0.9836E-06  -0.2346E-07
     XYY         -0.1051E-02  -0.1418E-05  -0.1379E-05  -0.3290E-07
     XYZ          0.4010E+02   0.5411E-01   0.5262E-01   0.1255E-02
     XZX          0.6001E+02   0.8097E-01   0.7874E-01   0.1878E-02
     XZY          0.4010E+02   0.5411E-01   0.5262E-01   0.1255E-02
     XZZ         -0.3354E-03  -0.4526E-06  -0.4401E-06  -0.1050E-07
     YXX         -0.9603E-03  -0.1296E-05  -0.1260E-05  -0.3006E-07
     YXY         -0.1050E-02  -0.1417E-05  -0.1378E-05  -0.3288E-07
     YXZ          0.4009E+02   0.5410E-01   0.5261E-01   0.1255E-02
     YYX         -0.1050E-02  -0.1417E-05  -0.1378E-05  -0.3288E-07
     YYY         -0.2608E-02  -0.3519E-05  -0.3422E-05  -0.8163E-07
     YYZ         -0.5969E+02  -0.8055E-01  -0.7832E-01  -0.1868E-02
     YZX          0.4009E+02   0.5410E-01   0.5261E-01   0.1255E-02
     YZY         -0.5969E+02  -0.8055E-01  -0.7832E-01  -0.1868E-02
     YZZ         -0.1580E-02  -0.2132E-05  -0.2073E-05  -0.4946E-07
     ZXX          0.6091E+02   0.8219E-01   0.7992E-01   0.1907E-02
     ZXY          0.4661E+02   0.6290E-01   0.6116E-01   0.1459E-02
     ZXZ         -0.6249E-03  -0.8433E-06  -0.8200E-06  -0.1956E-07
     ZYX          0.4661E+02   0.6290E-01   0.6116E-01   0.1459E-02
     ZYY         -0.6054E+02  -0.8169E-01  -0.7943E-01  -0.1895E-02
     ZYZ         -0.9124E-03  -0.1231E-05  -0.1197E-05  -0.2856E-07
     ZZX         -0.6249E-03  -0.8433E-06  -0.8200E-06  -0.1956E-07
     ZZY         -0.9124E-03  -0.1231E-05  -0.1197E-05  -0.2856E-07
     ZZZ          0.5456E+00   0.7363E-03   0.7159E-03   0.1708E-04
 *******************************************************************************
 CHI(2) = BETA*2PI/V

 BETA AND CHI(2) IN A.U.:    [BETA] = M**(-1/2) L**(7/2) T
                             [CHI(2)] = 1/F
                             (L=LENGTH, M=MASS, T=TIME, F=FIELD INTENSITY)

 ELECTRIC SUSCEPTIBILITY IN THE SECOND HARMONIC GENERATION (SHG) CONVENTION IS:
                   d(A.U.)= 1/2 CHI(2)
                   d(MKS) = d(A.U.)/0.514220632 pm/V
                   d(CGS) = d(A.U.)/(4PI*1.7152535)  10**(-7) esu

 FIELD INTENSITY: 1 A.U. = 0.514220632*10**(11) V/m = 1.7152535*10**7 esu
 BEWARE:                CHI(2)=P/(E0*F**2)   (MKS)
                        CHI(2)=P/F**2        (CGS)
 WHERE P IS THE POLARIZATION VECTOR AND F IS THE APPLIED ELECTRIC FIELD.
 CONSISTENCY IS  PRESERVED BY MULTIPLYING THE CGS VALUE TIMES THE PERMITTIVITY
 OF THE VACUUM, E0 (CONVERSION FACTORS FROM www.physics.nist.gov/constants).
 IN PARENTHESIS: BETA BEFORE SYMMETRIZATION.

 *******************************************************************************


 GCALCO - MAX INDICES DIRECT LATTICE VECTOR    14    14    16
 NO.OF VECTORS CREATED 6999 STARS  485 RMAX   198.94668 BOHR

 CAPPA:IS1  3;IS2  3;IS3  3; K PTS MONK NET   6; SYMMOPS:K SPACE   8;G SPACE   4

 TTTTTTTTTTTTTTTTTTTTTTTTTTTTTT END         TELAPSE   195671.33 TCPU   194369.19
 EEEEEEEEEE TERMINATION  DATE 29 11 2023 TIME 17:30:38.8
NODE    0 CPU TIME =    194369.193
NODE    1 CPU TIME =    194733.728
NODE    2 CPU TIME =    194304.242
NODE    3 CPU TIME =    194208.863
NODE    4 CPU TIME =    194505.223
NODE    5 CPU TIME =    194745.472
NODE    6 CPU TIME =    194299.298
NODE    7 CPU TIME =    194218.735
NODE    8 CPU TIME =    194485.582
NODE    9 CPU TIME =    194716.547
NODE   10 CPU TIME =    194120.956
NODE   11 CPU TIME =    194008.895
NODE   12 CPU TIME =    194262.564
NODE   13 CPU TIME =    194490.454
NODE   14 CPU TIME =    194076.420
NODE   15 CPU TIME =    194051.841
NODE   16 CPU TIME =    194229.549
NODE   17 CPU TIME =    194512.066
NODE   18 CPU TIME =    194097.837
NODE   19 CPU TIME =    194029.441
NODE   20 CPU TIME =    194241.752
NODE   21 CPU TIME =    194487.250
NODE   22 CPU TIME =    194103.415
NODE   23 CPU TIME =    193975.103
    TOTAL CPU TIME =   4663274.426
trying normal rsh (/usr/bin/rsh)
exec: No such file or directory
trying normal rsh (/usr/bin/rsh)
exec: No such file or directory
trying normal rsh (/usr/bin/rsh)
exec: No such file or directory
trying normal rsh (/usr/bin/rsh)
exec: No such file or directory
