Loading crystal17/1.0.2/intel/19.0
  Loading requirement: intel/19.0 ompi/4.0.1/intel/19.0
 PROCESS            3  OF           24  WORKING
 PROCESS           15  OF           24  WORKING
 PROCESS           18  OF           24  WORKING
 PROCESS           21  OF           24  WORKING
 PROCESS           23  OF           24  WORKING
 PROCESS            0  OF           24  WORKING
 PROCESS            1  OF           24  WORKING
 PROCESS            2  OF           24  WORKING
 PROCESS            4  OF           24  WORKING
 PROCESS            5  OF           24  WORKING
 PROCESS            6  OF           24  WORKING
 PROCESS            7  OF           24  WORKING
 PROCESS            8  OF           24  WORKING
 PROCESS            9  OF           24  WORKING
 PROCESS           10  OF           24  WORKING
 PROCESS           12  OF           24  WORKING
 PROCESS           13  OF           24  WORKING
 PROCESS           14  OF           24  WORKING
 PROCESS           16  OF           24  WORKING
 PROCESS           17  OF           24  WORKING
 PROCESS           19  OF           24  WORKING
 PROCESS           20  OF           24  WORKING
 PROCESS           22  OF           24  WORKING
 PROCESS           11  OF           24  WORKING

         
 *******************************************************************************
 *                                                                             *
 *                               CRYSTAL17                                     *
 *                      public : 1.0.2 - March 1st, 2018                       *
 *                       HTTP://WWW.CRYSTAL.UNITO.IT                           *
 *                                                                             *
 *                              MAIN AUTHORS                                   *
 *                                                                             *
 *  R. DOVESI(1,11), V.R. SAUNDERS(2), C. ROETTI(1,11), R. ORLANDO(1,11),      *
 *  C.M. ZICOVICH-WILSON(1,3), F. PASCALE(4), B. CIVALLERI(1,11),              *
 *  K. DOLL(5), N.M. HARRISON(2,6), I.J. BUSH(7), Ph. D'ARCO(8),               *
 *  M. LLUNELL(9), M. CAUSA'(10), Y. NOEL(8), L. MASCHIO(1,11), A. ERBA(1,11)  *
 *  M. RE'RAT(14), S. CASASSA(1,11)                                            *
 *                                                                             *
 *        CONTRIBUTIONS TO THE CODE HAVE ALSO BEEN GIVEN BY                    *
 *                                                                             *
 *  M. FERRABONE(1,11), M. DE LA PIERRE(1,11), M. FERRERO(1,11),               *
 *  J. BAIMA(1,11), E. ALBANESE(1,11), M.F. PEINTINGER(12), R. BAST(13),       *
 *  B. KIRTMAN(15), V. LACIVITA(1,11), R. DEMICHELIS(1,16)                     *
 *  G. BRANDEBURG(17), S. SALUSTRO(1,11), G. SANSONE(1,11)                     *
 *  M.T. RUGGIERO(18)                                                          *
 *                                                                             *
 * (1) THEORETICAL CHEMISTRY GROUP - UNIVERSITA' DI TORINO - TORINO (ITALY)    *
 * (2) COMPUTATIONAL SCIENCE & ENGINEERING DEPARTMENT - STFC DARESBURY (UK)    *
 * (3) UNIVERSIDAD AUTONOMA DEL ESTADO DE MORELOS - CUERNAVACA (MEXICO)        *
 * (4) UNIVERSITE' DE LORRAINE - NANCY (FRANCE)                                *
 * (5) UNIVERSITAET STUTTGART- STUTTGART (GERMANY)                             *
 * (6) IMPERIAL COLLEGE - LONDON (UK)                                          *
 * (7) OXFORD E-RESEARCH CENTRE - OXFORD (UK)                                  *
 * (8) UPMC - SORBONNE UNIVERSITES - PARIS (FRANCE)                            *
 * (9) UNIVERSIDAD DE BARCELONA - BARCELONA (SPAIN)                            *
 *(10) UNIVERSITA' DI NAPOLI "FEDERICO II" - NAPOLI (ITALY)                    *
 *(11) NIS - NANOSTRUCTURED INTERFACES AND SURFACES - TORINO (ITALY)           *
 *(12) MPI FUER CHEMISCHE ENERGIEKONVERSION - MUELHEIM AN DER RUHR (GERMANY)   *
 *(13) UNIVERSITY OF TROMSO - TROMSO (NORWAY)                                  *
 *(14) UNIVERSITE' DE PAU ET DES PAYS DE L'ADOUR - PAU (FRANCE)                *
 *(15) UNIVERSITY OF CALIFORNIA SANTA BARBARA - SANTA BARBARA (USA)            *
 *(16) CURTIN UNIVERSITY - PERTH (AUSTRALIA)                                   *
 *(17) UNIVERSITY COLLEGE LONDON - LONDON (UK)                                 *
 *(18) CAMBRIDGE UNIVERSITY - CAMBRIDGE (UK)                                   *
 *                                                                             *
 *******************************************************************************
 EEEEEEEEEE STARTING  DATE 27 11 2023 TIME 11:18:43.4
 Z:\home\sanoj\Downloads\tmp_p\newconn.mol                                       

 CRYSTAL CALCULATION
 (INPUT ACCORDING TO THE INTERNATIONAL TABLES FOR X-RAY CRYSTALLOGRAPHY)
 CRYSTAL FAMILY                       :  TETRAGONAL  
 CRYSTAL CLASS  (GROTH - 1921)        :  TETRAGONAL DISPHENOIDAL              

 SPACE GROUP (NONCENTROSYMMETRIC)     :  I -4            

 LATTICE PARAMETERS  (ANGSTROMS AND DEGREES) - CONVENTIONAL CELL
        A           B           C        ALPHA        BETA       GAMMA
    10.61463    10.61463    12.14767    90.00000    90.00000    90.00000


 NUMBER OF IRREDUCIBLE ATOMS IN THE CONVENTIONAL CELL:   17

 INPUT COORDINATES

 ATOM AT. N.              COORDINATES
   1   1     4.764000000000E-01  8.307800000000E-01  4.213600000000E-01
   2   1     3.695800000000E-01  4.590400000000E-01  3.678300000000E-01
   3   6     2.772300000000E-01  8.114600000000E-01  3.857900000000E-01
   4   6     2.570000000000E-01 -5.288000000000E-02  3.807800000000E-01
   5   6     1.830000000000E-01  7.214000000000E-01  3.678700000000E-01
   6   6     3.410000000000E-01  5.580400000000E-01  3.737200000000E-01
   7   6     4.004800000000E-01  7.652700000000E-01  4.010500000000E-01
   8   6     7.848600000000E-01  4.059600000000E-01  3.627900000000E-01
   9   7     3.469400000000E-01  2.631000000000E-02  3.419500000000E-01
  10   7     3.008700000000E-01  1.469800000000E-01  3.506000000000E-01
  11   7     1.563100000000E-01  1.688000000000E-02  4.112500000000E-01
  12   7     1.862900000000E-01  1.414000000000E-01  3.915800000000E-01
  13   7     4.321700000000E-01  6.435200000000E-01  3.933200000000E-01
  14   9     6.252000000000E-02  7.565800000000E-01  3.541700000000E-01
  15   9     1.251100000000E-01  5.067200000000E-01  3.475800000000E-01
  16  30     0.000000000000E+00  5.000000000000E-01  7.500000000000E-01
  17  30     0.000000000000E+00  0.000000000000E+00  5.000000000000E-01

 *******************************************************************************

 << INFORMATION >>: FROM NOW ON, ALL COORDINATES REFER TO THE PRIMITIVE CELL

 *******************************************************************************

 LATTICE PARAMETERS  (ANGSTROMS AND DEGREES) - PRIMITIVE CELL
       A          B          C        ALPHA      BETA     GAMMA        VOLUME
    9.65540    9.65540    9.65540   113.31076 113.31076 102.03822    684.341961

 COORDINATES OF THE EQUIVALENT ATOMS (FRACTIONAL UNITS)

 N. ATOM EQUIV AT. N.          X                  Y                  Z

   1   1   1    1 H     2.52140000000E-01 -1.02240000000E-01  3.07180000000E-01
   2   1   2    1 H    -4.09420000000E-01 -5.50400000000E-02 -3.07180000000E-01
   3   1   3    1 H     1.02240000000E-01  4.09420000000E-01  3.54380000000E-01
   4   1   4    1 H     5.50400000000E-02 -2.52140000000E-01 -3.54380000000E-01

   5   2   1    1 H    -1.73130000000E-01 -2.62590000000E-01 -1.71380000000E-01
   6   2   2    1 H    -9.12100000000E-02 -1.75000000000E-03  1.71380000000E-01
   7   2   3    1 H     2.62590000000E-01  9.12100000000E-02  8.94600000000E-02
   8   2   4    1 H     1.75000000000E-03  1.73130000000E-01 -8.94600000000E-02

   9   3   1    6 C     1.97250000000E-01 -3.36980000000E-01  8.86900000000E-02
  10   3   2    6 C    -4.25670000000E-01  1.08560000000E-01 -8.86900000000E-02
  11   3   3    6 C     3.36980000000E-01  4.25670000000E-01 -4.65770000000E-01
  12   3   4    6 C    -1.08560000000E-01 -1.97250000000E-01  4.65770000000E-01

  13   4   1    6 C     3.27900000000E-01 -3.62220000000E-01  2.04120000000E-01
  14   4   2    6 C     4.33660000000E-01  1.23780000000E-01 -2.04120000000E-01
  15   4   3    6 C     3.62220000000E-01 -4.33660000000E-01 -3.09880000000E-01
  16   4   4    6 C    -1.23780000000E-01 -3.27900000000E-01  3.09880000000E-01

  17   5   1    6 C     8.92700000000E-02 -4.49130000000E-01 -9.56000000000E-02
  18   5   2    6 C    -3.53530000000E-01  1.84870000000E-01  9.56000000000E-02
  19   5   3    6 C     4.49130000000E-01  3.53530000000E-01 -4.61600000000E-01
  20   5   4    6 C    -1.84870000000E-01 -8.92700000000E-02  4.61600000000E-01

  21   6   1    6 C    -6.82400000000E-02 -2.85280000000E-01 -1.00960000000E-01
  22   6   2    6 C    -1.84320000000E-01  3.27200000000E-02  1.00960000000E-01
  23   6   3    6 C     2.85280000000E-01  1.84320000000E-01  2.17040000000E-01
  24   6   4    6 C    -3.27200000000E-02  6.82400000000E-02 -2.17040000000E-01

  25   7   1    6 C     1.66320000000E-01 -1.98470000000E-01  1.65750000000E-01
  26   7   2    6 C    -3.64220000000E-01  5.70000000000E-04 -1.65750000000E-01
  27   7   3    6 C     1.98470000000E-01  3.64220000000E-01  3.64790000000E-01
  28   7   4    6 C    -5.70000000000E-04 -1.66320000000E-01 -3.64790000000E-01

  29   8   1    6 C    -2.31250000000E-01  1.47650000000E-01  1.90820000000E-01
  30   8   2    6 C    -4.31700000000E-02 -4.22070000000E-01 -1.90820000000E-01
  31   8   3    6 C    -1.47650000000E-01  4.31700000000E-02 -3.78900000000E-01
  32   8   4    6 C     4.22070000000E-01  2.31250000000E-01  3.78900000000E-01

  33   9   1    7 N     3.68260000000E-01 -3.11110000000E-01  3.73250000000E-01
  34   9   2    7 N     3.15640000000E-01 -4.99000000000E-03 -3.73250000000E-01
  35   9   3    7 N     3.11110000000E-01 -3.15640000000E-01 -3.20630000000E-01
  36   9   4    7 N     4.99000000000E-03 -3.68260000000E-01  3.20630000000E-01

  37  10   1    7 N     4.97580000000E-01 -3.48530000000E-01  4.47850000000E-01
  38  10   2    7 N     2.03620000000E-01  4.97300000000E-02 -4.47850000000E-01
  39  10   3    7 N     3.48530000000E-01 -2.03620000000E-01 -1.53890000000E-01
  40  10   4    7 N    -4.97300000000E-02 -4.97580000000E-01  1.53890000000E-01

  41  11   1    7 N     4.28130000000E-01 -4.32440000000E-01  1.73190000000E-01
  42  11   2    7 N     3.94370000000E-01  2.54940000000E-01 -1.73190000000E-01
  43  11   3    7 N     4.32440000000E-01 -3.94370000000E-01 -1.39430000000E-01
  44  11   4    7 N    -2.54940000000E-01 -4.28130000000E-01  1.39430000000E-01

  45  12   1    7 N    -4.67020000000E-01 -4.22130000000E-01  3.27690000000E-01
  46  12   2    7 N     2.50180000000E-01  2.05290000000E-01 -3.27690000000E-01
  47  12   3    7 N     4.22130000000E-01 -2.50180000000E-01 -4.48900000000E-02
  48  12   4    7 N    -2.05290000000E-01  4.67020000000E-01  4.48900000000E-02

  49  13   1    7 N     3.68400000000E-02 -1.74510000000E-01  7.56900000000E-02
  50  13   2    7 N    -2.50200000000E-01 -3.88500000000E-02 -7.56900000000E-02
  51  13   3    7 N     1.74510000000E-01  2.50200000000E-01  2.11350000000E-01
  52  13   4    7 N     3.88500000000E-02 -3.68400000000E-02 -2.11350000000E-01

  53  14   1    9 F     1.10750000000E-01  4.16690000000E-01 -1.80900000000E-01
  54  14   2    9 F    -4.02410000000E-01  2.91650000000E-01  1.80900000000E-01
  55  14   3    9 F    -4.16690000000E-01  4.02410000000E-01 -3.05940000000E-01
  56  14   4    9 F    -2.91650000000E-01 -1.10750000000E-01  3.05940000000E-01

  57  15   1    9 F    -1.45700000000E-01  4.72690000000E-01 -3.68170000000E-01
  58  15   2    9 F    -1.59140000000E-01  2.22470000000E-01  3.68170000000E-01
  59  15   3    9 F    -4.72690000000E-01  1.59140000000E-01  3.81610000000E-01
  60  15   4    9 F    -2.22470000000E-01  1.45700000000E-01 -3.81610000000E-01

  61  16   1   30 ZN    2.50000000000E-01 -2.50000000000E-01 -5.00000000000E-01

  62  17   1   30 ZN   -5.00000000000E-01 -5.00000000000E-01  0.00000000000E+00

 NUMBER OF SYMMETRY OPERATORS         :    4
 *******************************************************************************
 * GEOMETRY EDITING - INPUT COORDINATES ARE GIVEN IN ANGSTROM         
 *******************************************************************************

 GEOMETRY NOW FULLY CONSISTENT WITH THE GROUP

 GCALCO - MAX INDICES DIRECT LATTICE VECTOR    14    14    15
 NO.OF VECTORS CREATED 6999 STARS  486 RMAX   197.70814 BOHR

 GEOMETRY FOR WAVE FUNCTION - DIMENSIONALITY OF THE SYSTEM    3
 (NON PERIODIC DIRECTION: LATTICE PARAMETER FORMALLY SET TO 500)
 *******************************************************************************
 LATTICE PARAMETERS (ANGSTROMS AND DEGREES) - BOHR = 0.5291772083 ANGSTROM
 PRIMITIVE CELL - CENTRING CODE 6/0 VOLUME=   684.341961 - DENSITY  2.077 g/cm^3
         A              B              C           ALPHA      BETA       GAMMA 
     9.65539849     9.65539849     9.65539849   113.310759 113.310759 102.038217
 *******************************************************************************
 ATOMS IN THE ASYMMETRIC UNIT   17 - ATOMS IN THE UNIT CELL:   62
     ATOM                 X/A                 Y/B                 Z/C    
 *******************************************************************************
      1 T   1 H     2.521400000000E-01 -1.022400000000E-01  3.071800000000E-01
      2 F   1 H    -4.094200000000E-01 -5.504000000000E-02 -3.071800000000E-01
      3 F   1 H     1.022400000000E-01  4.094200000000E-01  3.543800000000E-01
      4 F   1 H     5.504000000000E-02 -2.521400000000E-01 -3.543800000000E-01
      5 T   1 H    -1.731300000000E-01 -2.625900000000E-01 -1.713800000000E-01
      6 F   1 H    -9.121000000000E-02 -1.750000000000E-03  1.713800000000E-01
      7 F   1 H     2.625900000000E-01  9.121000000000E-02  8.946000000000E-02
      8 F   1 H     1.750000000000E-03  1.731300000000E-01 -8.946000000000E-02
      9 T   6 C     1.972500000000E-01 -3.369800000000E-01  8.869000000000E-02
     10 F   6 C    -4.256700000000E-01  1.085600000000E-01 -8.869000000000E-02
     11 F   6 C     3.369800000000E-01  4.256700000000E-01 -4.657700000000E-01
     12 F   6 C    -1.085600000000E-01 -1.972500000000E-01  4.657700000000E-01
     13 T   6 C     3.279000000000E-01 -3.622200000000E-01  2.041200000000E-01
     14 F   6 C     4.336600000000E-01  1.237800000000E-01 -2.041200000000E-01
     15 F   6 C     3.622200000000E-01 -4.336600000000E-01 -3.098800000000E-01
     16 F   6 C    -1.237800000000E-01 -3.279000000000E-01  3.098800000000E-01
     17 T   6 C     8.927000000000E-02 -4.491300000000E-01 -9.560000000000E-02
     18 F   6 C    -3.535300000000E-01  1.848700000000E-01  9.560000000000E-02
     19 F   6 C     4.491300000000E-01  3.535300000000E-01 -4.616000000000E-01
     20 F   6 C    -1.848700000000E-01 -8.927000000000E-02  4.616000000000E-01
     21 T   6 C    -6.824000000000E-02 -2.852800000000E-01 -1.009600000000E-01
     22 F   6 C    -1.843200000000E-01  3.272000000000E-02  1.009600000000E-01
     23 F   6 C     2.852800000000E-01  1.843200000000E-01  2.170400000000E-01
     24 F   6 C    -3.272000000000E-02  6.824000000000E-02 -2.170400000000E-01
     25 T   6 C     1.663200000000E-01 -1.984700000000E-01  1.657500000000E-01
     26 F   6 C    -3.642200000000E-01  5.699999999998E-04 -1.657500000000E-01
     27 F   6 C     1.984700000000E-01  3.642200000000E-01  3.647900000000E-01
     28 F   6 C    -5.700000000000E-04 -1.663200000000E-01 -3.647900000000E-01
     29 T   6 C    -2.312500000000E-01  1.476500000000E-01  1.908200000000E-01
     30 F   6 C    -4.317000000000E-02 -4.220700000000E-01 -1.908200000000E-01
     31 F   6 C    -1.476500000000E-01  4.317000000000E-02 -3.789000000000E-01
     32 F   6 C     4.220700000000E-01  2.312500000000E-01  3.789000000000E-01
     33 T   7 N     3.682600000000E-01 -3.111100000000E-01  3.732500000000E-01
     34 F   7 N     3.156400000000E-01 -4.990000000000E-03 -3.732500000000E-01
     35 F   7 N     3.111100000000E-01 -3.156400000000E-01 -3.206300000000E-01
     36 F   7 N     4.990000000000E-03 -3.682600000000E-01  3.206300000000E-01
     37 T   7 N     4.975800000000E-01 -3.485300000000E-01  4.478500000000E-01
     38 F   7 N     2.036200000000E-01  4.973000000000E-02 -4.478500000000E-01
     39 F   7 N     3.485300000000E-01 -2.036200000000E-01 -1.538900000000E-01
     40 F   7 N    -4.973000000000E-02 -4.975800000000E-01  1.538900000000E-01
     41 T   7 N     4.281300000000E-01 -4.324400000000E-01  1.731900000000E-01
     42 F   7 N     3.943700000000E-01  2.549400000000E-01 -1.731900000000E-01
     43 F   7 N     4.324400000000E-01 -3.943700000000E-01 -1.394300000000E-01
     44 F   7 N    -2.549400000000E-01 -4.281300000000E-01  1.394300000000E-01
     45 T   7 N    -4.670200000000E-01 -4.221300000000E-01  3.276900000000E-01
     46 F   7 N     2.501800000000E-01  2.052900000000E-01 -3.276900000000E-01
     47 F   7 N     4.221300000000E-01 -2.501800000000E-01 -4.489000000000E-02
     48 F   7 N    -2.052900000000E-01  4.670200000000E-01  4.489000000000E-02
     49 T   7 N     3.684000000000E-02 -1.745100000000E-01  7.569000000000E-02
     50 F   7 N    -2.502000000000E-01 -3.885000000000E-02 -7.569000000000E-02
     51 F   7 N     1.745100000000E-01  2.502000000000E-01  2.113500000000E-01
     52 F   7 N     3.885000000000E-02 -3.684000000000E-02 -2.113500000000E-01
     53 T   9 F     1.107500000000E-01  4.166900000000E-01 -1.809000000000E-01
     54 F   9 F    -4.024100000000E-01  2.916500000000E-01  1.809000000000E-01
     55 F   9 F    -4.166900000000E-01  4.024100000000E-01 -3.059400000000E-01
     56 F   9 F    -2.916500000000E-01 -1.107500000000E-01  3.059400000000E-01
     57 T   9 F    -1.457000000000E-01  4.726900000000E-01 -3.681700000000E-01
     58 F   9 F    -1.591400000000E-01  2.224700000000E-01  3.681700000000E-01
     59 F   9 F    -4.726900000000E-01  1.591400000000E-01  3.816100000000E-01
     60 F   9 F    -2.224700000000E-01  1.457000000000E-01 -3.816100000000E-01
     61 T  30 ZN    2.500000000000E-01 -2.500000000000E-01  5.000000000000E-01
     62 T  30 ZN    5.000000000000E-01 -5.000000000000E-01  0.000000000000E+00

 TRANSFORMATION MATRIX PRIMITIVE-CRYSTALLOGRAPHIC CELL
  0.0000  1.0000  1.0000  1.0000  0.0000  1.0000  1.0000  1.0000  0.0000

 *******************************************************************************
 CRYSTALLOGRAPHIC CELL (VOLUME=       1368.68392266)
         A              B              C           ALPHA      BETA       GAMMA 
    10.61463448    10.61463448    12.14767261    90.000000  90.000000  90.000000

 COORDINATES IN THE CRYSTALLOGRAPHIC CELL
     ATOM                 X/A                 Y/B                 Z/C    
 *******************************************************************************
      1 T   1 H    -2.360000000000E-02  3.307800000000E-01 -7.864000000000E-02
      2 F   1 H     2.360000000000E-02 -3.307800000000E-01 -7.864000000000E-02
      3 F   1 H     3.307800000000E-01  2.360000000000E-02  7.864000000000E-02
      4 F   1 H    -3.307800000000E-01 -2.360000000000E-02  7.864000000000E-02
      5 T   1 H    -1.304200000000E-01 -4.096000000000E-02 -1.321700000000E-01
      6 F   1 H     1.304200000000E-01  4.096000000000E-02 -1.321700000000E-01
      7 F   1 H    -4.096000000000E-02  1.304200000000E-01  1.321700000000E-01
      8 F   1 H     4.096000000000E-02 -1.304200000000E-01  1.321700000000E-01
      9 T   6 C    -2.227700000000E-01  3.114600000000E-01 -1.142100000000E-01
     10 F   6 C     2.227700000000E-01 -3.114600000000E-01 -1.142100000000E-01
     11 F   6 C     3.114600000000E-01  2.227700000000E-01  1.142100000000E-01
     12 F   6 C    -3.114600000000E-01 -2.227700000000E-01  1.142100000000E-01
     13 T   6 C     2.570000000000E-01 -5.288000000000E-02  3.807800000000E-01
     14 F   6 C    -2.570000000000E-01  5.288000000000E-02  3.807800000000E-01
     15 F   6 C    -5.288000000000E-02 -2.570000000000E-01 -3.807800000000E-01
     16 F   6 C     5.288000000000E-02  2.570000000000E-01 -3.807800000000E-01
     17 T   6 C    -3.170000000000E-01  2.214000000000E-01 -1.321300000000E-01
     18 F   6 C     3.170000000000E-01 -2.214000000000E-01 -1.321300000000E-01
     19 F   6 C     2.214000000000E-01  3.170000000000E-01  1.321300000000E-01
     20 F   6 C    -2.214000000000E-01 -3.170000000000E-01  1.321300000000E-01
     21 T   6 C    -1.590000000000E-01  5.804000000000E-02 -1.262800000000E-01
     22 F   6 C     1.590000000000E-01 -5.804000000000E-02 -1.262800000000E-01
     23 F   6 C     5.804000000000E-02  1.590000000000E-01  1.262800000000E-01
     24 F   6 C    -5.804000000000E-02 -1.590000000000E-01  1.262800000000E-01
     25 T   6 C    -9.952000000000E-02  2.652700000000E-01 -9.895000000000E-02
     26 F   6 C     9.952000000000E-02 -2.652700000000E-01 -9.895000000000E-02
     27 F   6 C     2.652700000000E-01  9.952000000000E-02  9.895000000000E-02
     28 F   6 C    -2.652700000000E-01 -9.952000000000E-02  9.895000000000E-02
     29 T   6 C     2.848600000000E-01 -9.404000000000E-02 -1.372100000000E-01
     30 F   6 C    -2.848600000000E-01  9.404000000000E-02 -1.372100000000E-01
     31 F   6 C    -9.404000000000E-02 -2.848600000000E-01  1.372100000000E-01
     32 F   6 C     9.404000000000E-02  2.848600000000E-01  1.372100000000E-01
     33 T   7 N     3.469400000000E-01  2.631000000000E-02  3.419500000000E-01
     34 F   7 N    -3.469400000000E-01 -2.631000000000E-02  3.419500000000E-01
     35 F   7 N     2.631000000000E-02 -3.469400000000E-01 -3.419500000000E-01
     36 F   7 N    -2.631000000000E-02  3.469400000000E-01 -3.419500000000E-01
     37 T   7 N    -1.991300000000E-01 -3.530200000000E-01 -1.494000000000E-01
     38 F   7 N     1.991300000000E-01  3.530200000000E-01 -1.494000000000E-01
     39 F   7 N    -3.530200000000E-01  1.991300000000E-01  1.494000000000E-01
     40 F   7 N     3.530200000000E-01 -1.991300000000E-01  1.494000000000E-01
     41 T   7 N     1.563100000000E-01  1.688000000000E-02  4.112500000000E-01
     42 F   7 N    -1.563100000000E-01 -1.688000000000E-02  4.112500000000E-01
     43 F   7 N     1.688000000000E-02 -1.563100000000E-01 -4.112500000000E-01
     44 F   7 N    -1.688000000000E-02  1.563100000000E-01 -4.112500000000E-01
     45 T   7 N    -3.137100000000E-01 -3.586000000000E-01 -1.084200000000E-01
     46 F   7 N     3.137100000000E-01  3.586000000000E-01 -1.084200000000E-01
     47 F   7 N    -3.586000000000E-01  3.137100000000E-01  1.084200000000E-01
     48 F   7 N     3.586000000000E-01 -3.137100000000E-01  1.084200000000E-01
     49 T   7 N    -6.783000000000E-02  1.435200000000E-01 -1.066800000000E-01
     50 F   7 N     6.783000000000E-02 -1.435200000000E-01 -1.066800000000E-01
     51 F   7 N     1.435200000000E-01  6.783000000000E-02  1.066800000000E-01
     52 F   7 N    -1.435200000000E-01 -6.783000000000E-02  1.066800000000E-01
     53 T   9 F     6.252000000000E-02 -2.434200000000E-01  3.541700000000E-01
     54 F   9 F    -6.252000000000E-02  2.434200000000E-01  3.541700000000E-01
     55 F   9 F    -2.434200000000E-01 -6.252000000000E-02 -3.541700000000E-01
     56 F   9 F     2.434200000000E-01  6.252000000000E-02 -3.541700000000E-01
     57 T   9 F    -3.748900000000E-01  6.720000000000E-03 -1.524200000000E-01
     58 F   9 F     3.748900000000E-01 -6.720000000000E-03 -1.524200000000E-01
     59 F   9 F     6.720000000000E-03  3.748900000000E-01  1.524200000000E-01
     60 F   9 F    -6.720000000000E-03 -3.748900000000E-01  1.524200000000E-01
     61 T  30 ZN   -5.000000000000E-01  0.000000000000E+00  2.500000000000E-01
     62 T  30 ZN    0.000000000000E+00  0.000000000000E+00 -5.000000000000E-01

 T = ATOM BELONGING TO THE ASYMMETRIC UNIT

 ****    4 SYMMOPS - TRANSLATORS IN FRACTIONAL UNITS
 **** MATRICES AND TRANSLATORS IN THE CRYSTALLOGRAPHIC REFERENCE FRAME
   V INV                    ROTATION MATRICES                   TRANSLATORS
   1   1  1.00  0.00  0.00  0.00  1.00  0.00  0.00  0.00  1.00  0.00  0.00  0.00
   2   2 -0.00  1.00 -1.00  1.00  0.00 -1.00  0.00  0.00 -1.00  0.00  0.00  0.00
   3   4  0.00 -1.00 -0.00  0.00 -1.00  1.00  1.00 -1.00  0.00  0.00  0.00  0.00
   4   3 -1.00  0.00  1.00 -1.00  0.00  0.00 -1.00  1.00  0.00  0.00  0.00  0.00

 DIRECT LATTICE VECTORS CARTESIAN COMPONENTS (ANGSTROM)
          X                    Y                    Z
  -0.530731723795E+01   0.530731723795E+01   0.607383630645E+01
   0.530731723795E+01  -0.530731723795E+01   0.607383630645E+01
   0.530731723795E+01   0.530731723795E+01  -0.607383630645E+01


 CARTESIAN COORDINATES - PRIMITIVE CELL
 *******************************************************************************
 *      ATOM          X(ANGSTROM)         Y(ANGSTROM)         Z(ANGSTROM)
 *******************************************************************************
    1     1 H    -2.505053736312E-01  3.511108791938E+00 -9.552929742785E-01
    2     1 H     2.505053736312E-01 -3.511108791938E+00 -9.552929742785E-01
    3     1 H     3.511108791938E+00  2.505053736312E-01  9.552929742785E-01
    4     1 H    -3.511108791938E+00 -2.505053736312E-01  9.552929742785E-01
    5     1 H    -1.384360628347E+00 -4.347754281329E-01 -1.605557889247E+00
    6     1 H     1.384360628347E+00  4.347754281329E-01 -1.605557889247E+00
    7     1 H    -4.347754281329E-01  1.384360628347E+00  1.605557889247E+00
    8     1 H     4.347754281329E-01 -1.384360628347E+00  1.605557889247E+00
    9     6 C    -2.364622122196E+00  3.306034053864E+00 -1.387385689119E+00
   10     6 C     2.364622122196E+00 -3.306034053864E+00 -1.387385689119E+00
   11     6 C     3.306034053864E+00  2.364622122196E+00  1.387385689119E+00
   12     6 C    -3.306034053864E+00 -2.364622122196E+00  1.387385689119E+00
   13     6 C     2.727961060306E+00 -5.613018710856E-01  4.625590777540E+00
   14     6 C    -2.727961060306E+00  5.613018710856E-01  4.625590777540E+00
   15     6 C    -5.613018710856E-01 -2.727961060306E+00 -4.625590777540E+00
   16     6 C     5.613018710856E-01  2.727961060306E+00 -4.625590777540E+00
   17     6 C    -3.364839128860E+00  2.350080072964E+00 -1.605071982342E+00
   18     6 C     3.364839128860E+00 -2.350080072964E+00 -1.605071982342E+00
   19     6 C     2.350080072964E+00  3.364839128860E+00  1.605071982342E+00
   20     6 C    -2.350080072964E+00 -3.364839128860E+00  1.605071982342E+00
   21     6 C    -1.687726881668E+00  6.160733849812E-01 -1.534008097557E+00
   22     6 C     1.687726881668E+00 -6.160733849812E-01 -1.534008097557E+00
   23     6 C     6.160733849812E-01  1.687726881668E+00  1.534008097557E+00
   24     6 C    -6.160733849812E-01 -1.687726881668E+00  1.534008097557E+00
   25     6 C    -1.056368423042E+00  2.815744087422E+00 -1.202012205046E+00
   26     6 C     1.056368423042E+00 -2.815744087422E+00 -1.202012205046E+00
   27     6 C     2.815744087422E+00  1.056368423042E+00  1.202012205046E+00
   28     6 C    -2.815744087422E+00 -1.056368423042E+00  1.202012205046E+00
   29     6 C     3.023684776805E+00 -9.982002261136E-01 -1.666782159216E+00
   30     6 C    -3.023684776805E+00  9.982002261136E-01 -1.666782159216E+00
   31     6 C    -9.982002261136E-01 -3.023684776805E+00  1.666782159216E+00
   32     6 C     9.982002261136E-01  3.023684776805E+00  1.666782159216E+00
   33     7 N     3.682641285069E+00  2.792710330609E-01  4.153896649981E+00
   34     7 N    -3.682641285069E+00 -2.792710330609E-01  4.153896649981E+00
   35     7 N     2.792710330609E-01 -3.682641285069E+00 -4.153896649981E+00
   36     7 N    -2.792710330609E-01  3.682641285069E+00 -4.153896649981E+00
   37     7 N    -2.113692163186E+00 -3.747178262682E+00 -1.814862288367E+00
   38     7 N     2.113692163186E+00  3.747178262682E+00 -1.814862288367E+00
   39     7 N    -3.747178262682E+00  2.113692163186E+00  1.814862288367E+00
   40     7 N     3.747178262682E+00 -2.113692163186E+00  1.814862288367E+00
   41     7 N     1.659173514928E+00  1.791750299532E-01  4.995730362055E+00
   42     7 N    -1.659173514928E+00 -1.791750299532E-01  4.995730362055E+00
   43     7 N     1.791750299532E-01 -1.659173514928E+00 -4.995730362055E+00
   44     7 N    -1.791750299532E-01  1.659173514928E+00 -4.995730362055E+00
   45     7 N    -3.329916981435E+00 -3.806407923058E+00 -1.317050664691E+00
   46     7 N     3.329916981435E+00  3.806407923058E+00 -1.317050664691E+00
   47     7 N    -3.806407923058E+00  3.329916981435E+00  1.317050664691E+00
   48     7 N     3.806407923058E+00 -3.329916981435E+00  1.317050664691E+00
   49     7 N    -7.199906565003E-01  1.523412339981E+00 -1.295913714344E+00
   50     7 N     7.199906565003E-01 -1.523412339981E+00 -1.295913714344E+00
   51     7 N     1.523412339981E+00  7.199906565003E-01  1.295913714344E+00
   52     7 N    -1.523412339981E+00 -7.199906565003E-01  1.295913714344E+00
   53     9 F     6.636269474333E-01 -2.583814324124E+00  4.302341209311E+00
   54     9 F    -6.636269474333E-01  2.583814324124E+00  4.302341209311E+00
   55     9 F    -2.583814324124E+00 -6.636269474333E-01 -4.302341209311E+00
   56     9 F     2.583814324124E+00  6.636269474333E-01 -4.302341209311E+00
   57     9 F    -3.979320318670E+00  7.133034367805E-02 -1.851548259658E+00
   58     9 F     3.979320318670E+00 -7.133034367805E-02 -1.851548259658E+00
   59     9 F     7.133034367805E-02  3.979320318670E+00  1.851548259658E+00
   60     9 F    -7.133034367805E-02 -3.979320318670E+00  1.851548259658E+00
   61    30 ZN    5.307317237950E+00  0.000000000000E+00 -9.110754459675E+00
   62    30 ZN    0.000000000000E+00  0.000000000000E+00  6.073836306450E+00

 *******************************************************************************
 STARTING BASIS SET HANDLING 
 *******************************************************************************

 Loading internal basis set: POB-DZVPP           

 Please cite in your publication:
 Peintinger, M. F., Oliveira, D. V. and Bredow, T. (2013), Generally applicable 
 solid-state Gaussian basis sets, in preparation                                
                                                                                
                    

 *******************************************************************************
 LOCAL ATOMIC FUNCTIONS BASIS SET
 *******************************************************************************
   ATOM   X(AU)   Y(AU)   Z(AU)  N. TYPE  EXPONENT  S COEF   P COEF   D/F/G COEF
 *******************************************************************************
   1 H   -0.473   6.635  -1.805
                                  1 S  
                                         2.263E+01 1.441E-02 0.000E+00 0.000E+00
                                         3.236E+00 1.072E-01 0.000E+00 0.000E+00
                                         7.304E-01 3.846E-01 0.000E+00 0.000E+00
                                  2 S  
                                         1.417E-01 1.000E+00 0.000E+00 0.000E+00
                           3-     5 P  
                                         3.944E-01 0.000E+00 1.000E+00 0.000E+00
                           6-     8 P  
                                         1.006E-01 0.000E+00 1.000E+00 0.000E+00
   2 H    0.473  -6.635  -1.805
   3 H    6.635   0.473   1.805
   4 H   -6.635  -0.473   1.805
   5 H   -2.616  -0.822  -3.034
   6 H    2.616   0.822  -3.034
   7 H   -0.822   2.616   3.034
   8 H    0.822  -2.616   3.034
   9 C   -4.468   6.247  -2.622
                                 65 S  
                                         1.238E+03 5.457E-03 0.000E+00 0.000E+00
                                         1.863E+02 4.064E-02 0.000E+00 0.000E+00
                                         4.225E+01 1.803E-01 0.000E+00 0.000E+00
                                         1.168E+01 4.632E-01 0.000E+00 0.000E+00
                                         3.593E+00 4.409E-01 0.000E+00 0.000E+00
                                 66 S  
                                         5.281E+00 1.000E+00 0.000E+00 0.000E+00
                                 67 S  
                                         4.447E-01 1.000E+00 0.000E+00 0.000E+00
                          68-    70 P  
                                         9.468E+00 0.000E+00 3.839E-02 0.000E+00
                                         2.010E+00 0.000E+00 2.112E-01 0.000E+00
                                         5.477E-01 0.000E+00 5.133E-01 0.000E+00
                          71-    73 P  
                                         1.604E-01 0.000E+00 1.000E+00 0.000E+00
                          74-    78 D  
                                         6.070E-01 0.000E+00 0.000E+00 1.000E+00
                          79-    83 D  
                                         2.939E-01 0.000E+00 0.000E+00 1.000E+00
  10 C    4.468  -6.247  -2.622
  11 C    6.247   4.468   2.622
  12 C   -6.247  -4.468   2.622
  13 C    5.155  -1.061   8.741
  14 C   -5.155   1.061   8.741
  15 C   -1.061  -5.155  -8.741
  16 C    1.061   5.155  -8.741
  17 C   -6.359   4.441  -3.033
  18 C    6.359  -4.441  -3.033
  19 C    4.441   6.359   3.033
  20 C   -4.441  -6.359   3.033
  21 C   -3.189   1.164  -2.899
  22 C    3.189  -1.164  -2.899
  23 C    1.164   3.189   2.899
  24 C   -1.164  -3.189   2.899
  25 C   -1.996   5.321  -2.271
  26 C    1.996  -5.321  -2.271
  27 C    5.321   1.996   2.271
  28 C   -5.321  -1.996   2.271
  29 C    5.714  -1.886  -3.150
  30 C   -5.714   1.886  -3.150
  31 C   -1.886  -5.714   3.150
  32 C    1.886   5.714   3.150
  33 N    6.959   0.528   7.850
                                521 S  
                                         1.713E+03-5.393E-03 0.000E+00 0.000E+00
                                         2.576E+02-4.022E-02 0.000E+00 0.000E+00
                                         5.846E+01-1.793E-01 0.000E+00 0.000E+00
                                         1.620E+01-4.638E-01 0.000E+00 0.000E+00
                                         5.005E+00-4.417E-01 0.000E+00 0.000E+00
                                522 S  
                                         6.217E-01 1.000E+00 0.000E+00 0.000E+00
                                523 S  
                                         2.921E-01 1.000E+00 0.000E+00 0.000E+00
                         524-   526 P  
                                         1.357E+01 0.000E+00-4.007E-02 0.000E+00
                                         2.926E+00 0.000E+00-2.181E-01 0.000E+00
                                         7.993E-01 0.000E+00-5.129E-01 0.000E+00
                         527-   529 P  
                                         2.244E-01 0.000E+00 1.000E+00 0.000E+00
                         530-   534 D  
                                         3.118E-01 0.000E+00 0.000E+00 1.000E+00
  34 N   -6.959  -0.528   7.850
  35 N    0.528  -6.959  -7.850
  36 N   -0.528   6.959  -7.850
  37 N   -3.994  -7.081  -3.430
  38 N    3.994   7.081  -3.430
  39 N   -7.081   3.994   3.430
  40 N    7.081  -3.994   3.430
  41 N    3.135   0.339   9.441
  42 N   -3.135  -0.339   9.441
  43 N    0.339  -3.135  -9.441
  44 N   -0.339   3.135  -9.441
  45 N   -6.293  -7.193  -2.489
  46 N    6.293   7.193  -2.489
  47 N   -7.193   6.293   2.489
  48 N    7.193  -6.293   2.489
  49 N   -1.361   2.879  -2.449
  50 N    1.361  -2.879  -2.449
  51 N    2.879   1.361   2.449
  52 N   -2.879  -1.361   2.449
  53 F    1.254  -4.883   8.130
                                801 S  
                                         2.895E+03-5.341E-03 0.000E+00 0.000E+00
                                         4.354E+02-3.990E-02 0.000E+00 0.000E+00
                                         9.884E+01-1.791E-01 0.000E+00 0.000E+00
                                         2.749E+01-4.676E-01 0.000E+00 0.000E+00
                                         8.541E+00-4.465E-01 0.000E+00 0.000E+00
                                802 S  
                                         1.123E+00 1.000E+00 0.000E+00 0.000E+00
                                803 S  
                                         3.743E-01 1.000E+00 0.000E+00 0.000E+00
                         804-   806 P  
                                         2.270E+01 0.000E+00-4.521E-02 0.000E+00
                                         4.987E+00 0.000E+00-2.375E-01 0.000E+00
                                         1.349E+00 0.000E+00-5.129E-01 0.000E+00
                         807-   809 P  
                                         3.474E-01 0.000E+00 1.000E+00 0.000E+00
                         810-   814 D  
                                         9.203E-01 0.000E+00 0.000E+00 1.000E+00
                         815-   819 D  
                                         3.977E-01 0.000E+00 0.000E+00 1.000E+00
  54 F   -1.254   4.883   8.130
  55 F   -4.883  -1.254  -8.130
  56 F    4.883   1.254  -8.130
  57 F   -7.520   0.135  -3.499
  58 F    7.520  -0.135  -3.499
  59 F    0.135   7.520   3.499
  60 F   -0.135  -7.520   3.499
  61 ZN  10.029   0.000 -17.217
                                953 S  
                                         8.200E+04 1.421E-03 0.000E+00 0.000E+00
                                         1.231E+04 1.089E-02 0.000E+00 0.000E+00
                                         2.801E+03 5.406E-02 0.000E+00 0.000E+00
                                         7.910E+02 1.885E-01 0.000E+00 0.000E+00
                                         2.576E+02 3.835E-01 0.000E+00 0.000E+00
                                         8.881E+01 2.972E-01 0.000E+00 0.000E+00
                                954 S  
                                         1.719E+02-1.105E-01 0.000E+00 0.000E+00
                                         2.030E+01 6.461E-01 0.000E+00 0.000E+00
                                         8.346E+00 4.422E-01 0.000E+00 0.000E+00
                                955 S  
                                         1.485E+01-2.271E-01 0.000E+00 0.000E+00
                                         2.450E+00 7.243E-01 0.000E+00 0.000E+00
                                         9.985E-01 4.484E-01 0.000E+00 0.000E+00
                                956 S  
                                         1.493E+00 1.000E+00 0.000E+00 0.000E+00
                                957 S  
                                         1.830E-01 1.000E+00 0.000E+00 0.000E+00
                         958-   960 P  
                                         1.072E+03 0.000E+00 9.277E-03 0.000E+00
                                         2.527E+02 0.000E+00 6.954E-02 0.000E+00
                                         8.010E+01 0.000E+00 2.716E-01 0.000E+00
                                         2.890E+01 0.000E+00 5.340E-01 0.000E+00
                                         1.077E+01 0.000E+00 3.450E-01 0.000E+00
                         961-   963 P  
                                         5.645E+00 0.000E+00 3.413E-01 0.000E+00
                                         2.168E+00 0.000E+00 5.639E-01 0.000E+00
                                         8.054E-01 0.000E+00 2.368E-01 0.000E+00
                         964-   966 P  
                                         2.721E-01 0.000E+00 1.000E+00 0.000E+00
                         967-   971 D  
                                         5.609E+01 0.000E+00 0.000E+00 2.959E-02
                                         1.575E+01 0.000E+00 0.000E+00 1.587E-01
                                         5.312E+00 0.000E+00 0.000E+00 3.798E-01
                                         1.774E+00 0.000E+00 0.000E+00 4.690E-01
                         972-   976 D  
                                         5.073E-01 0.000E+00 0.000E+00 1.000E+00
                         977-   983 F  
                                         2.814E+00 0.000E+00 0.000E+00 1.000E+00
                         984-   990 F  
                                         1.300E+00 0.000E+00 0.000E+00 1.000E+00
  62 ZN   0.000   0.000  11.478

 *******************************************************************************
 FINISHED BASIS SET HANDLING 
 *******************************************************************************

 INFORMATION **** SET_MPP **** PCRYSTAL CALCULATION
 INFORMATION **** READM2 **** NEW DEFAULT: FOCK/KS MATRIX MIXING SET TO 30 %
 INFORMATION **** READM2 **** NEW DEFAULT: FULL DIRECT SCF MODE
 INFORMATION **** READM2 **** NEW DEFAULT: COULOMB BIPOLAR BUFFER SET TO 32 Mb
 INFORMATION **** READM2 **** NEW DEFAULT: EXCHANGE BIPOLAR BUFFER SET TO 32 Mb

 *******************************************************************************
 NEW DEFAULT: DFT INTEGRATION GRID INCREASED TO XLGRID
 NEW DEFAULT: DIIS ACCELERATOR ACTIVE
 USE KEYWORD NODIIS TO TURN IT OFF
 *******************************************************************************

 INFORMATION **** DFTD3_INPUT **** PERFORM DISPERSION CORRECTION DFT-D3(BJ) IN THE BECKE-JOHNSON DAMPING SCHEME

 PLEASE CITE:
 (1) DFT-D3 Reference
  S. Grimme, J. Antony, S. Ehrlich, and H. Krieg, J. Chem. Phys. 132 (2010), 154104
 (2) BJ-Damping Reference
  S. Grimme, S. Ehrlich, and L. Goerigk, J. Comput. Chem. 32 (2011), 1456-1465
 (3) General DFT-D Review
  S. Grimme, A. Hansen, J. G. Brandenburg, and C. Bannwarth,
  Chem. Rev. 116 (2016), 5105-5154

 INFORMATION **** TOLINTEG **** COULOMB AND EXCHANGE SERIES TOLERANCES MODIFIED
 INFORMATION **** BIPOSIZE **** COULOMB BIPOLAR BUFFER SET TO   100000000
 INFORMATION **** MAXCYCLE **** MAX NUMBER OF SCF CYCLES SET TO          50
 *******************************************************************************
 N. OF ATOMS PER CELL        62  COULOMB OVERLAP TOL         (T1) 10**  -12
 NUMBER OF SHELLS           400  COULOMB PENETRATION TOL     (T2) 10**  -12
 NUMBER OF AO              1028  EXCHANGE OVERLAP TOL        (T3) 10**   20
 N. OF ELECTRONS PER CELL   424  EXCHANGE PSEUDO OVP (F(G))  (T4) 10**   20
 CORE ELECTRONS PER CELL    140  EXCHANGE PSEUDO OVP (P(G))  (T5) 10**   20
 N. OF SYMMETRY OPERATORS     4  POLE ORDER IN MONO ZONE                  4
 *******************************************************************************
 TYPE OF CALCULATION :  RESTRICTED CLOSED SHELL
 KOHN-SHAM HAMILTONIAN

 (EXCHANGE)[CORRELATION] FUNCTIONAL:(PERDEW-BURKE-ERNZERHOF)[PERDEW-BURKE-ERNZERHOF]


 CAPPA:IS1  3;IS2  3;IS3  3; K PTS MONK NET   6; SYMMOPS:K SPACE   8;G SPACE   4

 *******************************************************************************
 MAX NUMBER OF SCF CYCLES      50  CONVERGENCE ON DELTAP        10**-16
 WEIGHT OF F(I) IN F(I+1)      30% CONVERGENCE ON ENERGY        10**- 6
 SHRINK. FACT.(MONKH.)    3  3  3  NUMBER OF K POINTS IN THE IBZ      6
 SHRINKING FACTOR(GILAT NET)    3  NUMBER OF K POINTS(GILAT NET)      6
 *******************************************************************************
 *** K POINTS COORDINATES (OBLIQUE COORDINATES IN UNITS OF IS =  3)
   1-R(  0  0  0)   2-C(  1  0  0)   3-C(  1  1  0)   4-C(  2  1  0)
   5-C(  2  1  1)   6-C(  2  2  1)

 DIRECT LATTICE VECTORS COMPON. (A.U.)     RECIP. LATTICE VECTORS COMPON. (A.U.) 
        X            Y            Z              X            Y            Z
  -10.0293761   10.0293761   11.4778872      0.0000000    0.3132391    0.2737083
   10.0293761  -10.0293761   11.4778872      0.3132391    0.0000000    0.2737083
   10.0293761   10.0293761  -11.4778872      0.3132391    0.3132391    0.0000000

 DISK SPACE FOR EIGENVECTORS (FTN 10)    11624624 REALS

 SYMMETRY ADAPTION OF THE BLOCH FUNCTIONS ENABLED
 TTTTTTTTTTTTTTTTTTTTTTTTTTTTTT gordsh1     TELAPSE       19.02 TCPU        0.08

 MATRIX SIZE: P(G) 1841920, F(G)  921962, P(G) IRR  233139, F(G) IRR  233139
 MAX G-VECTOR INDEX FOR 1- AND 2-ELECTRON INTEGRALS  59

 TTTTTTTTTTTTTTTTTTTTTTTTTTTTTT INPUT       TELAPSE       20.99 TCPU        2.05

 NEIGHBORS OF THE NON-EQUIVALENT ATOMS

 N = NUMBER OF NEIGHBORS AT DISTANCE R
    ATOM  N     R/ANG      R/AU   NEIGHBORS (ATOM LABELS AND CELL INDICES)
   1 H    1     1.0926     2.0648   25 C    0 0 0
   1 H    1     2.0706     3.9129   49 N    0 0 0
   1 H    1     2.1675     4.0961    9 C    0 0 0
   1 H    1     2.5267     4.7747   38 N    0 0 0
   1 H    1     2.5977     4.9089   34 N    0 0 1
   1 H    1     2.6696     5.0447   33 N    0-1 0

   5 H    1     1.0961     2.0713   21 C    0 0 0
   5 H    1     2.0909     3.9512   49 N    0 0 0
   5 H    1     2.1782     4.1162   30 C    0 0 0
   5 H    1     2.3894     4.5153   50 N    0 0 0
   5 H    1     2.6553     5.0177   57 F    0 0 0
   5 H    1     2.9021     5.4841    6 H    0 0 0

   9 C    1     1.4006     2.6467   17 C    0 0 0
   9 C    1     1.4094     2.6633   25 C    0 0 0
   9 C    1     1.4572     2.7537   13 C    0-1 0
   9 C    1     2.1675     4.0961    1 H    0 0 0
   9 C    1     2.3835     4.5041   53 F    0-1 0
   9 C    1     2.4163     4.5662   30 C    0 0 0

  13 C    1     1.3519     2.5547   41 N    0 0 0
  13 C    1     1.3566     2.5637   33 N    0 0 0
  13 C    1     1.4572     2.7537    9 C    0 1 0
  13 C    1     2.1985     4.1545   45 N    1 1 1
  13 C    1     2.2027     4.1624   37 N    1 1 1
  13 C    1     2.4710     4.6696   25 C    0 1 0

  17 C    1     1.3426     2.5372   53 F    0-1 0
  17 C    1     1.3956     2.6374   30 C    0 0 0
  17 C    1     1.4006     2.6467    9 C    0 0 0
  17 C    1     2.3730     4.4843   57 F    0 0 0
  17 C    1     2.3892     4.5150   25 C    0 0 0
  17 C    1     2.4134     4.5607   21 C    0 0 0

  21 C    1     1.0961     2.0713    5 H    0 0 0
  21 C    1     1.3478     2.5469   49 N    0 0 0
  21 C    1     1.3959     2.6378   30 C    0 0 0
  21 C    1     2.3124     4.3699   25 C    0 0 0
  21 C    1     2.3768     4.4914   57 F    0 0 0
  21 C    1     2.4134     4.5607   17 C    0 0 0

  25 C    1     1.0926     2.0648    1 H    0 0 0
  25 C    1     1.3387     2.5298   49 N    0 0 0
  25 C    1     1.4094     2.6633    9 C    0 0 0
  25 C    1     2.3124     4.3699   21 C    0 0 0
  25 C    1     2.3892     4.5150   17 C    0 0 0
  25 C    1     2.4710     4.6696   13 C    0-1 0

  29 C    1     1.3440     2.5399   58 F    0 0 0
  29 C    1     1.3956     2.6374   18 C    0 0 0
  29 C    1     1.3959     2.6378   22 C    0 0 0
  29 C    1     2.1782     4.1162    6 H    0 0 0
  29 C    1     2.3690     4.4767   54 F   -1 0 0
  29 C    1     2.3917     4.5197   50 N    0 0 0

  33 N    1     1.3566     2.5637   13 C    0 0 0
  33 N    1     1.3751     2.5985   37 N    1 1 1
  33 N    1     1.9913     3.7630   61 ZN   1 1 0
  33 N    1     2.1826     4.1245   45 N    1 1 1
  33 N    1     2.1939     4.1458   41 N    0 0 0
  33 N    1     2.4560     4.6412    9 C    0 1 0

  37 N    1     1.3155     2.4859   45 N    0 0 0
  37 N    1     1.3751     2.5985   33 N   -1-1-1
  37 N    1     2.1919     4.1421   41 N   -1-1-1
  37 N    1     2.2027     4.1624   13 C   -1-1-1
  37 N    1     2.5267     4.7747    2 H    0 0 0
  37 N    1     2.8974     5.4754   61 ZN   0 0-1

  41 N    1     1.3519     2.5547   13 C    0 0 0
  41 N    1     1.3803     2.6085   45 N    1 1 1
  41 N    1     1.9868     3.7545   62 ZN   0 0 0
  41 N    1     2.1919     4.1421   37 N    1 1 1
  41 N    1     2.1939     4.1458   33 N    0 0 0
  41 N    1     2.5490     4.8169    9 C    0 1 0

  45 N    1     1.3155     2.4859   37 N    0 0 0
  45 N    1     1.3803     2.6085   41 N   -1-1-1
  45 N    1     2.1826     4.1245   33 N   -1-1-1
  45 N    1     2.1985     4.1545   13 C   -1-1-1
  45 N    1     2.8102     5.3106   62 ZN  -1-1-1
  45 N    1     2.8904     5.4620   54 F   -1-1-1

  49 N    1     1.3387     2.5298   25 C    0 0 0
  49 N    1     1.3478     2.5469   21 C    0 0 0
  49 N    1     2.0706     3.9129    1 H    0 0 0
  49 N    1     2.0909     3.9512    5 H    0 0 0
  49 N    1     2.3894     4.5153    6 H    0 0 0
  49 N    1     2.3917     4.5197   30 C    0 0 0

  53 F    1     1.3426     2.5372   17 C    0 1 0
  53 F    1     2.3690     4.4767   30 C    0 1 0
  53 F    1     2.3835     4.5041    9 C    0 1 0
  53 F    1     2.7353     5.1690   57 F    0 1 0
  53 F    1     2.8904     5.4620   46 N    0 0-1
  53 F    1     2.9080     5.4953   13 C    0 0 0

  57 F    1     1.3440     2.5399   30 C    0 0 0
  57 F    1     2.3730     4.4843   17 C    0 0 0
  57 F    1     2.3768     4.4914   21 C    0 0 0
  57 F    1     2.6553     5.0177    5 H    0 0 0
  57 F    1     2.6598     5.0263   58 F    0-1-1
  57 F    1     2.7353     5.1690   53 F    0-1 0

  61 ZN   4     1.9913     3.7630   33 N   -1-1 0   34 N   -1 0 1   35 N    0 0 1
                                    36 N   -1 0 0
  61 ZN   4     2.7608     5.2172    1 H   -1 0 0    2 H    0 0 1    3 H   -1-1 0
                                     4 H   -1 0 1
  61 ZN   4     2.8974     5.4754   37 N    0 0 1   38 N   -1 0 0   39 N   -1 0 1
                                    40 N   -1-1 0
  61 ZN   4     3.0809     5.8221   13 C   -1-1 0   14 C   -1 0 1   15 C    0 0 1
                                    16 C   -1 0 0
  61 ZN   4     3.2697     6.1788   25 C   -1 0 0   26 C    0 0 1   27 C   -1-1 0
                                    28 C   -1 0 1
  61 ZN   4     3.5096     6.6322    9 C   -1 0 0   10 C    0 0 1   11 C   -1-1 0
                                    12 C   -1 0 1

  62 ZN   4     1.9868     3.7545   41 N    0 0 0   42 N    0 0 0   43 N    1 1 0
                                    44 N    1 1 0
  62 ZN   4     2.8102     5.3106   45 N    1 1 1   46 N    0 0-1   47 N    0 1 0
                                    48 N    1 0 0
  62 ZN   4     3.1391     5.9321   13 C    0 0 0   14 C    0 0 0   15 C    1 1 0
                                    16 C    1 1 0
  62 ZN   4     3.2023     6.0515   53 F    0 0 0   54 F    0 0 0   55 F    1 1 0
                                    56 F    1 1 0
  62 ZN   4     3.8196     7.2180    9 C    0 1 0   10 C    1 0 0   11 C    0 0-1
                                    12 C    1 1 1
  62 ZN   4     3.8852     7.3420   17 C    0 1 0   18 C    1 0 0   19 C    0 0-1
                                    20 C    1 1 1


 SYMMETRY ALLOWED INTERNAL DEGREE(S) OF FREEDOM:  45
 TTTTTTTTTTTTTTTTTTTTTTTTTTTTTT SYMM        TELAPSE       23.58 TCPU        4.62
 TTTTTTTTTTTTTTTTTTTTTTTTTTTTTT INT_SCREEN  TELAPSE       23.61 TCPU        4.65
 INFORMATION **** EXCBUF **** EXCH. BIPO BUFFER: WORDS USED =           0

 DFT PARAMETERS

     ATOM       ELECTRONS   NET CHARGE   R(ANGSTROM)
   1   1  H       1.0000      0.0000     1.11000000
   9   6  C       6.0000      0.0000     0.77000000
  33   7  N       7.0000      0.0000     0.74000000
  53   9  F       9.0000      0.0000     0.72000000
  61  30  ZN     30.0000      0.0000     1.37000000

 SIZE OF GRID=     471838
 TTTTTTTTTTTTTTTTTTTTTTTTTTTTTT MAKE_GRID2  TELAPSE       29.30 TCPU       10.32
 BECKE WEIGHT FUNCTION
 RADSAFE =     2.00
 TOLERANCES - DENSITY:10**- 6; POTENTIAL:10**- 9; GRID WGT:10**-14

 RADIAL INTEGRATION  - INTERVALS (POINTS,UPPER LIMIT):            1( 75,  4.0*R)

 ANGULAR INTEGRATION - INTERVALS (ACCURACY LEVEL [N. POINTS] UPPER LIMIT):
  1(  4[  86]   0.2)  2(  8[ 194]   0.5)  3( 12[ 350]   0.9)  4( 16[ 974]   3.5)
  5( 12[ 350]9999.0)
 TTTTTTTTTTTTTTTTTTTTTTTTTTTTTT INT_CALC    TELAPSE       29.44 TCPU       10.45
 EEEEEEEEEE INT_CALC TERMINATION  DATE 27 11 2023 TIME 11:19:12.7

 *******************************************************************************
 Z:\home\sanoj\Downloads\tmp_p\newconn.mol                                       
 CRYSTAL - SCF - TYPE OF CALCULATION :  RESTRICTED CLOSED SHELL
 *******************************************************************************

 CAPPA:IS1  3;IS2  3;IS3  3; K PTS MONK NET   6; SYMMOPS:K SPACE   8;G SPACE   4

 TTTTTTTTTTTTTTTTTTTTTTTTTTTTTT SDIK        TELAPSE       29.78 TCPU       10.79

 AAAAAAAAAAAAAAAAAAAAAAAAAAAAAAAAAAAAAAAAAAAAAAAAAAAAAAAAAAAAAAAAAAAAAAAAAAAAAAA
         ATOMIC WAVEFUNCTION(S)


 NUCLEAR CHARGE  1.0  SYMMETRY SPECIES            S
 N. ELECTRONS    1.0  NUMBER OF PRIMITIVE GTOS    4
                      NUMBER OF CONTRACTED GTOS   2
                      NUMBER OF CLOSED SHELLS     0
                      OPEN SHELL OCCUPATION       1

  ZNUC SCFIT  TOTAL HF ENERGY   KINETIC ENERGY   VIRIAL THEOREM ACCURACY
   1.0   1   -4.946643675E-01  4.917913167E-01 -2.005842012E+00  9.4E-17

 NUCLEAR CHARGE  6.0  SYMMETRY SPECIES            S    P
 N. ELECTRONS    6.0  NUMBER OF PRIMITIVE GTOS    7    4
                      NUMBER OF CONTRACTED GTOS   3    2
                      NUMBER OF CLOSED SHELLS     2    0
                      OPEN SHELL OCCUPATION       0    2

  ZNUC SCFIT  TOTAL HF ENERGY   KINETIC ENERGY   VIRIAL THEOREM ACCURACY
   6.0   6   -3.750912652E+01  3.905246519E+01 -1.960480378E+00  3.7E-06

 NUCLEAR CHARGE  7.0  SYMMETRY SPECIES            S    P
 N. ELECTRONS    7.0  NUMBER OF PRIMITIVE GTOS    7    4
                      NUMBER OF CONTRACTED GTOS   3    2
                      NUMBER OF CLOSED SHELLS     2    0
                      OPEN SHELL OCCUPATION       0    3

  ZNUC SCFIT  TOTAL HF ENERGY   KINETIC ENERGY   VIRIAL THEOREM ACCURACY
   7.0   9   -5.432196661E+01  5.425066284E+01 -2.001314339E+00  1.2E-06

 NUCLEAR CHARGE  9.0  SYMMETRY SPECIES            S    P
 N. ELECTRONS    9.0  NUMBER OF PRIMITIVE GTOS    7    4
                      NUMBER OF CONTRACTED GTOS   3    2
                      NUMBER OF CLOSED SHELLS     2    0
                      OPEN SHELL OCCUPATION       0    5

  ZNUC SCFIT  TOTAL HF ENERGY   KINETIC ENERGY   VIRIAL THEOREM ACCURACY
   9.0  14   -9.927886620E+01  9.927374065E+01 -2.000051630E+00  4.0E-06

 NUCLEAR CHARGE 30.0  SYMMETRY SPECIES            S    P    D
 N. ELECTRONS   30.0  NUMBER OF PRIMITIVE GTOS   14    9    5
                      NUMBER OF CONTRACTED GTOS   5    3    2
                      NUMBER OF CLOSED SHELLS     4    2    1
                      OPEN SHELL OCCUPATION       0    0    0

  ZNUC SCFIT  TOTAL HF ENERGY   KINETIC ENERGY   VIRIAL THEOREM ACCURACY
  30.0  10   -1.777404290E+03  1.777325716E+03 -2.000044209E+00  2.5E-06

 AAAAAAAAAAAAAAAAAAAAAAAAAAAAAAAAAAAAAAAAAAAAAAAAAAAAAAAAAAAAAAAAAAAAAAAAAAAAAAA

 TOTAL ATOMIC CHARGES:
   1.0000000   1.0000000   1.0000000   1.0000000   1.0000000   1.0000000
   1.0000000   1.0000000   6.0000000   6.0000000   6.0000000   6.0000000
   6.0000000   6.0000000   6.0000000   6.0000000   6.0000000   6.0000000
   6.0000000   6.0000000   6.0000000   6.0000000   6.0000000   6.0000000
   6.0000000   6.0000000   6.0000000   6.0000000   6.0000000   6.0000000
   6.0000000   6.0000000   7.0000000   7.0000000   7.0000000   7.0000000
   7.0000000   7.0000000   7.0000000   7.0000000   7.0000000   7.0000000
   7.0000000   7.0000000   7.0000000   7.0000000   7.0000000   7.0000000
   7.0000000   7.0000000   7.0000000   7.0000000   9.0000000   9.0000000
   9.0000000   9.0000000   9.0000000   9.0000000   9.0000000   9.0000000
  30.0000000  30.0000000
 TTTTTTTTTTTTTTTTTTTTTTTTTTTTTT MOQGAD      TELAPSE       31.79 TCPU       12.78
 TTTTTTTTTTTTTTTTTTTTTTTTTTTTTT SHELLXN     TELAPSE      113.05 TCPU       82.93
 TTTTTTTTTTTTTTTTTTTTTTTTTTTTTT MONMO3      TELAPSE      118.88 TCPU       88.74
 NUMERICALLY INTEGRATED DENSITY    424.0000512528
 TTTTTTTTTTTTTTTTTTTTTTTTTTTTTT NUMDFT      TELAPSE      121.26 TCPU       91.10
 CYC   0 ETOT(AU) -6.369976257986E+03 DETOT -6.37E+03 tst  0.00E+00 PX  1.00E+00
 TTTTTTTTTTTTTTTTTTTTTTTTTTTTTT DIIS        TELAPSE      121.35 TCPU       91.19
 TTTTTTTTTTTTTTTTTTTTTTTTTTTTTT FDIK        TELAPSE      157.47 TCPU      124.88
 INSULATING STATE
 TOP OF VALENCE BANDS -    BAND    212; K    4; EIG -1.3250352E-01 AU
 TOP OF VALENCE BANDS -    BAND    212; K    1; EIG -1.3288711E-01 AU
 BOTTOM OF VIRTUAL BANDS - BAND    213; K    5; EIG -8.9646489E-02 AU
 INDIRECT ENERGY BAND GAP:   1.1662 eV
 BOTTOM OF VIRTUAL BANDS - BAND    213; K    1; EIG -8.8124907E-02 AU
 TTTTTTTTTTTTTTTTTTTTTTTTTTTTTT PDIG        TELAPSE      158.08 TCPU      125.48
 TOTAL ATOMIC CHARGES:
   1.3146527   1.3146527   1.3146527   1.3146527   1.2391979   1.2391979
   1.2391979   1.2391979   6.1943137   6.1943137   6.1943137   6.1943137
   5.5032994   5.5032994   5.5032994   5.5032994   5.3458063   5.3458063
   5.3458063   5.3458063   5.9612168   5.9612168   5.9612168   5.9612168
   5.9056838   5.9056838   5.9056838   5.9056838   5.3299055   5.3299055
   5.3299055   5.3299055   7.3925406   7.3925406   7.3925406   7.3925406
   7.1943806   7.1943806   7.1943806   7.1943806   7.4111744   7.4111744
   7.4111744   7.4111744   7.1928124   7.1928124   7.1928124   7.1928124
   7.5261684   7.5261684   7.5261684   7.5261684   9.2830140   9.2830140
   9.2830140   9.2830140   9.2954286   9.2954286   9.2954286   9.2954286
  27.7053713  27.9362488
 TTTTTTTTTTTTTTTTTTTTTTTTTTTTTT MOQGAD      TELAPSE      158.12 TCPU      125.53
 TTTTTTTTTTTTTTTTTTTTTTTTTTTTTT SHELLXN     TELAPSE      246.24 TCPU      207.05
 TTTTTTTTTTTTTTTTTTTTTTTTTTTTTT MONMO3      TELAPSE      253.27 TCPU      214.06
 NUMERICALLY INTEGRATED DENSITY    424.0000186371
 TTTTTTTTTTTTTTTTTTTTTTTTTTTTTT NUMDFT      TELAPSE      259.87 TCPU      220.64
 CYC   1 ETOT(AU) -6.364055070438E+03 DETOT  5.92E+00 tst  0.00E+00 PX  1.00E+00
 TTTTTTTTTTTTTTTTTTTTTTTTTTTTTT DIIS        TELAPSE      260.17 TCPU      220.94
 DIIS TEST: 0.14437E+02 AT SCF   CYCLE   1 - MIX   30 %
 TTTTTTTTTTTTTTTTTTTTTTTTTTTTTT FDIK        TELAPSE      274.65 TCPU      232.98
 INSULATING STATE
 TOP OF VALENCE BANDS -    BAND    212; K    4; EIG -1.2103811E-01 AU
 TOP OF VALENCE BANDS -    BAND    212; K    1; EIG -1.2405766E-01 AU
 BOTTOM OF VIRTUAL BANDS - BAND    213; K    5; EIG -1.1853325E-01 AU
 INDIRECT ENERGY BAND GAP:   0.0682 eV
 BOTTOM OF VIRTUAL BANDS - BAND    213; K    1; EIG -1.1314251E-01 AU
 TTTTTTTTTTTTTTTTTTTTTTTTTTTTTT PDIG        TELAPSE      275.24 TCPU      233.58
 TOTAL ATOMIC CHARGES:
   1.3095918   1.3095918   1.3095918   1.3095918   1.1976373   1.1976373
   1.1976373   1.1976373   6.2426258   6.2426258   6.2426258   6.2426258
   6.3090364   6.3090364   6.3090364   6.3090364   6.3325993   6.3325993
   6.3325993   6.3325993   5.9795428   5.9795428   5.9795428   5.9795428
   6.2866167   6.2866167   6.2866167   6.2866167   5.9374905   5.9374905
   5.9374905   5.9374905   7.0819955   7.0819955   7.0819955   7.0819955
   6.8848740   6.8848740   6.8848740   6.8848740   7.0136102   7.0136102
   7.0136102   7.0136102   6.8492989   6.8492989   6.8492989   6.8492989
   5.6172505   5.6172505   5.6172505   5.6172505   9.0375496   9.0375496
   9.0375496   9.0375496   9.0070450   9.0070450   9.0070450   9.0070450
  29.9782165  29.6747260
 TTTTTTTTTTTTTTTTTTTTTTTTTTTTTT MOQGAD      TELAPSE      275.31 TCPU      233.64
 TTTTTTTTTTTTTTTTTTTTTTTTTTTTTT SHELLXN     TELAPSE      359.15 TCPU      314.98
 TTTTTTTTTTTTTTTTTTTTTTTTTTTTTT MONMO3      TELAPSE      366.53 TCPU      322.34
 NUMERICALLY INTEGRATED DENSITY    424.0000369021
 TTTTTTTTTTTTTTTTTTTTTTTTTTTTTT NUMDFT      TELAPSE      373.30 TCPU      329.09
 CYC   2 ETOT(AU) -6.360911646656E+03 DETOT  3.14E+00 tst  1.06E-01 PX  8.68E-01
 TTTTTTTTTTTTTTTTTTTTTTTTTTTTTT DIIS        TELAPSE      373.83 TCPU      329.62
 DIIS TEST: 0.38584E+02 AT SCF   CYCLE   2 - DIIS ACTIVE - HISTORY:     2 CYCLES
 TTTTTTTTTTTTTTTTTTTTTTTTTTTTTT FDIK        TELAPSE      387.46 TCPU      340.84
 INSULATING STATE
 TOP OF VALENCE BANDS -    BAND    212; K    4; EIG -2.4402440E-01 AU
 TOP OF VALENCE BANDS -    BAND    212; K    1; EIG -2.4431978E-01 AU
 BOTTOM OF VIRTUAL BANDS - BAND    213; K    1; EIG -1.2828762E-01 AU
 INDIRECT ENERGY BAND GAP:   3.1494 eV
 TTTTTTTTTTTTTTTTTTTTTTTTTTTTTT PDIG        TELAPSE      388.06 TCPU      341.44
 TOTAL ATOMIC CHARGES:
   1.2160235   1.2160235   1.2160235   1.2160235   1.1491511   1.1491511
   1.1491511   1.1491511   5.8517428   5.8517428   5.8517428   5.8517428
   5.9222473   5.9222473   5.9222473   5.9222473   5.6352715   5.6352715
   5.6352715   5.6352715   6.1812710   6.1812710   6.1812710   6.1812710
   6.0184836   6.0184836   6.0184836   6.0184836   5.6284066   5.6284066
   5.6284066   5.6284066   6.9058828   6.9058828   6.9058828   6.9058828
   7.0795222   7.0795222   7.0795222   7.0795222   6.9418594   6.9418594
   6.9418594   6.9418594   7.0590240   7.0590240   7.0590240   7.0590240
   7.5741624   7.5741624   7.5741624   7.5741624   9.0634659   9.0634659
   9.0634659   9.0634659   9.0631052   9.0631052   9.0631052   9.0631052
  29.4769104  29.3646127
 TTTTTTTTTTTTTTTTTTTTTTTTTTTTTT MOQGAD      TELAPSE      388.11 TCPU      341.49
 TTTTTTTTTTTTTTTTTTTTTTTTTTTTTT SHELLXN     TELAPSE      472.13 TCPU      422.80
 TTTTTTTTTTTTTTTTTTTTTTTTTTTTTT MONMO3      TELAPSE      479.21 TCPU      429.86
 NUMERICALLY INTEGRATED DENSITY    424.0000318689
 TTTTTTTTTTTTTTTTTTTTTTTTTTTTTT NUMDFT      TELAPSE      485.90 TCPU      436.52
 CYC   3 ETOT(AU) -6.365177369220E+03 DETOT -4.27E+00 tst  1.13E+00 PX  4.84E-01
 TTTTTTTTTTTTTTTTTTTTTTTTTTTTTT DIIS        TELAPSE      486.17 TCPU      436.79
 DIIS TEST: 0.68770E+01 AT SCF   CYCLE   3 - DIIS ACTIVE - HISTORY:     3 CYCLES
 TTTTTTTTTTTTTTTTTTTTTTTTTTTTTT FDIK        TELAPSE      500.34 TCPU      448.49
 INSULATING STATE
 TOP OF VALENCE BANDS -    BAND    212; K    4; EIG -2.1481698E-01 AU
 TOP OF VALENCE BANDS -    BAND    212; K    1; EIG -2.1496770E-01 AU
 BOTTOM OF VIRTUAL BANDS - BAND    213; K    6; EIG -1.2159955E-01 AU
 INDIRECT ENERGY BAND GAP:   2.5366 eV
 BOTTOM OF VIRTUAL BANDS - BAND    213; K    1; EIG -1.1779022E-01 AU
 TTTTTTTTTTTTTTTTTTTTTTTTTTTTTT PDIG        TELAPSE      500.93 TCPU      449.08
 TOTAL ATOMIC CHARGES:
   1.2416147   1.2416147   1.2416147   1.2416147   1.2052129   1.2052129
   1.2052129   1.2052129   6.2384844   6.2384844   6.2384844   6.2384844
   5.7687779   5.7687779   5.7687779   5.7687779   5.7331049   5.7331049
   5.7331049   5.7331049   5.8487240   5.8487240   5.8487240   5.8487240
   6.0613140   6.0613140   6.0613140   6.0613140   5.5840650   5.5840650
   5.5840650   5.5840650   7.2373847   7.2373847   7.2373847   7.2373847
   7.0445665   7.0445665   7.0445665   7.0445665   7.2327373   7.2327373
   7.2327373   7.2327373   7.0690462   7.0690462   7.0690462   7.0690462
   6.8986994   6.8986994   6.8986994   6.8986994   9.2088350   9.2088350
   9.2088350   9.2088350   9.2259260   9.2259260   9.2259260   9.2259260
  28.7782169  28.8278127
 TTTTTTTTTTTTTTTTTTTTTTTTTTTTTT MOQGAD      TELAPSE      500.98 TCPU      449.13
 TTTTTTTTTTTTTTTTTTTTTTTTTTTTTT SHELLXN     TELAPSE      585.76 TCPU      530.44
 TTTTTTTTTTTTTTTTTTTTTTTTTTTTTT MONMO3      TELAPSE      591.70 TCPU      536.36
 NUMERICALLY INTEGRATED DENSITY    424.0000333110
 TTTTTTTTTTTTTTTTTTTTTTTTTTTTTT NUMDFT      TELAPSE      598.50 TCPU      543.14
 CYC   4 ETOT(AU) -6.366076564149E+03 DETOT -8.99E-01 tst  6.49E-03 PX  3.88E-01
 TTTTTTTTTTTTTTTTTTTTTTTTTTTTTT DIIS        TELAPSE      598.90 TCPU      543.53
 DIIS TEST: 0.15178E+01 AT SCF   CYCLE   4 - DIIS ACTIVE - HISTORY:     4 CYCLES
 TTTTTTTTTTTTTTTTTTTTTTTTTTTTTT FDIK        TELAPSE      615.41 TCPU      555.57
 INSULATING STATE
 TOP OF VALENCE BANDS -    BAND    212; K    3; EIG -2.3520131E-01 AU
 TOP OF VALENCE BANDS -    BAND    212; K    1; EIG -2.3550150E-01 AU
 BOTTOM OF VIRTUAL BANDS - BAND    213; K    6; EIG -1.2463526E-01 AU
 INDIRECT ENERGY BAND GAP:   3.0087 eV
 BOTTOM OF VIRTUAL BANDS - BAND    213; K    1; EIG -1.2117685E-01 AU
 TTTTTTTTTTTTTTTTTTTTTTTTTTTTTT PDIG        TELAPSE      616.00 TCPU      556.16
 TOTAL ATOMIC CHARGES:
   1.2418086   1.2418086   1.2418086   1.2418086   1.1803639   1.1803639
   1.1803639   1.1803639   6.1243086   6.1243086   6.1243086   6.1243086
   5.8156035   5.8156035   5.8156035   5.8156035   5.6926884   5.6926884
   5.6926884   5.6926884   6.0803552   6.0803552   6.0803552   6.0803552
   6.0879679   6.0879679   6.0879679   6.0879679   5.5802511   5.5802511
   5.5802511   5.5802511   7.2062232   7.2062232   7.2062232   7.2062232
   7.1236884   7.1236884   7.1236884   7.1236884   7.1249681   7.1249681
   7.1249681   7.1249681   7.0346241   7.0346241   7.0346241   7.0346241
   6.9941341   6.9941341   6.9941341   6.9941341   9.1478047   9.1478047
   9.1478047   9.1478047   9.1380882   9.1380882   9.1380882   9.1380882
  28.8565990  28.8518889
 TTTTTTTTTTTTTTTTTTTTTTTTTTTTTT MOQGAD      TELAPSE      616.05 TCPU      556.21
 TTTTTTTTTTTTTTTTTTTTTTTTTTTTTT SHELLXN     TELAPSE      700.89 TCPU      637.61
 TTTTTTTTTTTTTTTTTTTTTTTTTTTTTT MONMO3      TELAPSE      707.62 TCPU      644.32
 NUMERICALLY INTEGRATED DENSITY    424.0000335019
 TTTTTTTTTTTTTTTTTTTTTTTTTTTTTT NUMDFT      TELAPSE      714.37 TCPU      651.05
 CYC   5 ETOT(AU) -6.366278763519E+03 DETOT -2.02E-01 tst  9.85E-04 PX  1.47E-01
 TTTTTTTTTTTTTTTTTTTTTTTTTTTTTT DIIS        TELAPSE      714.62 TCPU      651.29
 DIIS TEST: 0.17519E+00 AT SCF   CYCLE   5 - DIIS ACTIVE - HISTORY:     5 CYCLES
 TTTTTTTTTTTTTTTTTTTTTTTTTTTTTT FDIK        TELAPSE      727.72 TCPU      662.24
 INSULATING STATE
 TOP OF VALENCE BANDS -    BAND    212; K    3; EIG -2.3824571E-01 AU
 TOP OF VALENCE BANDS -    BAND    212; K    1; EIG -2.3894249E-01 AU
 BOTTOM OF VIRTUAL BANDS - BAND    213; K    6; EIG -1.2145995E-01 AU
 INDIRECT ENERGY BAND GAP:   3.1779 eV
 BOTTOM OF VIRTUAL BANDS - BAND    213; K    1; EIG -1.1909153E-01 AU
 TTTTTTTTTTTTTTTTTTTTTTTTTTTTTT PDIG        TELAPSE      728.31 TCPU      662.83
 TOTAL ATOMIC CHARGES:
   1.2372834   1.2372834   1.2372834   1.2372834   1.1849286   1.1849286
   1.1849286   1.1849286   6.1231968   6.1231968   6.1231968   6.1231968
   5.8291205   5.8291205   5.8291205   5.8291205   5.7151522   5.7151522
   5.7151522   5.7151522   5.9766406   5.9766406   5.9766406   5.9766406
   6.0384358   6.0384358   6.0384358   6.0384358   5.5967282   5.5967282
   5.5967282   5.5967282   7.1239432   7.1239432   7.1239432   7.1239432
   7.0286605   7.0286605   7.0286605   7.0286605   7.1930638   7.1930638
   7.1930638   7.1930638   7.1016227   7.1016227   7.1016227   7.1016227
   7.0723981   7.0723981   7.0723981   7.0723981   9.1635291   9.1635291
   9.1635291   9.1635291   9.1702129   9.1702129   9.1702129   9.1702129
  28.8804301  28.8999043
 TTTTTTTTTTTTTTTTTTTTTTTTTTTTTT MOQGAD      TELAPSE      728.36 TCPU      662.88
 TTTTTTTTTTTTTTTTTTTTTTTTTTTTTT SHELLXN     TELAPSE      810.22 TCPU      744.36
 TTTTTTTTTTTTTTTTTTTTTTTTTTTTTT MONMO3      TELAPSE      817.07 TCPU      751.18
 NUMERICALLY INTEGRATED DENSITY    424.0000330867
 TTTTTTTTTTTTTTTTTTTTTTTTTTTTTT NUMDFT      TELAPSE      823.77 TCPU      757.87
 CYC   6 ETOT(AU) -6.366292117615E+03 DETOT -1.34E-02 tst  1.72E-04 PX  3.24E-02
 TTTTTTTTTTTTTTTTTTTTTTTTTTTTTT DIIS        TELAPSE      824.06 TCPU      758.15
 DIIS TEST: 0.87090E-01 AT SCF   CYCLE   6 - DIIS ACTIVE - HISTORY:     6 CYCLES
 TTTTTTTTTTTTTTTTTTTTTTTTTTTTTT FDIK        TELAPSE      835.99 TCPU      767.70
 INSULATING STATE
 TOP OF VALENCE BANDS -    BAND    212; K    3; EIG -2.4012270E-01 AU
 TOP OF VALENCE BANDS -    BAND    212; K    1; EIG -2.4110969E-01 AU
 BOTTOM OF VIRTUAL BANDS - BAND    213; K    6; EIG -1.2239233E-01 AU
 INDIRECT ENERGY BAND GAP:   3.2036 eV
 BOTTOM OF VIRTUAL BANDS - BAND    213; K    1; EIG -1.1920663E-01 AU
 TTTTTTTTTTTTTTTTTTTTTTTTTTTTTT PDIG        TELAPSE      836.59 TCPU      768.29
 TOTAL ATOMIC CHARGES:
   1.2347294   1.2347294   1.2347294   1.2347294   1.1834596   1.1834596
   1.1834596   1.1834596   6.1206775   6.1206775   6.1206775   6.1206775
   5.8242845   5.8242845   5.8242845   5.8242845   5.7067752   5.7067752
   5.7067752   5.7067752   5.9661593   5.9661593   5.9661593   5.9661593
   6.0640467   6.0640467   6.0640467   6.0640467   5.5952421   5.5952421
   5.5952421   5.5952421   7.1859822   7.1859822   7.1859822   7.1859822
   7.0865479   7.0865479   7.0865479   7.0865479   7.1305996   7.1305996
   7.1305996   7.1305996   7.0416911   7.0416911   7.0416911   7.0416911
   7.0805687   7.0805687   7.0805687   7.0805687   9.1595615   9.1595615
   9.1595615   9.1595615   9.1706525   9.1706525   9.1706525   9.1706525
  28.8933067  28.9027815
 TTTTTTTTTTTTTTTTTTTTTTTTTTTTTT MOQGAD      TELAPSE      836.64 TCPU      768.34
 TTTTTTTTTTTTTTTTTTTTTTTTTTTTTT SHELLXN     TELAPSE      920.64 TCPU      849.98
 TTTTTTTTTTTTTTTTTTTTTTTTTTTTTT MONMO3      TELAPSE      927.43 TCPU      856.74
 NUMERICALLY INTEGRATED DENSITY    424.0000328531
 TTTTTTTTTTTTTTTTTTTTTTTTTTTTTT NUMDFT      TELAPSE      934.16 TCPU      863.46
 CYC   7 ETOT(AU) -6.366300618747E+03 DETOT -8.50E-03 tst  1.11E-04 PX  2.06E-02
 TTTTTTTTTTTTTTTTTTTTTTTTTTTTTT DIIS        TELAPSE      934.35 TCPU      863.64
 DIIS TEST: 0.28885E-01 AT SCF   CYCLE   7 - DIIS ACTIVE - HISTORY:     7 CYCLES
 TTTTTTTTTTTTTTTTTTTTTTTTTTTTTT FDIK        TELAPSE      946.43 TCPU      873.69
 INSULATING STATE
 TOP OF VALENCE BANDS -    BAND    212; K    3; EIG -2.3977015E-01 AU
 TOP OF VALENCE BANDS -    BAND    212; K    1; EIG -2.4052823E-01 AU
 BOTTOM OF VIRTUAL BANDS - BAND    213; K    6; EIG -1.2256553E-01 AU
 INDIRECT ENERGY BAND GAP:   3.1893 eV
 BOTTOM OF VIRTUAL BANDS - BAND    213; K    1; EIG -1.1972105E-01 AU
 TTTTTTTTTTTTTTTTTTTTTTTTTTTTTT PDIG        TELAPSE      947.24 TCPU      874.50
 TOTAL ATOMIC CHARGES:
   1.2332165   1.2332165   1.2332165   1.2332165   1.1818179   1.1818179
   1.1818179   1.1818179   6.1175108   6.1175108   6.1175108   6.1175108
   5.8151199   5.8151199   5.8151199   5.8151199   5.7032130   5.7032130
   5.7032130   5.7032130   6.0052216   6.0052216   6.0052216   6.0052216
   6.0649473   6.0649473   6.0649473   6.0649473   5.5950704   5.5950704
   5.5950704   5.5950704   7.1618217   7.1618217   7.1618217   7.1618217
   7.0726157   7.0726157   7.0726157   7.0726157   7.1556492   7.1556492
   7.1556492   7.1556492   7.0654298   7.0654298   7.0654298   7.0654298
   7.0619030   7.0619030   7.0619030   7.0619030   9.1588680   9.1588680
   9.1588680   9.1588680   9.1603700   9.1603700   9.1603700   9.1603700
  28.8888771  28.9000240
 TTTTTTTTTTTTTTTTTTTTTTTTTTTTTT MOQGAD      TELAPSE      947.37 TCPU      874.63
 TTTTTTTTTTTTTTTTTTTTTTTTTTTTTT SHELLXN     TELAPSE     1032.21 TCPU      956.39
 TTTTTTTTTTTTTTTTTTTTTTTTTTTTTT MONMO3      TELAPSE     1039.11 TCPU      963.26
 NUMERICALLY INTEGRATED DENSITY    424.0000332295
 TTTTTTTTTTTTTTTTTTTTTTTTTTTTTT NUMDFT      TELAPSE     1045.87 TCPU      970.01
 CYC   8 ETOT(AU) -6.366304638304E+03 DETOT -4.02E-03 tst  1.29E-05 PX  1.10E-02
 TTTTTTTTTTTTTTTTTTTTTTTTTTTTTT DIIS        TELAPSE     1046.26 TCPU      970.40
 DIIS TEST: 0.13752E-02 AT SCF   CYCLE   8 - DIIS ACTIVE - HISTORY:     8 CYCLES
 TTTTTTTTTTTTTTTTTTTTTTTTTTTTTT FDIK        TELAPSE     1059.58 TCPU      979.22
 INSULATING STATE
 TOP OF VALENCE BANDS -    BAND    212; K    3; EIG -2.4035072E-01 AU
 TOP OF VALENCE BANDS -    BAND    212; K    1; EIG -2.4125429E-01 AU
 BOTTOM OF VIRTUAL BANDS - BAND    213; K    6; EIG -1.2267379E-01 AU
 INDIRECT ENERGY BAND GAP:   3.2022 eV
 BOTTOM OF VIRTUAL BANDS - BAND    213; K    1; EIG -1.1979466E-01 AU
 TTTTTTTTTTTTTTTTTTTTTTTTTTTTTT PDIG        TELAPSE     1060.17 TCPU      979.81
 TOTAL ATOMIC CHARGES:
   1.2334659   1.2334659   1.2334659   1.2334659   1.1823314   1.1823314
   1.1823314   1.1823314   6.1221570   6.1221570   6.1221570   6.1221570
   5.8181165   5.8181165   5.8181165   5.8181165   5.7000269   5.7000269
   5.7000269   5.7000269   5.9960160   5.9960160   5.9960160   5.9960160
   6.0581667   6.0581667   6.0581667   6.0581667   5.5912351   5.5912351
   5.5912351   5.5912351   7.1661969   7.1661969   7.1661969   7.1661969
   7.0701510   7.0701510   7.0701510   7.0701510   7.1553057   7.1553057
   7.1553057   7.1553057   7.0643151   7.0643151   7.0643151   7.0643151
   7.0742534   7.0742534   7.0742534   7.0742534   9.1576998   9.1576998
   9.1576998   9.1576998   9.1625509   9.1625509   9.1625509   9.1625509
  28.8914264  28.9006210
 TTTTTTTTTTTTTTTTTTTTTTTTTTTTTT MOQGAD      TELAPSE     1060.22 TCPU      979.86
 TTTTTTTTTTTTTTTTTTTTTTTTTTTTTT SHELLXN     TELAPSE     1142.27 TCPU     1061.44
 TTTTTTTTTTTTTTTTTTTTTTTTTTTTTT MONMO3      TELAPSE     1149.11 TCPU     1068.26
 NUMERICALLY INTEGRATED DENSITY    424.0000331507
 TTTTTTTTTTTTTTTTTTTTTTTTTTTTTT NUMDFT      TELAPSE     1155.86 TCPU     1075.00
 CYC   9 ETOT(AU) -6.366304802583E+03 DETOT -1.64E-04 tst  1.68E-06 PX  4.78E-03
 TTTTTTTTTTTTTTTTTTTTTTTTTTTTTT DIIS        TELAPSE     1156.39 TCPU     1075.52
 DIIS TEST: 0.54181E-03 AT SCF   CYCLE   9 - DIIS ACTIVE - HISTORY:     9 CYCLES
 TTTTTTTTTTTTTTTTTTTTTTTTTTTTTT FDIK        TELAPSE     1166.05 TCPU     1084.67
 INSULATING STATE
 TOP OF VALENCE BANDS -    BAND    212; K    3; EIG -2.4033799E-01 AU
 TOP OF VALENCE BANDS -    BAND    212; K    1; EIG -2.4122874E-01 AU
 BOTTOM OF VIRTUAL BANDS - BAND    213; K    6; EIG -1.2249846E-01 AU
 INDIRECT ENERGY BAND GAP:   3.2066 eV
 BOTTOM OF VIRTUAL BANDS - BAND    213; K    1; EIG -1.1962672E-01 AU
 TTTTTTTTTTTTTTTTTTTTTTTTTTTTTT PDIG        TELAPSE     1166.64 TCPU     1085.26
 TOTAL ATOMIC CHARGES:
   1.2335198   1.2335198   1.2335198   1.2335198   1.1819840   1.1819840
   1.1819840   1.1819840   6.1164475   6.1164475   6.1164475   6.1164475
   5.8183291   5.8183291   5.8183291   5.8183291   5.7035335   5.7035335
   5.7035335   5.7035335   5.9973503   5.9973503   5.9973503   5.9973503
   6.0605334   6.0605334   6.0605334   6.0605334   5.5947752   5.5947752
   5.5947752   5.5947752   7.1619740   7.1619740   7.1619740   7.1619740
   7.0740206   7.0740206   7.0740206   7.0740206   7.1520473   7.1520473
   7.1520473   7.1520473   7.0649010   7.0649010   7.0649010   7.0649010
   7.0712823   7.0712823   7.0712823   7.0712823   9.1587197   9.1587197
   9.1587197   9.1587197   9.1628625   9.1628625   9.1628625   9.1628625
  28.8904250  28.9004547
 TTTTTTTTTTTTTTTTTTTTTTTTTTTTTT MOQGAD      TELAPSE     1166.69 TCPU     1085.30
 TTTTTTTTTTTTTTTTTTTTTTTTTTTTTT SHELLXN     TELAPSE     1251.19 TCPU     1166.87
 TTTTTTTTTTTTTTTTTTTTTTTTTTTTTT MONMO3      TELAPSE     1257.78 TCPU     1173.45
 NUMERICALLY INTEGRATED DENSITY    424.0000331248
 TTTTTTTTTTTTTTTTTTTTTTTTTTTTTT NUMDFT      TELAPSE     1264.48 TCPU     1180.13
 CYC  10 ETOT(AU) -6.366304871499E+03 DETOT -6.89E-05 tst  1.16E-06 PX  1.85E-03
 TTTTTTTTTTTTTTTTTTTTTTTTTTTTTT DIIS        TELAPSE     1264.67 TCPU     1180.31
 DIIS TEST: 0.12263E-03 AT SCF   CYCLE  10 - DIIS ACTIVE - HISTORY:    10 CYCLES
 TTTTTTTTTTTTTTTTTTTTTTTTTTTTTT FDIK        TELAPSE     1276.59 TCPU     1191.07
 INSULATING STATE
 TOP OF VALENCE BANDS -    BAND    212; K    3; EIG -2.4039697E-01 AU
 TOP OF VALENCE BANDS -    BAND    212; K    1; EIG -2.4129870E-01 AU
 BOTTOM OF VIRTUAL BANDS - BAND    213; K    6; EIG -1.2256444E-01 AU
 INDIRECT ENERGY BAND GAP:   3.2064 eV
 BOTTOM OF VIRTUAL BANDS - BAND    213; K    1; EIG -1.1970705E-01 AU
 TTTTTTTTTTTTTTTTTTTTTTTTTTTTTT PDIG        TELAPSE     1277.19 TCPU     1191.66
 TOTAL ATOMIC CHARGES:
   1.2332899   1.2332899   1.2332899   1.2332899   1.1819414   1.1819414
   1.1819414   1.1819414   6.1177968   6.1177968   6.1177968   6.1177968
   5.8177462   5.8177462   5.8177462   5.8177462   5.7027973   5.7027973
   5.7027973   5.7027973   5.9978076   5.9978076   5.9978076   5.9978076
   6.0617392   6.0617392   6.0617392   6.0617392   5.5936717   5.5936717
   5.5936717   5.5936717   7.1638845   7.1638845   7.1638845   7.1638845
   7.0708971   7.0708971   7.0708971   7.0708971   7.1545033   7.1545033
   7.1545033   7.1545033   7.0638748   7.0638748   7.0638748   7.0638748
   7.0714915   7.0714915   7.0714915   7.0714915   9.1585210   9.1585210
   9.1585210   9.1585210   9.1622207   9.1622207   9.1622207   9.1622207
  28.8907091  28.9005585
 TTTTTTTTTTTTTTTTTTTTTTTTTTTTTT MOQGAD      TELAPSE     1277.23 TCPU     1191.71
 TTTTTTTTTTTTTTTTTTTTTTTTTTTTTT SHELLXN     TELAPSE     1361.14 TCPU     1273.01
 TTTTTTTTTTTTTTTTTTTTTTTTTTTTTT MONMO3      TELAPSE     1368.12 TCPU     1279.96
 NUMERICALLY INTEGRATED DENSITY    424.0000331011
 TTTTTTTTTTTTTTTTTTTTTTTTTTTTTT NUMDFT      TELAPSE     1374.90 TCPU     1286.70
 CYC  11 ETOT(AU) -6.366304884826E+03 DETOT -1.33E-05 tst  1.06E-07 PX  8.88E-04
 TTTTTTTTTTTTTTTTTTTTTTTTTTTTTT DIIS        TELAPSE     1375.49 TCPU     1287.28
 DIIS TEST: 0.26130E-04 AT SCF   CYCLE  11 - DIIS ACTIVE - HISTORY:    11 CYCLES
 TTTTTTTTTTTTTTTTTTTTTTTTTTTTTT FDIK        TELAPSE     1387.55 TCPU     1297.00
 INSULATING STATE
 TOP OF VALENCE BANDS -    BAND    212; K    3; EIG -2.4032471E-01 AU
 TOP OF VALENCE BANDS -    BAND    212; K    1; EIG -2.4121323E-01 AU
 BOTTOM OF VIRTUAL BANDS - BAND    213; K    6; EIG -1.2254619E-01 AU
 INDIRECT ENERGY BAND GAP:   3.2049 eV
 BOTTOM OF VIRTUAL BANDS - BAND    213; K    1; EIG -1.1967967E-01 AU
 TTTTTTTTTTTTTTTTTTTTTTTTTTTTTT PDIG        TELAPSE     1388.14 TCPU     1297.59
 TOTAL ATOMIC CHARGES:
   1.2334057   1.2334057   1.2334057   1.2334057   1.1820067   1.1820067
   1.1820067   1.1820067   6.1184039   6.1184039   6.1184039   6.1184039
   5.8175447   5.8175447   5.8175447   5.8175447   5.7025933   5.7025933
   5.7025933   5.7025933   5.9975928   5.9975928   5.9975928   5.9975928
   6.0603462   6.0603462   6.0603462   6.0603462   5.5939188   5.5939188
   5.5939188   5.5939188   7.1632546   7.1632546   7.1632546   7.1632546
   7.0724675   7.0724675   7.0724675   7.0724675   7.1534094   7.1534094
   7.1534094   7.1534094   7.0647705   7.0647705   7.0647705   7.0647705
   7.0715466   7.0715466   7.0715466   7.0715466   9.1583787   9.1583787
   9.1583787   9.1583787   9.1624604   9.1624604   9.1624604   9.1624604
  28.8907859  28.9008151
 TTTTTTTTTTTTTTTTTTTTTTTTTTTTTT MOQGAD      TELAPSE     1388.19 TCPU     1297.64
 TTTTTTTTTTTTTTTTTTTTTTTTTTTTTT SHELLXN     TELAPSE     1472.32 TCPU     1379.17
 TTTTTTTTTTTTTTTTTTTTTTTTTTTTTT MONMO3      TELAPSE     1479.09 TCPU     1385.91
 NUMERICALLY INTEGRATED DENSITY    424.0000331424
 TTTTTTTTTTTTTTTTTTTTTTTTTTTTTT NUMDFT      TELAPSE     1485.85 TCPU     1392.66
 CYC  12 ETOT(AU) -6.366304888693E+03 DETOT -3.87E-06 tst  2.90E-08 PX  5.00E-04
 TTTTTTTTTTTTTTTTTTTTTTTTTTTTTT DIIS        TELAPSE     1486.08 TCPU     1392.89
 DIIS TEST: 0.51546E-05 AT SCF   CYCLE  12 - DIIS ACTIVE - HISTORY:    12 CYCLES
 TTTTTTTTTTTTTTTTTTTTTTTTTTTTTT FDIK        TELAPSE     1498.30 TCPU     1402.87
 INSULATING STATE
 TOP OF VALENCE BANDS -    BAND    212; K    3; EIG -2.4032811E-01 AU
 TOP OF VALENCE BANDS -    BAND    212; K    1; EIG -2.4121915E-01 AU
 BOTTOM OF VIRTUAL BANDS - BAND    213; K    6; EIG -1.2254765E-01 AU
 INDIRECT ENERGY BAND GAP:   3.2050 eV
 BOTTOM OF VIRTUAL BANDS - BAND    213; K    1; EIG -1.1968217E-01 AU
 TTTTTTTTTTTTTTTTTTTTTTTTTTTTTT PDIG        TELAPSE     1498.89 TCPU     1403.46
 TOTAL ATOMIC CHARGES:
   1.2333879   1.2333879   1.2333879   1.2333879   1.1820092   1.1820092
   1.1820092   1.1820092   6.1177365   6.1177365   6.1177365   6.1177365
   5.8177852   5.8177852   5.8177852   5.8177852   5.7027407   5.7027407
   5.7027407   5.7027407   5.9976577   5.9976577   5.9976577   5.9976577
   6.0608319   6.0608319   6.0608319   6.0608319   5.5938641   5.5938641
   5.5938641   5.5938641   7.1635618   7.1635618   7.1635618   7.1635618
   7.0720488   7.0720488   7.0720488   7.0720488   7.1538590   7.1538590
   7.1538590   7.1538590   7.0643474   7.0643474   7.0643474   7.0643474
   7.0715078   7.0715078   7.0715078   7.0715078   9.1584519   9.1584519
   9.1584519   9.1584519   9.1623933   9.1623933   9.1623933   9.1623933
  28.8906700  28.9005970
 TTTTTTTTTTTTTTTTTTTTTTTTTTTTTT MOQGAD      TELAPSE     1498.94 TCPU     1403.51
 TTTTTTTTTTTTTTTTTTTTTTTTTTTTTT SHELLXN     TELAPSE     1580.77 TCPU     1485.04
 TTTTTTTTTTTTTTTTTTTTTTTTTTTTTT MONMO3      TELAPSE     1587.72 TCPU     1491.92
 NUMERICALLY INTEGRATED DENSITY    424.0000331224
 TTTTTTTTTTTTTTTTTTTTTTTTTTTTTT NUMDFT      TELAPSE     1594.47 TCPU     1498.66
 CYC  13 ETOT(AU) -6.366304889589E+03 DETOT -8.96E-07 tst  5.02E-09 PX  1.72E-04
[...]
 DIIS TEST: 0.17356E-01 AT CPHF  CYCLE   7 - DIIS ACTIVE - HISTORY:     7 CYCLES
 CYCLE   7   ALPHA  946.921005  EPSILON    3.576641  DELTA    3.7384E-01
 TTTTTTTTTTTTTTTTTTTTTTTTTTTTTT MOQGAD      TELAPSE   151659.77 TCPU   150608.13
 TTTTTTTTTTTTTTTTTTTTTTTTTTTTTT CP_MONMON   TELAPSE   151691.52 TCPU   150639.77
 DIIS TEST: 0.20473E-02 AT CPHF  CYCLE   8 - DIIS ACTIVE - HISTORY:     8 CYCLES
 CYCLE   8   ALPHA  947.017721  EPSILON    3.576904  DELTA    9.6716E-02
 TTTTTTTTTTTTTTTTTTTTTTTTTTTTTT MOQGAD      TELAPSE   153204.06 TCPU   152146.32
 TTTTTTTTTTTTTTTTTTTTTTTTTTTTTT CP_MONMON   TELAPSE   153235.57 TCPU   152177.73
 DIIS TEST: 0.33113E-03 AT CPHF  CYCLE   9 - DIIS ACTIVE - HISTORY:     9 CYCLES
 CYCLE   9   ALPHA  947.004859  EPSILON    3.576869  DELTA   -1.2863E-02
 TTTTTTTTTTTTTTTTTTTTTTTTTTTTTT MOQGAD      TELAPSE   154749.05 TCPU   153681.36
 TTTTTTTTTTTTTTTTTTTTTTTTTTTTTT CP_MONMON   TELAPSE   154780.71 TCPU   153712.94
 DIIS TEST: 0.48043E-04 AT CPHF  CYCLE  10 - DIIS ACTIVE - HISTORY:    10 CYCLES
 CYCLE  10   ALPHA  946.985652  EPSILON    3.576816  DELTA   -1.9207E-02
 TTTTTTTTTTTTTTTTTTTTTTTTTTTTTT MOQGAD      TELAPSE   156290.72 TCPU   155213.57
 TTTTTTTTTTTTTTTTTTTTTTTTTTTTTT CP_MONMON   TELAPSE   156322.37 TCPU   155245.15
 DIIS TEST: 0.70956E-05 AT CPHF  CYCLE  11 - DIIS ACTIVE - HISTORY:    11 CYCLES
 CYCLE  11   ALPHA  946.970400  EPSILON    3.576775  DELTA   -1.5252E-02
 TTTTTTTTTTTTTTTTTTTTTTTTTTTTTT MOQGAD      TELAPSE   157834.66 TCPU   156748.16
 TTTTTTTTTTTTTTTTTTTTTTTTTTTTTT CP_MONMON   TELAPSE   157866.13 TCPU   156779.56
 DIIS TEST: 0.79449E-06 AT CPHF  CYCLE  12 - DIIS ACTIVE - HISTORY:    12 CYCLES
 CYCLE  12   ALPHA  946.967140  EPSILON    3.576766  DELTA   -3.2595E-03
 TTTTTTTTTTTTTTTTTTTTTTTTTTTTTT MOQGAD      TELAPSE   159380.69 TCPU   158284.69
 TTTTTTTTTTTTTTTTTTTTTTTTTTTTTT CP_MONMON   TELAPSE   159412.43 TCPU   158316.34
 DIIS TEST: 0.61777E-07 AT CPHF  CYCLE  13 - DIIS ACTIVE - HISTORY:    13 CYCLES
 CYCLE  13   ALPHA  946.965746  EPSILON    3.576762  DELTA   -1.3946E-03
 TTTTTTTTTTTTTTTTTTTTTTTTTTTTTT MOQGAD      TELAPSE   160927.16 TCPU   159820.73
 TTTTTTTTTTTTTTTTTTTTTTTTTTTTTT CP_MONMON   TELAPSE   160958.77 TCPU   159852.25
 DIIS TEST: 0.10400E-07 AT CPHF  CYCLE  14 - DIIS ACTIVE - HISTORY:    14 CYCLES
 CYCLE  14   ALPHA  946.965538  EPSILON    3.576762  DELTA   -2.0804E-04
 TTTTTTTTTTTTTTTTTTTTTTTTTTTTTT CP_SC       TELAPSE   161093.42 TCPU   159983.12

 *******************************************************************************

 ELECTRIC FIELD APPLIED ALONG CARTESIAN DIRECTION Z

 *******************************************************************************
 THE NUMBER OF SYMMETRY OPERATORS HAS BEEN REDUCED FROM  4 TO  1

 NEW GRID IN RECIPROCAL SPACE
 *******************************************************************************
 POINTS IN THE IBZ                  14 SHRINKING FACTORS               3  3  3
 *******************************************************************************
 *** K POINTS COORDINATES (OBLIQUE COORDINATES IN UNITS OF SHRINK FAC. )
   1-R(  0  0  0)   2-C(  1  0  0)   3-C(  0  1  2)   4-C(  2  0  1)
   5-C(  0  2  0)   6-C(  1  1  0)   7-C(  1  1  1)   8-C(  1  0  1)
   9-C(  0  1  1)  10-C(  2  1  0)  11-C(  0  0  2)  12-C(  2  1  1)
  13-C(  2  1  2)  14-C(  2  2  1)

 GCALCO - MAX INDICES DIRECT LATTICE VECTOR    14    14    15
 NO.OF VECTORS CREATED 6999 STARS  486 RMAX   197.70814 BOHR
 TTTTTTTTTTTTTTTTTTTTTTTTTTTTTT gordsh1     TELAPSE   161143.42 TCPU   160032.45

 MATRIX SIZE: P(G) 1841920, F(G)  921962, P(G) IRR  924216, F(G) IRR  924216
 MAX G-VECTOR INDEX FOR 1- AND 2-ELECTRON INTEGRALS  59

 TTTTTTTTTTTTTTTTTTTTTTTTTTTTTT INPUT       TELAPSE   161172.50 TCPU   160061.32
 TTTTTTTTTTTTTTTTTTTTTTTTTTTTTT SYMM        TELAPSE   161172.50 TCPU   160061.32

 ***** NEW REFERENCE GEOMETRY *****
 TTTTTTTTTTTTTTTTTTTTTTTTTTTTTT INT_SCREEN  TELAPSE   161172.51 TCPU   160061.33
 INFORMATION **** EXCBUF **** EXCH. BIPO BUFFER: WORDS USED =           0

 DFT PARAMETERS

     ATOM       ELECTRONS   NET CHARGE   R(ANGSTROM)
   1   1  H       1.0000      0.0000     1.11000000
   9   6  C       6.0000      0.0000     0.77000000
  33   7  N       7.0000      0.0000     0.74000000
  53   9  F       9.0000      0.0000     0.72000000
  61  30  ZN     30.0000      0.0000     1.37000000

 SIZE OF GRID=    1887124
 TTTTTTTTTTTTTTTTTTTTTTTTTTTTTT MAKE_GRID2  TELAPSE   161174.83 TCPU   160063.64
 BECKE WEIGHT FUNCTION
 RADSAFE =     2.00
 TOLERANCES - DENSITY:10**- 6; POTENTIAL:10**- 9; GRID WGT:10**-14

 RADIAL INTEGRATION  - INTERVALS (POINTS,UPPER LIMIT):            1( 75,  4.0*R)

 ANGULAR INTEGRATION - INTERVALS (ACCURACY LEVEL [N. POINTS] UPPER LIMIT):
  1(  4[  86]   0.2)  2(  8[ 194]   0.5)  3( 12[ 350]   0.9)  4( 16[ 974]   3.5)
  5( 12[ 350]9999.0)
 TTTTTTTTTTTTTTTTTTTTTTTTTTTTTT INT_CALC    TELAPSE   161174.94 TCPU   160063.75
 CYCLE   0   ALPHA  570.373870  EPSILON    2.552029  DELTA    5.7037E+02
 TTTTTTTTTTTTTTTTTTTTTTTTTTTTTT MOQGAD      TELAPSE   162661.07 TCPU   161544.83
 TTTTTTTTTTTTTTTTTTTTTTTTTTTTTT CP_MONMON   TELAPSE   162692.64 TCPU   161576.30
 DIIS TEST: 0.72731E+02 AT CPHF  CYCLE   1 - MIX    0 %
 CYCLE   1   ALPHA  274.900934  EPSILON    1.748025  DELTA   -2.9547E+02
 TTTTTTTTTTTTTTTTTTTTTTTTTTTTTT MOQGAD      TELAPSE   164202.94 TCPU   163080.07
 TTTTTTTTTTTTTTTTTTTTTTTTTTTTTT CP_MONMON   TELAPSE   164234.42 TCPU   163111.44
 DIIS TEST: 0.52914E+03 AT CPHF  CYCLE   2 - DIIS ACTIVE - HISTORY:     2 CYCLES
 CYCLE   2   ALPHA  417.457217  EPSILON    2.135931  DELTA    1.4256E+02
 TTTTTTTTTTTTTTTTTTTTTTTTTTTTTT MOQGAD      TELAPSE   165751.07 TCPU   164614.14
 TTTTTTTTTTTTTTTTTTTTTTTTTTTTTT CP_MONMON   TELAPSE   165782.56 TCPU   164645.49
 DIIS TEST: 0.20271E+02 AT CPHF  CYCLE   3 - DIIS ACTIVE - HISTORY:     3 CYCLES
 CYCLE   3   ALPHA  445.460597  EPSILON    2.212131  DELTA    2.8003E+01
 TTTTTTTTTTTTTTTTTTTTTTTTTTTTTT MOQGAD      TELAPSE   167294.77 TCPU   166146.61
 TTTTTTTTTTTTTTTTTTTTTTTTTTTTTT CP_MONMON   TELAPSE   167326.26 TCPU   166178.01
 DIIS TEST: 0.45945E+01 AT CPHF  CYCLE   4 - DIIS ACTIVE - HISTORY:     4 CYCLES
 CYCLE   4   ALPHA  446.360896  EPSILON    2.214580  DELTA    9.0030E-01
 TTTTTTTTTTTTTTTTTTTTTTTTTTTTTT MOQGAD      TELAPSE   168834.79 TCPU   167678.30
 TTTTTTTTTTTTTTTTTTTTTTTTTTTTTT CP_MONMON   TELAPSE   168866.23 TCPU   167709.67
 DIIS TEST: 0.18007E+00 AT CPHF  CYCLE   5 - DIIS ACTIVE - HISTORY:     5 CYCLES
 CYCLE   5   ALPHA  446.734799  EPSILON    2.215598  DELTA    3.7390E-01
 TTTTTTTTTTTTTTTTTTTTTTTTTTTTTT MOQGAD      TELAPSE   170379.31 TCPU   169213.28
 TTTTTTTTTTTTTTTTTTTTTTTTTTTTTT CP_MONMON   TELAPSE   170410.94 TCPU   169244.81
 DIIS TEST: 0.20619E-01 AT CPHF  CYCLE   6 - DIIS ACTIVE - HISTORY:     6 CYCLES
 CYCLE   6   ALPHA  446.884347  EPSILON    2.216005  DELTA    1.4955E-01
 TTTTTTTTTTTTTTTTTTTTTTTTTTTTTT MOQGAD      TELAPSE   171919.57 TCPU   170743.07
 TTTTTTTTTTTTTTTTTTTTTTTTTTTTTT CP_MONMON   TELAPSE   171951.09 TCPU   170774.50
 DIIS TEST: 0.29388E-02 AT CPHF  CYCLE   7 - DIIS ACTIVE - HISTORY:     7 CYCLES
 CYCLE   7   ALPHA  446.894011  EPSILON    2.216031  DELTA    9.6646E-03
 TTTTTTTTTTTTTTTTTTTTTTTTTTTTTT MOQGAD      TELAPSE   173469.51 TCPU   172284.48
 TTTTTTTTTTTTTTTTTTTTTTTTTTTTTT CP_MONMON   TELAPSE   173501.02 TCPU   172315.82
 DIIS TEST: 0.11530E-02 AT CPHF  CYCLE   8 - DIIS ACTIVE - HISTORY:     8 CYCLES
 CYCLE   8   ALPHA  446.909815  EPSILON    2.216074  DELTA    1.5803E-02
 TTTTTTTTTTTTTTTTTTTTTTTTTTTTTT MOQGAD      TELAPSE   175016.26 TCPU   173821.80
 TTTTTTTTTTTTTTTTTTTTTTTTTTTTTT CP_MONMON   TELAPSE   175047.88 TCPU   173853.30
 DIIS TEST: 0.85071E-04 AT CPHF  CYCLE   9 - DIIS ACTIVE - HISTORY:     9 CYCLES
 CYCLE   9   ALPHA  446.901681  EPSILON    2.216052  DELTA   -8.1336E-03
 TTTTTTTTTTTTTTTTTTTTTTTTTTTTTT MOQGAD      TELAPSE   176555.09 TCPU   175352.81
 TTTTTTTTTTTTTTTTTTTTTTTTTTTTTT CP_MONMON   TELAPSE   176586.58 TCPU   175384.23
 DIIS TEST: 0.14146E-04 AT CPHF  CYCLE  10 - DIIS ACTIVE - HISTORY:    10 CYCLES
 CYCLE  10   ALPHA  446.896772  EPSILON    2.216038  DELTA   -4.9095E-03
 TTTTTTTTTTTTTTTTTTTTTTTTTTTTTT MOQGAD      TELAPSE   178096.30 TCPU   176880.44
 TTTTTTTTTTTTTTTTTTTTTTTTTTTTTT CP_MONMON   TELAPSE   178128.03 TCPU   176912.08
 DIIS TEST: 0.10155E-05 AT CPHF  CYCLE  11 - DIIS ACTIVE - HISTORY:    11 CYCLES
 CYCLE  11   ALPHA  446.895527  EPSILON    2.216035  DELTA   -1.2440E-03
 TTTTTTTTTTTTTTTTTTTTTTTTTTTTTT MOQGAD      TELAPSE   179639.59 TCPU   178413.55
 TTTTTTTTTTTTTTTTTTTTTTTTTTTTTT CP_MONMON   TELAPSE   179671.23 TCPU   178445.10
 DIIS TEST: 0.15897E-06 AT CPHF  CYCLE  12 - DIIS ACTIVE - HISTORY:    12 CYCLES
 CYCLE  12   ALPHA  446.895272  EPSILON    2.216034  DELTA   -2.5533E-04
 TTTTTTTTTTTTTTTTTTTTTTTTTTTTTT CP_SC       TELAPSE   179778.37 TCPU   178543.31

 *******************************************************************************

 POLARIZABILITY (ALPHA), DIELECTRIC (EPSILON) AND FIRST-ORDER ELECTRIC
 SUSCEPTIBILITY (CHI(1)) TENSORS (INDEPENDENT COMPONENTS)

  FR.(eV) COMP.   ALPHA(Re,Im)           EPSILON(Re,Im)                CHI(1)
  2.331   XX     946.9654       0.0000       3.5768       0.0000       2.5768
  2.331   XY      -0.0006       0.0000      -0.0000       0.0000      -0.0000
  2.331   XZ      -0.0000       0.0000      -0.0000       0.0000      -0.0000
  2.331   YY     946.9655       0.0000       3.5768       0.0000       2.5768
  2.331   YZ      -0.0000       0.0000      -0.0000       0.0000      -0.0000
  2.331   ZZ     446.8953       0.0000       2.2160       0.0000       1.2160

 DIELECTRIC TENSOR

 TENSOR IN PRINCIPAL AXES SYSTEM
 AA  3.576760E+00 BB  3.576763E+00 CC  2.216034E+00

 REFRACTIVE INDICES 
 AA  1.488635E+00 BB  1.891232E+00 CC  1.891233E+00

 OPTICALLY ANISOTROPIC - UNIAXIAL CRYSTAL

 BIREFRINGENCE =  0.4026 (NEGATIVE) - OBLATE OPTICAL ELLIPSOID

 EPSILON=N**2=1+CHI(1)=1+ALPHA*4*PI/V,   4*PI/V=   0.00272 BOHR**(-3)
 ALPHA IN BOHR**3; EPSILON AND CHI(1) ARE DIMENSIONLESS.
 *******************************************************************************


  Pockels Effect beta(-omega;omega,0) with omega=   1.1653 eV


 SIZE OF GRID=    1887124
 TTTTTTTTTTTTTTTTTTTTTTTTTTTTTT MAKE_GRID2  TELAPSE   180238.17 TCPU   179000.52
 BECKE WEIGHT FUNCTION
 RADSAFE =     2.00
 TOLERANCES - DENSITY:10**- 6; POTENTIAL:10**- 9; GRID WGT:10**-14

 RADIAL INTEGRATION  - INTERVALS (POINTS,UPPER LIMIT):            1( 75,  4.0*R)

 ANGULAR INTEGRATION - INTERVALS (ACCURACY LEVEL [N. POINTS] UPPER LIMIT):
  1(  4[  86]   0.2)  2(  8[ 194]   0.5)  3( 12[ 350]   0.9)  4( 16[ 974]   3.5)
  5( 12[ 350]9999.0)

 SIZE OF GRID=    1887124
 TTTTTTTTTTTTTTTTTTTTTTTTTTTTTT MAKE_GRID2  TELAPSE   180242.41 TCPU   179003.35
 BECKE WEIGHT FUNCTION
 RADSAFE =     2.00
 TOLERANCES - DENSITY:10**- 6; POTENTIAL:10**- 9; GRID WGT:10**-14

 RADIAL INTEGRATION  - INTERVALS (POINTS,UPPER LIMIT):            1( 75,  4.0*R)

 ANGULAR INTEGRATION - INTERVALS (ACCURACY LEVEL [N. POINTS] UPPER LIMIT):
  1(  4[  86]   0.2)  2(  8[ 194]   0.5)  3( 12[ 350]   0.9)  4( 16[ 974]   3.5)
  5( 12[ 350]9999.0)
 *******************************************************************************

 DC-POCKELS AND SECOND ELECTRIC SUSCEPTIBILITY (CHI(2))
 TENSORS (INDEPENDENT COMPONENTS)

BETA                                         CHI(2)       d(MKS)       d(cgs)
 *******************************************************************************

     XXX         -0.8122E-03  -0.1105E-05  -0.1075E-05  -0.2563E-07
     XXY         -0.4681E-03  -0.6369E-06  -0.6193E-06  -0.1477E-07
     XXZ          0.7938E+03   0.1080E+01   0.1050E+01   0.2505E-01
     XYX         -0.3415E-03  -0.4647E-06  -0.4518E-06  -0.1078E-07
     XYY         -0.4375E-03  -0.5953E-06  -0.5788E-06  -0.1381E-07
     XYZ          0.2009E+03   0.2734E+00   0.2658E+00   0.6341E-02
     XZX          0.7761E+03   0.1056E+01   0.1027E+01   0.2449E-01
     XZY          0.2150E+03   0.2926E+00   0.2845E+00   0.6787E-02
     XZZ         -0.1043E-03  -0.1419E-06  -0.1380E-06  -0.3292E-08
     YXX         -0.3284E-03  -0.4468E-06  -0.4345E-06  -0.1037E-07
     YXY         -0.4394E-03  -0.5978E-06  -0.5812E-06  -0.1387E-07
     YXZ          0.2009E+03   0.2734E+00   0.2658E+00   0.6341E-02
     YYX          0.4807E-04   0.6541E-07   0.6360E-07   0.1517E-08
     YYY          0.3364E-03   0.4577E-06   0.4450E-06   0.1062E-07
     YYZ         -0.7938E+03  -0.1080E+01  -0.1050E+01  -0.2505E-01
     YZX          0.2150E+03   0.2926E+00   0.2845E+00   0.6787E-02
     YZY         -0.7760E+03  -0.1056E+01  -0.1027E+01  -0.2449E-01
     YZZ          0.1280E-03   0.1741E-06   0.1693E-06   0.4038E-08
     ZXX          0.7760E+03   0.1056E+01   0.1027E+01   0.2449E-01
     ZXY          0.2150E+03   0.2926E+00   0.2845E+00   0.6787E-02
     ZXZ         -0.1606E-03  -0.2185E-06  -0.2125E-06  -0.5069E-08
     ZYX          0.2150E+03   0.2926E+00   0.2845E+00   0.6787E-02
     ZYY         -0.7760E+03  -0.1056E+01  -0.1027E+01  -0.2449E-01
     ZYZ          0.1295E-03   0.1762E-06   0.1713E-06   0.4086E-08
     ZZX          0.3401E-03   0.4627E-06   0.4499E-06   0.1073E-07
     ZZY         -0.4807E-05  -0.6540E-08  -0.6359E-08  -0.1517E-09
     ZZZ         -0.2008E-03  -0.2732E-06  -0.2657E-06  -0.6338E-08
 *******************************************************************************
 CHI(2) = BETA*2PI/V

 BETA AND CHI(2) IN A.U.:    [BETA] = M**(-1/2) L**(7/2) T
                             [CHI(2)] = 1/F
                             (L=LENGTH, M=MASS, T=TIME, F=FIELD INTENSITY)

 ELECTRIC SUSCEPTIBILITY IN THE SECOND HARMONIC GENERATION (SHG) CONVENTION IS:
                   d(A.U.)= 1/2 CHI(2)
                   d(MKS) = d(A.U.)/0.514220632 pm/V
                   d(CGS) = d(A.U.)/(4PI*1.7152535)  10**(-7) esu

 FIELD INTENSITY: 1 A.U. = 0.514220632*10**(11) V/m = 1.7152535*10**7 esu
 BEWARE:                CHI(2)=P/(E0*F**2)   (MKS)
                        CHI(2)=P/F**2        (CGS)
 WHERE P IS THE POLARIZATION VECTOR AND F IS THE APPLIED ELECTRIC FIELD.
 CONSISTENCY IS  PRESERVED BY MULTIPLYING THE CGS VALUE TIMES THE PERMITTIVITY
 OF THE VACUUM, E0 (CONVERSION FACTORS FROM www.physics.nist.gov/constants).
 IN PARENTHESIS: BETA BEFORE SYMMETRIZATION.

  SHG Effect beta(-2omega;omega,omega) with omega=   1.1653 eV


 SIZE OF GRID=    1887124
 TTTTTTTTTTTTTTTTTTTTTTTTTTTTTT MAKE_GRID2  TELAPSE   180622.65 TCPU   179381.73
 BECKE WEIGHT FUNCTION
 RADSAFE =     2.00
 TOLERANCES - DENSITY:10**- 6; POTENTIAL:10**- 9; GRID WGT:10**-14

 RADIAL INTEGRATION  - INTERVALS (POINTS,UPPER LIMIT):            1( 75,  4.0*R)

 ANGULAR INTEGRATION - INTERVALS (ACCURACY LEVEL [N. POINTS] UPPER LIMIT):
  1(  4[  86]   0.2)  2(  8[ 194]   0.5)  3( 12[ 350]   0.9)  4( 16[ 974]   3.5)
  5( 12[ 350]9999.0)

 SIZE OF GRID=    1887124
 TTTTTTTTTTTTTTTTTTTTTTTTTTTTTT MAKE_GRID2  TELAPSE   180625.63 TCPU   179384.69
 BECKE WEIGHT FUNCTION
 RADSAFE =     2.00
 TOLERANCES - DENSITY:10**- 6; POTENTIAL:10**- 9; GRID WGT:10**-14

 RADIAL INTEGRATION  - INTERVALS (POINTS,UPPER LIMIT):            1( 75,  4.0*R)

 ANGULAR INTEGRATION - INTERVALS (ACCURACY LEVEL [N. POINTS] UPPER LIMIT):
  1(  4[  86]   0.2)  2(  8[ 194]   0.5)  3( 12[ 350]   0.9)  4( 16[ 974]   3.5)
  5( 12[ 350]9999.0)
 *******************************************************************************

 SECOND HARMONIC GENERATION (SHG)  AND SECOND ELECTRIC SUSCEPTIBILITY (CHI(2))
 TENSORS (INDEPENDENT COMPONENTS)

BETA                                         CHI(2)       d(MKS)       d(cgs)
 *******************************************************************************

     XXX         -0.1424E-02  -0.1938E-05  -0.1884E-05  -0.4495E-07
     XXY         -0.4433E-03  -0.6032E-06  -0.5865E-06  -0.1399E-07
     XXZ          0.1345E+04   0.1830E+01   0.1779E+01   0.4245E-01
     XYX         -0.4433E-03  -0.6032E-06  -0.5865E-06  -0.1399E-07
     XYY         -0.5560E-03  -0.7565E-06  -0.7356E-06  -0.1755E-07
     XYZ          0.3417E+03   0.4649E+00   0.4521E+00   0.1078E-01
     XZX          0.1345E+04   0.1830E+01   0.1779E+01   0.4245E-01
     XZY          0.3417E+03   0.4649E+00   0.4521E+00   0.1078E-01
     XZZ         -0.1489E-03  -0.2025E-06  -0.1969E-06  -0.4698E-08
     YXX         -0.4390E-03  -0.5972E-06  -0.5807E-06  -0.1385E-07
     YXY         -0.4890E-03  -0.6653E-06  -0.6469E-06  -0.1543E-07
     YXZ          0.3417E+03   0.4649E+00   0.4521E+00   0.1078E-01
     YYX         -0.4890E-03  -0.6653E-06  -0.6469E-06  -0.1543E-07
     YYY          0.5848E-03   0.7956E-06   0.7736E-06   0.1846E-07
     YYZ         -0.1345E+04  -0.1830E+01  -0.1779E+01  -0.4245E-01
     YZX          0.3417E+03   0.4649E+00   0.4521E+00   0.1078E-01
     YZY         -0.1345E+04  -0.1830E+01  -0.1779E+01  -0.4245E-01
     YZZ          0.1518E-03   0.2066E-06   0.2009E-06   0.4792E-08
     ZXX          0.1287E+04   0.1751E+01   0.1703E+01   0.4062E-01
     ZXY          0.3724E+03   0.5066E+00   0.4926E+00   0.1175E-01
     ZXZ         -0.1916E-03  -0.2606E-06  -0.2534E-06  -0.6046E-08
     ZYX          0.3724E+03   0.5066E+00   0.4926E+00   0.1175E-01
     ZYY         -0.1287E+04  -0.1751E+01  -0.1703E+01  -0.4062E-01
     ZYZ          0.1392E-03   0.1894E-06   0.1842E-06   0.4394E-08
     ZZX         -0.1916E-03  -0.2606E-06  -0.2534E-06  -0.6046E-08
     ZZY          0.1392E-03   0.1894E-06   0.1842E-06   0.4394E-08
     ZZZ         -0.3138E-03  -0.4269E-06  -0.4151E-06  -0.9902E-08
 *******************************************************************************
 CHI(2) = BETA*2PI/V

 BETA AND CHI(2) IN A.U.:    [BETA] = M**(-1/2) L**(7/2) T
                             [CHI(2)] = 1/F
                             (L=LENGTH, M=MASS, T=TIME, F=FIELD INTENSITY)

 ELECTRIC SUSCEPTIBILITY IN THE SECOND HARMONIC GENERATION (SHG) CONVENTION IS:
                   d(A.U.)= 1/2 CHI(2)
                   d(MKS) = d(A.U.)/0.514220632 pm/V
                   d(CGS) = d(A.U.)/(4PI*1.7152535)  10**(-7) esu

 FIELD INTENSITY: 1 A.U. = 0.514220632*10**(11) V/m = 1.7152535*10**7 esu
 BEWARE:                CHI(2)=P/(E0*F**2)   (MKS)
                        CHI(2)=P/F**2        (CGS)
 WHERE P IS THE POLARIZATION VECTOR AND F IS THE APPLIED ELECTRIC FIELD.
 CONSISTENCY IS  PRESERVED BY MULTIPLYING THE CGS VALUE TIMES THE PERMITTIVITY
 OF THE VACUUM, E0 (CONVERSION FACTORS FROM www.physics.nist.gov/constants).
 IN PARENTHESIS: BETA BEFORE SYMMETRIZATION.

 *******************************************************************************


 GCALCO - MAX INDICES DIRECT LATTICE VECTOR    14    14    15
 NO.OF VECTORS CREATED 6999 STARS  486 RMAX   197.70814 BOHR

 CAPPA:IS1  3;IS2  3;IS3  3; K PTS MONK NET   6; SYMMOPS:K SPACE   8;G SPACE   4

 TTTTTTTTTTTTTTTTTTTTTTTTTTTTTT END         TELAPSE   180626.57 TCPU   179385.62
 EEEEEEEEEE TERMINATION  DATE 01 12 2023 TIME 17:16:21.9
NODE    0 CPU TIME =    179385.623
NODE    1 CPU TIME =    179699.861
NODE    2 CPU TIME =    179761.829
NODE    3 CPU TIME =    179745.428
NODE    4 CPU TIME =    179528.610
NODE    5 CPU TIME =    179687.132
NODE    6 CPU TIME =    179791.658
NODE    7 CPU TIME =    179702.346
NODE    8 CPU TIME =    179512.897
NODE    9 CPU TIME =    179675.432
NODE   10 CPU TIME =    179505.100
NODE   11 CPU TIME =    179462.187
NODE   12 CPU TIME =    179274.725
NODE   13 CPU TIME =    179397.592
NODE   14 CPU TIME =    179492.157
NODE   15 CPU TIME =    179434.246
NODE   16 CPU TIME =    179238.087
NODE   17 CPU TIME =    179463.655
NODE   18 CPU TIME =    179493.856
NODE   19 CPU TIME =    179406.781
NODE   20 CPU TIME =    179255.054
NODE   21 CPU TIME =    179441.301
NODE   22 CPU TIME =    179423.662
NODE   23 CPU TIME =    179368.165
    TOTAL CPU TIME =   4308147.384
trying normal rsh (/usr/bin/rsh)
exec: No such file or directory
trying normal rsh (/usr/bin/rsh)
exec: No such file or directory
trying normal rsh (/usr/bin/rsh)
exec: No such file or directory
trying normal rsh (/usr/bin/rsh)
exec: No such file or directory
