Loading crystal17/1.0.2/intel/19.0
  Loading requirement: intel/19.0 ompi/4.0.1/intel/19.0
 PROCESS            0  OF           24  WORKING
 PROCESS            2  OF           24  WORKING
 PROCESS           12  OF           24  WORKING
 PROCESS           14  OF           24  WORKING
 PROCESS            3  OF           24  WORKING
 PROCESS            4  OF           24  WORKING
 PROCESS            7  OF           24  WORKING
 PROCESS           11  OF           24  WORKING
 PROCESS           15  OF           24  WORKING
 PROCESS           19  OF           24  WORKING
 PROCESS           23  OF           24  WORKING
 PROCESS            5  OF           24  WORKING
 PROCESS            6  OF           24  WORKING
 PROCESS            9  OF           24  WORKING
 PROCESS           10  OF           24  WORKING
 PROCESS           13  OF           24  WORKING
 PROCESS           18  OF           24  WORKING
 PROCESS           16  OF           24  WORKING
 PROCESS           20  OF           24  WORKING
 PROCESS           21  OF           24  WORKING
 PROCESS           22  OF           24  WORKING
 PROCESS            1  OF           24  WORKING
 PROCESS            8  OF           24  WORKING

         
 *******************************************************************************
 *                                                                             *
 *                               CRYSTAL17                                     *
 *                      public : 1.0.2 - March 1st, 2018                       *
 *                       HTTP://WWW.CRYSTAL.UNITO.IT                           *
 *                                                                             *
 *                              MAIN AUTHORS                                   *
 *                                                                             *
 *  R. DOVESI(1,11), V.R. SAUNDERS(2), C. ROETTI(1,11), R. ORLANDO(1,11),      *
 *  C.M. ZICOVICH-WILSON(1,3), F. PASCALE(4), B. CIVALLERI(1,11),              *
 *  K. DOLL(5), N.M. HARRISON(2,6), I.J. BUSH(7), Ph. D'ARCO(8),               *
 *  M. LLUNELL(9), M. CAUSA'(10), Y. NOEL(8), L. MASCHIO(1,11), A. ERBA(1,11)  *
 *  M. RE'RAT(14), S. CASASSA(1,11)                                            *
 *                                                                             *
 *        CONTRIBUTIONS TO THE CODE HAVE ALSO BEEN GIVEN BY                    *
 *                                                                             *
 *  M. FERRABONE(1,11), M. DE LA PIERRE(1,11), M. FERRERO(1,11),               *
 *  J. BAIMA(1,11), E. ALBANESE(1,11), M.F. PEINTINGER(12), R. BAST(13),       *
 *  B. KIRTMAN(15), V. LACIVITA(1,11), R. DEMICHELIS(1,16)                     *
 *  G. BRANDEBURG(17), S. SALUSTRO(1,11), G. SANSONE(1,11)                     *
 *  M.T. RUGGIERO(18)                                                          *
 *                                                                             *
 * (1) THEORETICAL CHEMISTRY GROUP - UNIVERSITA' DI TORINO - TORINO (ITALY)    *
 * (2) COMPUTATIONAL SCIENCE & ENGINEERING DEPARTMENT - STFC DARESBURY (UK)    *
 * (3) UNIVERSIDAD AUTONOMA DEL ESTADO DE MORELOS - CUERNAVACA (MEXICO)        *
 * (4) UNIVERSITE' DE LORRAINE - NANCY (FRANCE)                                *
 * (5) UNIVERSITAET STUTTGART- STUTTGART (GERMANY)                             *
 * (6) IMPERIAL COLLEGE - LONDON (UK)                                          *
 * (7) OXFORD E-RESEARCH CENTRE - OXFORD (UK)                                  *
 * (8) UPMC - SORBONNE UNIVERSITES - PARIS (FRANCE)                            *
 * (9) UNIVERSIDAD DE BARCELONA - BARCELONA (SPAIN)                            *
 *(10) UNIVERSITA' DI NAPOLI "FEDERICO II" - NAPOLI (ITALY)                    *
 *(11) NIS - NANOSTRUCTURED INTERFACES AND SURFACES - TORINO (ITALY)           *
 *(12) MPI FUER CHEMISCHE ENERGIEKONVERSION - MUELHEIM AN DER RUHR (GERMANY)   *
 *(13) UNIVERSITY OF TROMSO - TROMSO (NORWAY)                                  *
 *(14) UNIVERSITE' DE PAU ET DES PAYS DE L'ADOUR - PAU (FRANCE)                *
 *(15) UNIVERSITY OF CALIFORNIA SANTA BARBARA - SANTA BARBARA (USA)            *
 *(16) CURTIN UNIVERSITY - PERTH (AUSTRALIA)                                   *
 *(17) UNIVERSITY COLLEGE LONDON - LONDON (UK)                                 *
 *(18) CAMBRIDGE UNIVERSITY - CAMBRIDGE (UK)                                   *
 *                                                                             *
 *******************************************************************************
 EEEEEEEEEE STARTING  DATE 29 11 2023 TIME 04:36:45.5
 Z:\home\sanoj\Downloads\tmp_p\newconn.mol                                       

 CRYSTAL CALCULATION
 (INPUT ACCORDING TO THE INTERNATIONAL TABLES FOR X-RAY CRYSTALLOGRAPHY)
 CRYSTAL FAMILY                       :  TETRAGONAL  
 CRYSTAL CLASS  (GROTH - 1921)        :  TETRAGONAL DISPHENOIDAL              

 SPACE GROUP (NONCENTROSYMMETRIC)     :  I -4            

 LATTICE PARAMETERS  (ANGSTROMS AND DEGREES) - CONVENTIONAL CELL
        A           B           C        ALPHA        BETA       GAMMA
    10.60308    10.60308    12.42053    90.00000    90.00000    90.00000


 NUMBER OF IRREDUCIBLE ATOMS IN THE CONVENTIONAL CELL:   17

 INPUT COORDINATES

 ATOM AT. N.              COORDINATES
   1   1     4.673900000000E-01  7.976500000000E-01  3.931100000000E-01
   2   1     9.346000000000E-02  5.250700000000E-01  3.559500000000E-01
   3   6     2.624900000000E-01  8.013400000000E-01  3.755200000000E-01
   4   6     2.528800000000E-01 -6.168000000000E-02  3.761400000000E-01
   5   6     1.587200000000E-01  7.196800000000E-01  3.657600000000E-01
   6   6     2.968500000000E-01  5.451900000000E-01  3.695500000000E-01
   7   6     3.811300000000E-01  7.420500000000E-01  3.833300000000E-01
   8   6     8.271000000000E-01  4.103700000000E-01  3.630900000000E-01
   9   7     3.477600000000E-01  1.424000000000E-02  3.420200000000E-01
  10   7     3.109900000000E-01  1.368400000000E-01  3.595800000000E-01
  11   7     1.579500000000E-01  1.260000000000E-02  4.124900000000E-01
  12   7     1.970100000000E-01  1.360400000000E-01  4.012600000000E-01
  13   7     3.981300000000E-01  6.168200000000E-01  3.794400000000E-01
  14   9     4.159000000000E-02  7.680000000000E-01  3.589900000000E-01
  15   9     3.145400000000E-01  4.199300000000E-01  3.653700000000E-01
  16  30     0.000000000000E+00  5.000000000000E-01  7.500000000000E-01
  17  30     0.000000000000E+00  0.000000000000E+00  5.000000000000E-01

 *******************************************************************************

 << INFORMATION >>: FROM NOW ON, ALL COORDINATES REFER TO THE PRIMITIVE CELL

 *******************************************************************************

 LATTICE PARAMETERS  (ANGSTROMS AND DEGREES) - PRIMITIVE CELL
       A          B          C        ALPHA      BETA     GAMMA        VOLUME
    9.73550    9.73550    9.73550   114.01116 114.01116 100.72940    698.190803

 COORDINATES OF THE EQUIVALENT ATOMS (FRACTIONAL UNITS)

 N. ATOM EQUIV AT. N.          X                  Y                  Z

   1   1   1    1 H     1.90760000000E-01 -1.39500000000E-01  2.65040000000E-01
   2   1   2    1 H    -4.04540000000E-01 -7.42800000000E-02 -2.65040000000E-01
   3   1   3    1 H     1.39500000000E-01  4.04540000000E-01  3.30260000000E-01
   4   1   4    1 H     7.42800000000E-02 -1.90760000000E-01 -3.30260000000E-01

   5   2   1    1 H    -1.18980000000E-01  4.49410000000E-01 -3.81470000000E-01
   6   2   2    1 H    -1.69120000000E-01  2.62490000000E-01  3.81470000000E-01
   7   2   3    1 H    -4.49410000000E-01  1.69120000000E-01  4.31610000000E-01
   8   2   4    1 H    -2.62490000000E-01  1.18980000000E-01 -4.31610000000E-01

   9   3   1    6 C     1.76860000000E-01 -3.61990000000E-01  6.38300000000E-02
  10   3   2    6 C    -4.25820000000E-01  1.13030000000E-01 -6.38300000000E-02
  11   3   3    6 C     3.61990000000E-01  4.25820000000E-01 -4.61150000000E-01
  12   3   4    6 C    -1.13030000000E-01 -1.76860000000E-01  4.61150000000E-01

  13   4   1    6 C     3.14460000000E-01 -3.70980000000E-01  1.91200000000E-01
  14   4   2    6 C     4.37820000000E-01  1.23260000000E-01 -1.91200000000E-01
  15   4   3    6 C     3.70980000000E-01 -4.37820000000E-01 -3.14560000000E-01
  16   4   4    6 C    -1.23260000000E-01 -3.14460000000E-01  3.14560000000E-01

  17   5   1    6 C     8.54400000000E-02 -4.75520000000E-01 -1.21600000000E-01
  18   5   2    6 C    -3.53920000000E-01  2.07040000000E-01  1.21600000000E-01
  19   5   3    6 C     4.75520000000E-01  3.53920000000E-01 -4.39040000000E-01
  20   5   4    6 C    -2.07040000000E-01 -8.54400000000E-02  4.39040000000E-01

  21   6   1    6 C    -8.52600000000E-02 -3.33600000000E-01 -1.57960000000E-01
  22   6   2    6 C    -1.75640000000E-01  7.27000000000E-02  1.57960000000E-01
  23   6   3    6 C     3.33600000000E-01  1.75640000000E-01  2.48340000000E-01
  24   6   4    6 C    -7.27000000000E-02  8.52600000000E-02 -2.48340000000E-01

  25   7   1    6 C     1.25380000000E-01 -2.35540000000E-01  1.23180000000E-01
  26   7   2    6 C    -3.58720000000E-01  2.20000000000E-03 -1.23180000000E-01
  27   7   3    6 C     2.35540000000E-01  3.58720000000E-01  3.60920000000E-01
  28   7   4    6 C    -2.20000000000E-03 -1.25380000000E-01 -3.60920000000E-01

  29   8   1    6 C    -2.26540000000E-01  1.90190000000E-01  2.37470000000E-01
  30   8   2    6 C    -4.72800000000E-02 -4.64010000000E-01 -2.37470000000E-01
  31   8   3    6 C    -1.90190000000E-01  4.72800000000E-02 -4.16730000000E-01
  32   8   4    6 C     4.64010000000E-01  2.26540000000E-01  4.16730000000E-01

  33   9   1    7 N     3.56260000000E-01 -3.10220000000E-01  3.62000000000E-01
  34   9   2    7 N     3.27780000000E-01 -5.74000000000E-03 -3.62000000000E-01
  35   9   3    7 N     3.10220000000E-01 -3.27780000000E-01 -3.33520000000E-01
  36   9   4    7 N     5.74000000000E-03 -3.56260000000E-01  3.33520000000E-01

  37  10   1    7 N     4.96420000000E-01 -3.29430000000E-01  4.47830000000E-01
  38  10   2    7 N     2.22740000000E-01  4.85900000000E-02 -4.47830000000E-01
  39  10   3    7 N     3.29430000000E-01 -2.22740000000E-01 -1.74150000000E-01
  40  10   4    7 N    -4.85900000000E-02 -4.96420000000E-01  1.74150000000E-01

  41  11   1    7 N     4.25090000000E-01 -4.29560000000E-01  1.70550000000E-01
  42  11   2    7 N     3.99890000000E-01  2.54540000000E-01 -1.70550000000E-01
  43  11   3    7 N     4.29560000000E-01 -3.99890000000E-01 -1.45350000000E-01
  44  11   4    7 N    -2.54540000000E-01 -4.25090000000E-01  1.45350000000E-01

  45  12   1    7 N    -4.62700000000E-01 -4.01730000000E-01  3.33050000000E-01
  46  12   2    7 N     2.65220000000E-01  2.04250000000E-01 -3.33050000000E-01
  47  12   3    7 N     4.01730000000E-01 -2.65220000000E-01 -6.09700000000E-02
  48  12   4    7 N    -2.04250000000E-01  4.62700000000E-01  6.09700000000E-02

  49  13   1    7 N    -3.74000000000E-03 -2.22430000000E-01  1.49500000000E-02
  50  13   2    7 N    -2.37380000000E-01 -1.86900000000E-02 -1.49500000000E-02
  51  13   3    7 N     2.22430000000E-01  2.37380000000E-01  2.18690000000E-01
  52  13   4    7 N     1.86900000000E-02  3.74000000000E-03 -2.18690000000E-01

  53  14   1    9 F     1.26990000000E-01  4.00580000000E-01 -1.90410000000E-01
  54  14   2    9 F    -4.09010000000E-01  3.17400000000E-01  1.90410000000E-01
  55  14   3    9 F    -4.00580000000E-01  4.09010000000E-01 -2.73590000000E-01
  56  14   4    9 F    -3.17400000000E-01 -1.26990000000E-01  2.73590000000E-01

  57  15   1    9 F    -2.14700000000E-01 -3.20090000000E-01 -2.65530000000E-01
  58  15   2    9 F    -5.45600000000E-02  5.08300000000E-02  2.65530000000E-01
  59  15   3    9 F     3.20090000000E-01  5.45600000000E-02  1.05390000000E-01
  60  15   4    9 F    -5.08300000000E-02  2.14700000000E-01 -1.05390000000E-01

  61  16   1   30 ZN    2.50000000000E-01 -2.50000000000E-01 -5.00000000000E-01

  62  17   1   30 ZN   -5.00000000000E-01 -5.00000000000E-01  0.00000000000E+00

 NUMBER OF SYMMETRY OPERATORS         :    4
 *******************************************************************************
 * GEOMETRY EDITING - INPUT COORDINATES ARE GIVEN IN ANGSTROM         
 *******************************************************************************

 GEOMETRY NOW FULLY CONSISTENT WITH THE GROUP

 GCALCO - MAX INDICES DIRECT LATTICE VECTOR    14    14    16
 NO.OF VECTORS CREATED 6999 STARS  486 RMAX   199.67157 BOHR

 GEOMETRY FOR WAVE FUNCTION - DIMENSIONALITY OF THE SYSTEM    3
 (NON PERIODIC DIRECTION: LATTICE PARAMETER FORMALLY SET TO 500)
 *******************************************************************************
 LATTICE PARAMETERS (ANGSTROMS AND DEGREES) - BOHR = 0.5291772083 ANGSTROM
 PRIMITIVE CELL - CENTRING CODE 6/0 VOLUME=   698.190803 - DENSITY  2.036 g/cm^3
         A              B              C           ALPHA      BETA       GAMMA 
     9.73550358     9.73550358     9.73550358   114.011163 114.011163 100.729398
 *******************************************************************************
 ATOMS IN THE ASYMMETRIC UNIT   17 - ATOMS IN THE UNIT CELL:   62
     ATOM                 X/A                 Y/B                 Z/C    
 *******************************************************************************
      1 T   1 H     1.907600000000E-01 -1.395000000000E-01  2.650400000000E-01
      2 F   1 H    -4.045400000000E-01 -7.428000000000E-02 -2.650400000000E-01
      3 F   1 H     1.395000000000E-01  4.045400000000E-01  3.302600000000E-01
      4 F   1 H     7.428000000000E-02 -1.907600000000E-01 -3.302600000000E-01
      5 T   1 H    -1.189800000000E-01  4.494100000000E-01 -3.814700000000E-01
      6 F   1 H    -1.691200000000E-01  2.624900000000E-01  3.814700000000E-01
      7 F   1 H    -4.494100000000E-01  1.691200000000E-01  4.316100000000E-01
      8 F   1 H    -2.624900000000E-01  1.189800000000E-01 -4.316100000000E-01
      9 T   6 C     1.768600000000E-01 -3.619900000000E-01  6.383000000000E-02
     10 F   6 C    -4.258200000000E-01  1.130300000000E-01 -6.383000000000E-02
     11 F   6 C     3.619900000000E-01  4.258200000000E-01 -4.611500000000E-01
     12 F   6 C    -1.130300000000E-01 -1.768600000000E-01  4.611500000000E-01
     13 T   6 C     3.144600000000E-01 -3.709800000000E-01  1.912000000000E-01
     14 F   6 C     4.378200000000E-01  1.232600000000E-01 -1.912000000000E-01
     15 F   6 C     3.709800000000E-01 -4.378200000000E-01 -3.145600000000E-01
     16 F   6 C    -1.232600000000E-01 -3.144600000000E-01  3.145600000000E-01
     17 T   6 C     8.544000000000E-02 -4.755200000000E-01 -1.216000000000E-01
     18 F   6 C    -3.539200000000E-01  2.070400000000E-01  1.216000000000E-01
     19 F   6 C     4.755200000000E-01  3.539200000000E-01 -4.390400000000E-01
     20 F   6 C    -2.070400000000E-01 -8.544000000000E-02  4.390400000000E-01
     21 T   6 C    -8.526000000000E-02 -3.336000000000E-01 -1.579600000000E-01
     22 F   6 C    -1.756400000000E-01  7.270000000000E-02  1.579600000000E-01
     23 F   6 C     3.336000000000E-01  1.756400000000E-01  2.483400000000E-01
     24 F   6 C    -7.270000000000E-02  8.526000000000E-02 -2.483400000000E-01
     25 T   6 C     1.253800000000E-01 -2.355400000000E-01  1.231800000000E-01
     26 F   6 C    -3.587200000000E-01  2.200000000000E-03 -1.231800000000E-01
     27 F   6 C     2.355400000000E-01  3.587200000000E-01  3.609200000000E-01
     28 F   6 C    -2.200000000000E-03 -1.253800000000E-01 -3.609200000000E-01
     29 T   6 C    -2.265400000000E-01  1.901900000000E-01  2.374700000000E-01
     30 F   6 C    -4.728000000000E-02 -4.640100000000E-01 -2.374700000000E-01
     31 F   6 C    -1.901900000000E-01  4.728000000000E-02 -4.167300000000E-01
     32 F   6 C     4.640100000000E-01  2.265400000000E-01  4.167300000000E-01
     33 T   7 N     3.562600000000E-01 -3.102200000000E-01  3.620000000000E-01
     34 F   7 N     3.277800000000E-01 -5.740000000000E-03 -3.620000000000E-01
     35 F   7 N     3.102200000000E-01 -3.277800000000E-01 -3.335200000000E-01
     36 F   7 N     5.740000000000E-03 -3.562600000000E-01  3.335200000000E-01
     37 T   7 N     4.964200000000E-01 -3.294300000000E-01  4.478300000000E-01
     38 F   7 N     2.227400000000E-01  4.859000000000E-02 -4.478300000000E-01
     39 F   7 N     3.294300000000E-01 -2.227400000000E-01 -1.741500000000E-01
     40 F   7 N    -4.859000000000E-02 -4.964200000000E-01  1.741500000000E-01
     41 T   7 N     4.250900000000E-01 -4.295600000000E-01  1.705500000000E-01
     42 F   7 N     3.998900000000E-01  2.545400000000E-01 -1.705500000000E-01
     43 F   7 N     4.295600000000E-01 -3.998900000000E-01 -1.453500000000E-01
     44 F   7 N    -2.545400000000E-01 -4.250900000000E-01  1.453500000000E-01
     45 T   7 N    -4.627000000000E-01 -4.017300000000E-01  3.330500000000E-01
     46 F   7 N     2.652200000000E-01  2.042500000000E-01 -3.330500000000E-01
     47 F   7 N     4.017300000000E-01 -2.652200000000E-01 -6.097000000000E-02
     48 F   7 N    -2.042500000000E-01  4.627000000000E-01  6.097000000000E-02
     49 T   7 N    -3.740000000000E-03 -2.224300000000E-01  1.495000000000E-02
     50 F   7 N    -2.373800000000E-01 -1.869000000000E-02 -1.495000000000E-02
     51 F   7 N     2.224300000000E-01  2.373800000000E-01  2.186900000000E-01
     52 F   7 N     1.869000000000E-02  3.740000000000E-03 -2.186900000000E-01
     53 T   9 F     1.269900000000E-01  4.005800000000E-01 -1.904100000000E-01
     54 F   9 F    -4.090100000000E-01  3.174000000000E-01  1.904100000000E-01
     55 F   9 F    -4.005800000000E-01  4.090100000000E-01 -2.735900000000E-01
     56 F   9 F    -3.174000000000E-01 -1.269900000000E-01  2.735900000000E-01
     57 T   9 F    -2.147000000000E-01 -3.200900000000E-01 -2.655300000000E-01
     58 F   9 F    -5.456000000000E-02  5.083000000000E-02  2.655300000000E-01
     59 F   9 F     3.200900000000E-01  5.456000000000E-02  1.053900000000E-01
     60 F   9 F    -5.083000000000E-02  2.147000000000E-01 -1.053900000000E-01
     61 T  30 ZN    2.500000000000E-01 -2.500000000000E-01  5.000000000000E-01
     62 T  30 ZN    5.000000000000E-01  5.000000000000E-01  0.000000000000E+00

 TRANSFORMATION MATRIX PRIMITIVE-CRYSTALLOGRAPHIC CELL
  0.0000  1.0000  1.0000  1.0000  0.0000  1.0000  1.0000  1.0000  0.0000

 *******************************************************************************
 CRYSTALLOGRAPHIC CELL (VOLUME=       1396.38160687)
         A              B              C           ALPHA      BETA       GAMMA 
    10.60307975    10.60307975    12.42052816    90.000000  90.000000  90.000000

 COORDINATES IN THE CRYSTALLOGRAPHIC CELL
     ATOM                 X/A                 Y/B                 Z/C    
 *******************************************************************************
      1 T   1 H    -3.261000000000E-02  2.976500000000E-01 -1.068900000000E-01
      2 F   1 H     3.261000000000E-02 -2.976500000000E-01 -1.068900000000E-01
      3 F   1 H     2.976500000000E-01  3.261000000000E-02  1.068900000000E-01
      4 F   1 H    -2.976500000000E-01 -3.261000000000E-02  1.068900000000E-01
      5 T   1 H    -4.065400000000E-01  2.507000000000E-02 -1.440500000000E-01
      6 F   1 H     4.065400000000E-01 -2.507000000000E-02 -1.440500000000E-01
      7 F   1 H     2.507000000000E-02  4.065400000000E-01  1.440500000000E-01
      8 F   1 H    -2.507000000000E-02 -4.065400000000E-01  1.440500000000E-01
      9 T   6 C    -2.375100000000E-01  3.013400000000E-01 -1.244800000000E-01
     10 F   6 C     2.375100000000E-01 -3.013400000000E-01 -1.244800000000E-01
     11 F   6 C     3.013400000000E-01  2.375100000000E-01  1.244800000000E-01
     12 F   6 C    -3.013400000000E-01 -2.375100000000E-01  1.244800000000E-01
     13 T   6 C     2.528800000000E-01 -6.168000000000E-02  3.761400000000E-01
     14 F   6 C    -2.528800000000E-01  6.168000000000E-02  3.761400000000E-01
     15 F   6 C    -6.168000000000E-02 -2.528800000000E-01 -3.761400000000E-01
     16 F   6 C     6.168000000000E-02  2.528800000000E-01 -3.761400000000E-01
     17 T   6 C    -3.412800000000E-01  2.196800000000E-01 -1.342400000000E-01
     18 F   6 C     3.412800000000E-01 -2.196800000000E-01 -1.342400000000E-01
     19 F   6 C     2.196800000000E-01  3.412800000000E-01  1.342400000000E-01
     20 F   6 C    -2.196800000000E-01 -3.412800000000E-01  1.342400000000E-01
     21 T   6 C    -2.031500000000E-01  4.519000000000E-02 -1.304500000000E-01
     22 F   6 C     2.031500000000E-01 -4.519000000000E-02 -1.304500000000E-01
     23 F   6 C     4.519000000000E-02  2.031500000000E-01  1.304500000000E-01
     24 F   6 C    -4.519000000000E-02 -2.031500000000E-01  1.304500000000E-01
     25 T   6 C    -1.188700000000E-01  2.420500000000E-01 -1.166700000000E-01
     26 F   6 C     1.188700000000E-01 -2.420500000000E-01 -1.166700000000E-01
     27 F   6 C     2.420500000000E-01  1.188700000000E-01  1.166700000000E-01
     28 F   6 C    -2.420500000000E-01 -1.188700000000E-01  1.166700000000E-01
     29 T   6 C     3.271000000000E-01 -8.963000000000E-02 -1.369100000000E-01
     30 F   6 C    -3.271000000000E-01  8.963000000000E-02 -1.369100000000E-01
     31 F   6 C    -8.963000000000E-02 -3.271000000000E-01  1.369100000000E-01
     32 F   6 C     8.963000000000E-02  3.271000000000E-01  1.369100000000E-01
     33 T   7 N     3.477600000000E-01  1.424000000000E-02  3.420200000000E-01
     34 F   7 N    -3.477600000000E-01 -1.424000000000E-02  3.420200000000E-01
     35 F   7 N     1.424000000000E-02 -3.477600000000E-01 -3.420200000000E-01
     36 F   7 N    -1.424000000000E-02  3.477600000000E-01 -3.420200000000E-01
     37 T   7 N    -1.890100000000E-01 -3.631600000000E-01 -1.404200000000E-01
     38 F   7 N     1.890100000000E-01  3.631600000000E-01 -1.404200000000E-01
     39 F   7 N    -3.631600000000E-01  1.890100000000E-01  1.404200000000E-01
     40 F   7 N     3.631600000000E-01 -1.890100000000E-01  1.404200000000E-01
     41 T   7 N     1.579500000000E-01  1.260000000000E-02  4.124900000000E-01
     42 F   7 N    -1.579500000000E-01 -1.260000000000E-02  4.124900000000E-01
     43 F   7 N     1.260000000000E-02 -1.579500000000E-01 -4.124900000000E-01
     44 F   7 N    -1.260000000000E-02  1.579500000000E-01 -4.124900000000E-01
     45 T   7 N    -3.029900000000E-01 -3.639600000000E-01 -9.874000000000E-02
     46 F   7 N     3.029900000000E-01  3.639600000000E-01 -9.874000000000E-02
     47 F   7 N    -3.639600000000E-01  3.029900000000E-01  9.874000000000E-02
     48 F   7 N     3.639600000000E-01 -3.029900000000E-01  9.874000000000E-02
     49 T   7 N    -1.018700000000E-01  1.168200000000E-01 -1.205600000000E-01
     50 F   7 N     1.018700000000E-01 -1.168200000000E-01 -1.205600000000E-01
     51 F   7 N     1.168200000000E-01  1.018700000000E-01  1.205600000000E-01
     52 F   7 N    -1.168200000000E-01 -1.018700000000E-01  1.205600000000E-01
     53 T   9 F     4.159000000000E-02 -2.320000000000E-01  3.589900000000E-01
     54 F   9 F    -4.159000000000E-02  2.320000000000E-01  3.589900000000E-01
     55 F   9 F    -2.320000000000E-01 -4.159000000000E-02 -3.589900000000E-01
     56 F   9 F     2.320000000000E-01  4.159000000000E-02 -3.589900000000E-01
     57 T   9 F    -1.854600000000E-01 -8.007000000000E-02 -1.346300000000E-01
     58 F   9 F     1.854600000000E-01  8.007000000000E-02 -1.346300000000E-01
     59 F   9 F    -8.007000000000E-02  1.854600000000E-01  1.346300000000E-01
     60 F   9 F     8.007000000000E-02 -1.854600000000E-01  1.346300000000E-01
     61 T  30 ZN    5.000000000000E-01  4.432710002438E-17  2.500000000000E-01
     62 T  30 ZN    0.000000000000E+00  0.000000000000E+00  5.000000000000E-01

 T = ATOM BELONGING TO THE ASYMMETRIC UNIT

 ****    4 SYMMOPS - TRANSLATORS IN FRACTIONAL UNITS
 **** MATRICES AND TRANSLATORS IN THE CRYSTALLOGRAPHIC REFERENCE FRAME
   V INV                    ROTATION MATRICES                   TRANSLATORS
   1   1  1.00  0.00  0.00  0.00  1.00  0.00  0.00  0.00  1.00  0.00  0.00  0.00
   2   2  0.00  1.00 -1.00  1.00  0.00 -1.00  0.00  0.00 -1.00  0.00  0.00  0.00
   3   4  0.00 -1.00  0.00  0.00 -1.00  1.00  1.00 -1.00  0.00  0.00  0.00  0.00
   4   3 -1.00  0.00  1.00 -1.00  0.00  0.00 -1.00  1.00  0.00  0.00  0.00  0.00

 DIRECT LATTICE VECTORS CARTESIAN COMPONENTS (ANGSTROM)
          X                    Y                    Z
  -0.530153987460E+01   0.530153987460E+01   0.621026408105E+01
   0.530153987460E+01  -0.530153987460E+01   0.621026408105E+01
   0.530153987460E+01   0.530153987460E+01  -0.621026408105E+01


 CARTESIAN COORDINATES - PRIMITIVE CELL
 *******************************************************************************
 *      ATOM          X(ANGSTROM)         Y(ANGSTROM)         Z(ANGSTROM)
 *******************************************************************************
    1     1 H    -3.457664306214E-01  3.156006687349E+00 -1.327630255247E+00
    2     1 H     3.457664306214E-01 -3.156006687349E+00 -1.327630255247E+00
    3     1 H     3.156006687349E+00  3.457664306214E-01  1.327630255247E+00
    4     1 H    -3.156006687349E+00 -3.457664306214E-01  1.327630255247E+00
    5     1 H    -4.310576041240E+00  2.658192093124E-01 -1.789177081751E+00
    6     1 H     4.310576041240E+00 -2.658192093124E-01 -1.789177081751E+00
    7     1 H     2.658192093124E-01  4.310576041240E+00  1.789177081751E+00
    8     1 H    -2.658192093124E-01 -4.310576041240E+00  1.789177081751E+00
    9     6 C    -2.518337471232E+00  3.195132051624E+00 -1.546107345618E+00
   10     6 C     2.518337471232E+00 -3.195132051624E+00 -1.546107345618E+00
   11     6 C     3.195132051624E+00  2.518337471232E+00  1.546107345618E+00
   12     6 C    -3.195132051624E+00 -2.518337471232E+00  1.546107345618E+00
   13     6 C     2.681306806978E+00 -6.539979589307E-01  4.671857462892E+00
   14     6 C    -2.681306806978E+00  6.539979589307E-01  4.671857462892E+00
   15     6 C    -6.539979589307E-01 -2.681306806978E+00 -4.671857462892E+00
   16     6 C     6.539979589307E-01  2.681306806978E+00 -4.671857462892E+00
   17     6 C    -3.618619056807E+00  2.329284559304E+00 -1.667331700480E+00
   18     6 C     3.618619056807E+00 -2.329284559304E+00 -1.667331700480E+00
   19     6 C     2.329284559304E+00  3.618619056807E+00  1.667331700480E+00
   20     6 C    -2.329284559304E+00 -3.618619056807E+00  1.667331700480E+00
   21     6 C    -2.154015651050E+00  4.791531738663E-01 -1.620257898746E+00
   22     6 C     2.154015651050E+00 -4.791531738663E-01 -1.620257898746E+00
   23     6 C     4.791531738663E-01  2.154015651050E+00  1.620257898746E+00
   24     6 C    -4.791531738663E-01 -2.154015651050E+00  1.620257898746E+00
   25     6 C    -1.260388089787E+00  2.566475453294E+00 -1.449103020672E+00
   26     6 C     1.260388089787E+00 -2.566475453294E+00 -1.449103020672E+00
   27     6 C     2.566475453294E+00  1.260388089787E+00  1.449103020672E+00
   28     6 C    -2.566475453294E+00 -1.260388089787E+00  1.449103020672E+00
   29     6 C     3.468267385963E+00 -9.503540379208E-01 -1.700494510673E+00
   30     6 C    -3.468267385963E+00  9.503540379208E-01 -1.700494510673E+00
   31     6 C    -9.503540379208E-01 -3.468267385963E+00  1.700494510673E+00
   32     6 C     9.503540379208E-01  3.468267385963E+00  1.700494510673E+00
   33     7 N     3.687327013582E+00  1.509878556286E-01  4.248069042001E+00
   34     7 N    -3.687327013582E+00 -1.509878556286E-01  4.248069042001E+00
   35     7 N     1.509878556286E-01 -3.687327013582E+00 -4.248069042001E+00
   36     7 N    -1.509878556286E-01  3.687327013582E+00 -4.248069042001E+00
   37     7 N    -2.004088103396E+00 -3.850614441719E+00 -1.744090564522E+00
   38     7 N     2.004088103396E+00  3.850614441719E+00 -1.744090564522E+00
   39     7 N    -3.850614441719E+00  2.004088103396E+00  1.744090564522E+00
   40     7 N     3.850614441719E+00 -2.004088103396E+00  1.744090564522E+00
   41     7 N     1.674756446386E+00  1.335988048399E-01  5.123343661585E+00
   42     7 N    -1.674756446386E+00 -1.335988048399E-01  5.123343661585E+00
   43     7 N     1.335988048399E-01 -1.674756446386E+00 -5.123343661585E+00
   44     7 N    -1.335988048399E-01  1.674756446386E+00 -5.123343661585E+00
   45     7 N    -3.212627133210E+00 -3.859096905519E+00 -1.226402950726E+00
   46     7 N     3.212627133210E+00  3.859096905519E+00 -1.226402950726E+00
   47     7 N    -3.859096905519E+00  3.212627133210E+00  1.226402950726E+00
   48     7 N     3.859096905519E+00 -3.212627133210E+00  1.226402950726E+00
   49     7 N    -1.080135734051E+00  1.238651776302E+00 -1.497418875223E+00
   50     7 N     1.080135734051E+00 -1.238651776302E+00 -1.497418875223E+00
   51     7 N     1.238651776302E+00  1.080135734051E+00  1.497418875223E+00
   52     7 N    -1.238651776302E+00 -1.080135734051E+00  1.497418875223E+00
   53     9 F     4.409820867692E-01 -2.459914501814E+00  4.458845404912E+00
   54     9 F    -4.409820867692E-01  2.459914501814E+00  4.458845404912E+00
   55     9 F    -2.459914501814E+00 -4.409820867692E-01 -4.458845404912E+00
   56     9 F     2.459914501814E+00  4.409820867692E-01 -4.458845404912E+00
   57     9 F    -1.966447170287E+00 -8.489885955184E-01 -1.672175706464E+00
   58     9 F     1.966447170287E+00  8.489885955184E-01 -1.672175706464E+00
   59     9 F    -8.489885955184E-01  1.966447170287E+00  1.672175706464E+00
   60     9 F     8.489885955184E-01 -1.966447170287E+00  1.672175706464E+00
   61    30 ZN    5.301539874600E+00  4.700037766092E-16 -9.315396121575E+00
   62    30 ZN    0.000000000000E+00  0.000000000000E+00  6.210264081050E+00

 *******************************************************************************
 STARTING BASIS SET HANDLING 
 *******************************************************************************

 Loading internal basis set: POB-DZVPP           

 Please cite in your publication:
 Peintinger, M. F., Oliveira, D. V. and Bredow, T. (2013), Generally applicable 
 solid-state Gaussian basis sets, in preparation                                
                                                                                
                    

 *******************************************************************************
 LOCAL ATOMIC FUNCTIONS BASIS SET
 *******************************************************************************
   ATOM   X(AU)   Y(AU)   Z(AU)  N. TYPE  EXPONENT  S COEF   P COEF   D/F/G COEF
 *******************************************************************************
   1 H   -0.653   5.964  -2.509
                                  1 S  
                                         2.263E+01 1.441E-02 0.000E+00 0.000E+00
                                         3.236E+00 1.072E-01 0.000E+00 0.000E+00
                                         7.304E-01 3.846E-01 0.000E+00 0.000E+00
                                  2 S  
                                         1.417E-01 1.000E+00 0.000E+00 0.000E+00
                           3-     5 P  
                                         3.944E-01 0.000E+00 1.000E+00 0.000E+00
                           6-     8 P  
                                         1.006E-01 0.000E+00 1.000E+00 0.000E+00
   2 H    0.653  -5.964  -2.509
   3 H    5.964   0.653   2.509
   4 H   -5.964  -0.653   2.509
   5 H   -8.146   0.502  -3.381
   6 H    8.146  -0.502  -3.381
   7 H    0.502   8.146   3.381
   8 H   -0.502  -8.146   3.381
   9 C   -4.759   6.038  -2.922
                                 65 S  
                                         1.238E+03 5.457E-03 0.000E+00 0.000E+00
                                         1.863E+02 4.064E-02 0.000E+00 0.000E+00
                                         4.225E+01 1.803E-01 0.000E+00 0.000E+00
                                         1.168E+01 4.632E-01 0.000E+00 0.000E+00
                                         3.593E+00 4.409E-01 0.000E+00 0.000E+00
                                 66 S  
                                         5.281E+00 1.000E+00 0.000E+00 0.000E+00
                                 67 S  
                                         4.447E-01 1.000E+00 0.000E+00 0.000E+00
                          68-    70 P  
                                         9.468E+00 0.000E+00 3.839E-02 0.000E+00
                                         2.010E+00 0.000E+00 2.112E-01 0.000E+00
                                         5.477E-01 0.000E+00 5.133E-01 0.000E+00
                          71-    73 P  
                                         1.604E-01 0.000E+00 1.000E+00 0.000E+00
                          74-    78 D  
                                         6.070E-01 0.000E+00 0.000E+00 1.000E+00
                          79-    83 D  
                                         2.939E-01 0.000E+00 0.000E+00 1.000E+00
  10 C    4.759  -6.038  -2.922
  11 C    6.038   4.759   2.922
  12 C   -6.038  -4.759   2.922
  13 C    5.067  -1.236   8.829
  14 C   -5.067   1.236   8.829
  15 C   -1.236  -5.067  -8.829
  16 C    1.236   5.067  -8.829
  17 C   -6.838   4.402  -3.151
  18 C    6.838  -4.402  -3.151
  19 C    4.402   6.838   3.151
  20 C   -4.402  -6.838   3.151
  21 C   -4.070   0.905  -3.062
  22 C    4.070  -0.905  -3.062
  23 C    0.905   4.070   3.062
  24 C   -0.905  -4.070   3.062
  25 C   -2.382   4.850  -2.738
  26 C    2.382  -4.850  -2.738
  27 C    4.850   2.382   2.738
  28 C   -4.850  -2.382   2.738
  29 C    6.554  -1.796  -3.213
  30 C   -6.554   1.796  -3.213
  31 C   -1.796  -6.554   3.213
  32 C    1.796   6.554   3.213
  33 N    6.968   0.285   8.028
                                521 S  
                                         1.713E+03-5.393E-03 0.000E+00 0.000E+00
                                         2.576E+02-4.022E-02 0.000E+00 0.000E+00
                                         5.846E+01-1.793E-01 0.000E+00 0.000E+00
                                         1.620E+01-4.638E-01 0.000E+00 0.000E+00
                                         5.005E+00-4.417E-01 0.000E+00 0.000E+00
                                522 S  
                                         6.217E-01 1.000E+00 0.000E+00 0.000E+00
                                523 S  
                                         2.921E-01 1.000E+00 0.000E+00 0.000E+00
                         524-   526 P  
                                         1.357E+01 0.000E+00-4.007E-02 0.000E+00
                                         2.926E+00 0.000E+00-2.181E-01 0.000E+00
                                         7.993E-01 0.000E+00-5.129E-01 0.000E+00
                         527-   529 P  
                                         2.244E-01 0.000E+00 1.000E+00 0.000E+00
                         530-   534 D  
                                         3.118E-01 0.000E+00 0.000E+00 1.000E+00
  34 N   -6.968  -0.285   8.028
  35 N    0.285  -6.968  -8.028
  36 N   -0.285   6.968  -8.028
  37 N   -3.787  -7.277  -3.296
  38 N    3.787   7.277  -3.296
  39 N   -7.277   3.787   3.296
  40 N    7.277  -3.787   3.296
  41 N    3.165   0.252   9.682
  42 N   -3.165  -0.252   9.682
  43 N    0.252  -3.165  -9.682
  44 N   -0.252   3.165  -9.682
  45 N   -6.071  -7.293  -2.318
  46 N    6.071   7.293  -2.318
  47 N   -7.293   6.071   2.318
  48 N    7.293  -6.071   2.318
  49 N   -2.041   2.341  -2.830
  50 N    2.041  -2.341  -2.830
  51 N    2.341   2.041   2.830
  52 N   -2.341  -2.041   2.830
  53 F    0.833  -4.649   8.426
                                801 S  
                                         2.895E+03-5.341E-03 0.000E+00 0.000E+00
                                         4.354E+02-3.990E-02 0.000E+00 0.000E+00
                                         9.884E+01-1.791E-01 0.000E+00 0.000E+00
                                         2.749E+01-4.676E-01 0.000E+00 0.000E+00
                                         8.541E+00-4.465E-01 0.000E+00 0.000E+00
                                802 S  
                                         1.123E+00 1.000E+00 0.000E+00 0.000E+00
                                803 S  
                                         3.743E-01 1.000E+00 0.000E+00 0.000E+00
                         804-   806 P  
                                         2.270E+01 0.000E+00-4.521E-02 0.000E+00
                                         4.987E+00 0.000E+00-2.375E-01 0.000E+00
                                         1.349E+00 0.000E+00-5.129E-01 0.000E+00
                         807-   809 P  
                                         3.474E-01 0.000E+00 1.000E+00 0.000E+00
                         810-   814 D  
                                         9.203E-01 0.000E+00 0.000E+00 1.000E+00
                         815-   819 D  
                                         3.977E-01 0.000E+00 0.000E+00 1.000E+00
  54 F   -0.833   4.649   8.426
  55 F   -4.649  -0.833  -8.426
  56 F    4.649   0.833  -8.426
  57 F   -3.716  -1.604  -3.160
  58 F    3.716   1.604  -3.160
  59 F   -1.604   3.716   3.160
  60 F    1.604  -3.716   3.160
  61 ZN  10.018   0.000 -17.604
                                953 S  
                                         8.200E+04 1.421E-03 0.000E+00 0.000E+00
                                         1.231E+04 1.089E-02 0.000E+00 0.000E+00
                                         2.801E+03 5.406E-02 0.000E+00 0.000E+00
                                         7.910E+02 1.885E-01 0.000E+00 0.000E+00
                                         2.576E+02 3.835E-01 0.000E+00 0.000E+00
                                         8.881E+01 2.972E-01 0.000E+00 0.000E+00
                                954 S  
                                         1.719E+02-1.105E-01 0.000E+00 0.000E+00
                                         2.030E+01 6.461E-01 0.000E+00 0.000E+00
                                         8.346E+00 4.422E-01 0.000E+00 0.000E+00
                                955 S  
                                         1.485E+01-2.271E-01 0.000E+00 0.000E+00
                                         2.450E+00 7.243E-01 0.000E+00 0.000E+00
                                         9.985E-01 4.484E-01 0.000E+00 0.000E+00
                                956 S  
                                         1.493E+00 1.000E+00 0.000E+00 0.000E+00
                                957 S  
                                         1.830E-01 1.000E+00 0.000E+00 0.000E+00
                         958-   960 P  
                                         1.072E+03 0.000E+00 9.277E-03 0.000E+00
                                         2.527E+02 0.000E+00 6.954E-02 0.000E+00
                                         8.010E+01 0.000E+00 2.716E-01 0.000E+00
                                         2.890E+01 0.000E+00 5.340E-01 0.000E+00
                                         1.077E+01 0.000E+00 3.450E-01 0.000E+00
                         961-   963 P  
                                         5.645E+00 0.000E+00 3.413E-01 0.000E+00
                                         2.168E+00 0.000E+00 5.639E-01 0.000E+00
                                         8.054E-01 0.000E+00 2.368E-01 0.000E+00
                         964-   966 P  
                                         2.721E-01 0.000E+00 1.000E+00 0.000E+00
                         967-   971 D  
                                         5.609E+01 0.000E+00 0.000E+00 2.959E-02
                                         1.575E+01 0.000E+00 0.000E+00 1.587E-01
                                         5.312E+00 0.000E+00 0.000E+00 3.798E-01
                                         1.774E+00 0.000E+00 0.000E+00 4.690E-01
                         972-   976 D  
                                         5.073E-01 0.000E+00 0.000E+00 1.000E+00
                         977-   983 F  
                                         2.814E+00 0.000E+00 0.000E+00 1.000E+00
                         984-   990 F  
                                         1.300E+00 0.000E+00 0.000E+00 1.000E+00
  62 ZN   0.000   0.000  11.736

 *******************************************************************************
 FINISHED BASIS SET HANDLING 
 *******************************************************************************

 INFORMATION **** SET_MPP **** PCRYSTAL CALCULATION
 INFORMATION **** READM2 **** NEW DEFAULT: FOCK/KS MATRIX MIXING SET TO 30 %
 INFORMATION **** READM2 **** NEW DEFAULT: FULL DIRECT SCF MODE
 INFORMATION **** READM2 **** NEW DEFAULT: COULOMB BIPOLAR BUFFER SET TO 32 Mb
 INFORMATION **** READM2 **** NEW DEFAULT: EXCHANGE BIPOLAR BUFFER SET TO 32 Mb

 *******************************************************************************
 NEW DEFAULT: DFT INTEGRATION GRID INCREASED TO XLGRID
 NEW DEFAULT: DIIS ACCELERATOR ACTIVE
 USE KEYWORD NODIIS TO TURN IT OFF
 *******************************************************************************

 INFORMATION **** DFTD3_INPUT **** PERFORM DISPERSION CORRECTION DFT-D3(BJ) IN THE BECKE-JOHNSON DAMPING SCHEME

 PLEASE CITE:
 (1) DFT-D3 Reference
  S. Grimme, J. Antony, S. Ehrlich, and H. Krieg, J. Chem. Phys. 132 (2010), 154104
 (2) BJ-Damping Reference
  S. Grimme, S. Ehrlich, and L. Goerigk, J. Comput. Chem. 32 (2011), 1456-1465
 (3) General DFT-D Review
  S. Grimme, A. Hansen, J. G. Brandenburg, and C. Bannwarth,
  Chem. Rev. 116 (2016), 5105-5154

 INFORMATION **** TOLINTEG **** COULOMB AND EXCHANGE SERIES TOLERANCES MODIFIED
 INFORMATION **** BIPOSIZE **** COULOMB BIPOLAR BUFFER SET TO   100000000
 INFORMATION **** MAXCYCLE **** MAX NUMBER OF SCF CYCLES SET TO          50
 *******************************************************************************
 N. OF ATOMS PER CELL        62  COULOMB OVERLAP TOL         (T1) 10**  -12
 NUMBER OF SHELLS           400  COULOMB PENETRATION TOL     (T2) 10**  -12
 NUMBER OF AO              1028  EXCHANGE OVERLAP TOL        (T3) 10**   20
 N. OF ELECTRONS PER CELL   424  EXCHANGE PSEUDO OVP (F(G))  (T4) 10**   20
 CORE ELECTRONS PER CELL    140  EXCHANGE PSEUDO OVP (P(G))  (T5) 10**   20
 N. OF SYMMETRY OPERATORS     4  POLE ORDER IN MONO ZONE                  4
 *******************************************************************************
 TYPE OF CALCULATION :  RESTRICTED CLOSED SHELL
 KOHN-SHAM HAMILTONIAN

 (EXCHANGE)[CORRELATION] FUNCTIONAL:(PERDEW-BURKE-ERNZERHOF)[PERDEW-BURKE-ERNZERHOF]


 CAPPA:IS1  3;IS2  3;IS3  3; K PTS MONK NET   6; SYMMOPS:K SPACE   8;G SPACE   4

 *******************************************************************************
 MAX NUMBER OF SCF CYCLES      50  CONVERGENCE ON DELTAP        10**-16
 WEIGHT OF F(I) IN F(I+1)      30% CONVERGENCE ON ENERGY        10**- 6
 SHRINK. FACT.(MONKH.)    3  3  3  NUMBER OF K POINTS IN THE IBZ      6
 SHRINKING FACTOR(GILAT NET)    3  NUMBER OF K POINTS(GILAT NET)      6
 *******************************************************************************
 *** K POINTS COORDINATES (OBLIQUE COORDINATES IN UNITS OF IS =  3)
   1-R(  0  0  0)   2-C(  1  0  0)   3-C(  1  1  0)   4-C(  2  1  0)
   5-C(  2  1  1)   6-C(  2  2  1)

 DIRECT LATTICE VECTORS COMPON. (A.U.)     RECIP. LATTICE VECTORS COMPON. (A.U.) 
        X            Y            Z              X            Y            Z
  -10.0184585   10.0184585   11.7356983      0.0000000    0.3135804    0.2676954
   10.0184585  -10.0184585   11.7356983      0.3135804    0.0000000    0.2676954
   10.0184585   10.0184585  -11.7356983      0.3135804    0.3135804    0.0000000

 DISK SPACE FOR EIGENVECTORS (FTN 10)    11624624 REALS

 SYMMETRY ADAPTION OF THE BLOCH FUNCTIONS ENABLED
 PROCESS           17  OF           24  WORKING
 TTTTTTTTTTTTTTTTTTTTTTTTTTTTTT gordsh1     TELAPSE        6.83 TCPU        0.07

 MATRIX SIZE: P(G) 1806544, F(G)  904250, P(G) IRR  228665, F(G) IRR  228665
 MAX G-VECTOR INDEX FOR 1- AND 2-ELECTRON INTEGRALS  59

 TTTTTTTTTTTTTTTTTTTTTTTTTTTTTT INPUT       TELAPSE        7.59 TCPU        0.83

 NEIGHBORS OF THE NON-EQUIVALENT ATOMS

 N = NUMBER OF NEIGHBORS AT DISTANCE R
    ATOM  N     R/ANG      R/AU   NEIGHBORS (ATOM LABELS AND CELL INDICES)
   1 H    1     1.0949     2.0691   25 C    0 0 0
   1 H    1     2.0602     3.8932   49 N    0 0 0
   1 H    1     2.1839     4.1269    9 C    0 0 0
   1 H    1     2.4855     4.6969   38 N    0 0 0
   1 H    1     2.6992     5.1007   33 N    0-1 0
   1 H    1     2.7281     5.1553   13 C    0-1 0

   5 H    1     1.0890     2.0579   30 C    0 0 0
   5 H    1     2.0520     3.8777    6 H    0-1-1
   5 H    1     2.1737     4.1076   21 C    0 0 0
   5 H    1     2.1798     4.1192   17 C    0 0 0
   5 H    1     2.5984     4.9102   57 F    0 0 0
   5 H    1     2.6341     4.9778   53 F    0-1 0

   9 C    1     1.4053     2.6557   17 C    0 0 0
   9 C    1     1.4096     2.6638   25 C    0 0 0
   9 C    1     1.4560     2.7514   13 C    0-1 0
   9 C    1     2.1839     4.1269    1 H    0 0 0
   9 C    1     2.3776     4.4931   53 F    0-1 0
   9 C    1     2.4287     4.5896   49 N    0 0 0

  13 C    1     1.3555     2.5615   41 N    0 0 0
  13 C    1     1.3563     2.5631   33 N    0 0 0
  13 C    1     1.4560     2.7514    9 C    0 1 0
  13 C    1     2.2008     4.1588   45 N    1 1 1
  13 C    1     2.2029     4.1628   37 N    1 1 1
  13 C    1     2.4876     4.7008   25 C    0 1 0

  17 C    1     1.3461     2.5438   53 F    0-1 0
  17 C    1     1.3875     2.6220   30 C    0 0 0
  17 C    1     1.4053     2.6557    9 C    0 0 0
  17 C    1     2.1798     4.1192    5 H    0 0 0
  17 C    1     2.3601     4.4600   21 C    0 0 0
  17 C    1     2.3802     4.4978   25 C    0 0 0

  21 C    1     1.3210     2.4964   49 N    0 0 0
  21 C    1     1.3423     2.5366   57 F    0 0 0
  21 C    1     1.3985     2.6427   30 C    0 0 0
  21 C    1     2.1737     4.1076    5 H    0 0 0
  21 C    1     2.2770     4.3029   25 C    0 0 0
  21 C    1     2.3601     4.4600   17 C    0 0 0

  25 C    1     1.0949     2.0691    1 H    0 0 0
  25 C    1     1.3409     2.5339   49 N    0 0 0
  25 C    1     1.4096     2.6638    9 C    0 0 0
  25 C    1     2.2770     4.3029   21 C    0 0 0
  25 C    1     2.3802     4.4978   17 C    0 0 0
  25 C    1     2.4876     4.7008   13 C    0-1 0

  29 C    1     1.0890     2.0579    6 H    0 0 0
  29 C    1     1.3875     2.6220   18 C    0 0 0
  29 C    1     1.3985     2.6427   22 C    0 0 0
  29 C    1     2.3439     4.4293   58 F    0 0 0
  29 C    1     2.3490     4.4390   54 F   -1 0 0
  29 C    1     2.4140     4.5619   50 N    0 0 0

  33 N    1     1.3563     2.5631   13 C    0 0 0
  33 N    1     1.3746     2.5975   37 N    1 1 1
  33 N    1     1.9836     3.7485   61 ZN   1 1 0
  33 N    1     2.1827     4.1247   45 N    1 1 1
  33 N    1     2.1947     4.1474   41 N    0 0 0
  33 N    1     2.4671     4.6621    9 C    0 1 0

  37 N    1     1.3148     2.4846   45 N    0 0 0
  37 N    1     1.3746     2.5975   33 N   -1-1-1
  37 N    1     2.1910     4.1403   41 N   -1-1-1
  37 N    1     2.2029     4.1628   13 C   -1-1-1
  37 N    1     2.4855     4.6969    2 H    0 0 0
  37 N    1     2.8238     5.3363   61 ZN   0 0-1

  41 N    1     1.3555     2.5615   13 C    0 0 0
  41 N    1     1.3799     2.6076   45 N    1 1 1
  41 N    1     2.0010     3.7814   62 ZN   0 0 0
  41 N    1     2.1910     4.1403   37 N    1 1 1
  41 N    1     2.1947     4.1474   33 N    0 0 0
  41 N    1     2.5411     4.8020    9 C    0 1 0

  45 N    1     1.3148     2.4846   37 N    0 0 0
  45 N    1     1.3799     2.6076   41 N   -1-1-1
  45 N    1     2.1827     4.1247   33 N   -1-1-1
  45 N    1     2.2008     4.1588   13 C   -1-1-1
  45 N    1     2.7769     5.2476   54 F   -1-1-1
  45 N    1     2.8193     5.3276   62 ZN  -1-1-1

  49 N    1     1.3210     2.4964   21 C    0 0 0
  49 N    1     1.3409     2.5339   25 C    0 0 0
  49 N    1     2.0602     3.8932    1 H    0 0 0
  49 N    1     2.2747     4.2986   57 F    0 0 0
  49 N    1     2.4140     4.5619   30 C    0 0 0
  49 N    1     2.4287     4.5896    9 C    0 0 0

  53 F    1     1.3461     2.5438   17 C    0 1 0
  53 F    1     2.3490     4.4390   30 C    0 1 0
  53 F    1     2.3776     4.4931    9 C    0 1 0
  53 F    1     2.6341     4.9778    5 H    0 1 0
  53 F    1     2.7769     5.2476   46 N    0 0-1
  53 F    1     2.8593     5.4033   60 F    0 0 0

  57 F    1     1.3423     2.5366   21 C    0 0 0
  57 F    1     2.2747     4.2986   49 N    0 0 0
  57 F    1     2.3439     4.4293   30 C    0 0 0
  57 F    1     2.5984     4.9102    5 H    0 0 0
  57 F    1     2.8593     5.4033   55 F    0 0 0
  57 F    1     3.0027     5.6743   37 N    0 0 0

  61 ZN   4     1.9836     3.7485   33 N   -1-1 0   34 N   -1 0 1   35 N    0 0 1
                                    36 N   -1 0 0
  61 ZN   4     2.8076     5.3055    1 H   -1 0 0    2 H    0 0 1    3 H   -1-1 0
                                     4 H   -1 0 1
  61 ZN   4     2.8238     5.3363   37 N    0 0 1   38 N   -1 0 0   39 N   -1 0 1
                                    40 N   -1-1 0
  61 ZN   4     3.1222     5.9001   13 C   -1-1 0   14 C   -1 0 1   15 C    0 0 1
                                    16 C   -1 0 0
  61 ZN   4     3.4368     6.4946   25 C   -1 0 0   26 C    0 0 1   27 C   -1-1 0
                                    28 C   -1 0 1
  61 ZN   4     3.6345     6.8682    9 C   -1 0 0   10 C    0 0 1   11 C   -1-1 0
                                    12 C   -1 0 1

  62 ZN   4     2.0010     3.7814   41 N    0 0 0   42 N    0 0 0   43 N    1 1 0
                                    44 N    1 1 0
  62 ZN   4     2.8193     5.3276   45 N    1 1 1   46 N    0 0-1   47 N    0 1 0
                                    48 N    1 0 0
  62 ZN   4     3.0517     5.7670   53 F    0 0 0   54 F    0 0 0   55 F    1 1 0
                                    56 F    1 1 0
  62 ZN   4     3.1597     5.9710   13 C    0 0 0   14 C    0 0 0   15 C    1 1 0
                                    16 C    1 1 0
  62 ZN   4     3.8009     7.1826   17 C    0 1 0   18 C    1 0 0   19 C    0 0-1
                                    20 C    1 1 1
  62 ZN   4     3.8175     7.2141    9 C    0 1 0   10 C    1 0 0   11 C    0 0-1
                                    12 C    1 1 1


 SYMMETRY ALLOWED INTERNAL DEGREE(S) OF FREEDOM:  45
 TTTTTTTTTTTTTTTTTTTTTTTTTTTTTT SYMM        TELAPSE       10.63 TCPU        3.85
 TTTTTTTTTTTTTTTTTTTTTTTTTTTTTT INT_SCREEN  TELAPSE       10.66 TCPU        3.89
 INFORMATION **** EXCBUF **** EXCH. BIPO BUFFER: WORDS USED =           0

 DFT PARAMETERS

     ATOM       ELECTRONS   NET CHARGE   R(ANGSTROM)
   1   1  H       1.0000      0.0000     1.11000000
   9   6  C       6.0000      0.0000     0.77000000
  33   7  N       7.0000      0.0000     0.74000000
  53   9  F       9.0000      0.0000     0.72000000
  61  30  ZN     30.0000      0.0000     1.37000000

 SIZE OF GRID=     475595
 TTTTTTTTTTTTTTTTTTTTTTTTTTTTTT MAKE_GRID2  TELAPSE       16.38 TCPU        9.56
 BECKE WEIGHT FUNCTION
 RADSAFE =     2.00
 TOLERANCES - DENSITY:10**- 6; POTENTIAL:10**- 9; GRID WGT:10**-14

 RADIAL INTEGRATION  - INTERVALS (POINTS,UPPER LIMIT):            1( 75,  4.0*R)

 ANGULAR INTEGRATION - INTERVALS (ACCURACY LEVEL [N. POINTS] UPPER LIMIT):
  1(  4[  86]   0.2)  2(  8[ 194]   0.5)  3( 12[ 350]   0.9)  4( 16[ 974]   3.5)
  5( 12[ 350]9999.0)
 TTTTTTTTTTTTTTTTTTTTTTTTTTTTTT INT_CALC    TELAPSE       16.51 TCPU        9.68
 EEEEEEEEEE INT_CALC TERMINATION  DATE 29 11 2023 TIME 04:37:01.9

 *******************************************************************************
 Z:\home\sanoj\Downloads\tmp_p\newconn.mol                                       
 CRYSTAL - SCF - TYPE OF CALCULATION :  RESTRICTED CLOSED SHELL
 *******************************************************************************

 CAPPA:IS1  3;IS2  3;IS3  3; K PTS MONK NET   6; SYMMOPS:K SPACE   8;G SPACE   4

 TTTTTTTTTTTTTTTTTTTTTTTTTTTTTT SDIK        TELAPSE       16.76 TCPU        9.93

 AAAAAAAAAAAAAAAAAAAAAAAAAAAAAAAAAAAAAAAAAAAAAAAAAAAAAAAAAAAAAAAAAAAAAAAAAAAAAAA
         ATOMIC WAVEFUNCTION(S)


 NUCLEAR CHARGE  1.0  SYMMETRY SPECIES            S
 N. ELECTRONS    1.0  NUMBER OF PRIMITIVE GTOS    4
                      NUMBER OF CONTRACTED GTOS   2
                      NUMBER OF CLOSED SHELLS     0
                      OPEN SHELL OCCUPATION       1

  ZNUC SCFIT  TOTAL HF ENERGY   KINETIC ENERGY   VIRIAL THEOREM ACCURACY
   1.0   1   -4.946643675E-01  4.917913167E-01 -2.005842012E+00  9.4E-17

 NUCLEAR CHARGE  6.0  SYMMETRY SPECIES            S    P
 N. ELECTRONS    6.0  NUMBER OF PRIMITIVE GTOS    7    4
                      NUMBER OF CONTRACTED GTOS   3    2
                      NUMBER OF CLOSED SHELLS     2    0
                      OPEN SHELL OCCUPATION       0    2

  ZNUC SCFIT  TOTAL HF ENERGY   KINETIC ENERGY   VIRIAL THEOREM ACCURACY
   6.0   6   -3.750912652E+01  3.905246519E+01 -1.960480378E+00  3.7E-06

 NUCLEAR CHARGE  7.0  SYMMETRY SPECIES            S    P
 N. ELECTRONS    7.0  NUMBER OF PRIMITIVE GTOS    7    4
                      NUMBER OF CONTRACTED GTOS   3    2
                      NUMBER OF CLOSED SHELLS     2    0
                      OPEN SHELL OCCUPATION       0    3

  ZNUC SCFIT  TOTAL HF ENERGY   KINETIC ENERGY   VIRIAL THEOREM ACCURACY
   7.0   9   -5.432196661E+01  5.425066284E+01 -2.001314339E+00  1.2E-06

 NUCLEAR CHARGE  9.0  SYMMETRY SPECIES            S    P
 N. ELECTRONS    9.0  NUMBER OF PRIMITIVE GTOS    7    4
                      NUMBER OF CONTRACTED GTOS   3    2
                      NUMBER OF CLOSED SHELLS     2    0
                      OPEN SHELL OCCUPATION       0    5

  ZNUC SCFIT  TOTAL HF ENERGY   KINETIC ENERGY   VIRIAL THEOREM ACCURACY
   9.0  14   -9.927886620E+01  9.927374065E+01 -2.000051630E+00  4.0E-06

 NUCLEAR CHARGE 30.0  SYMMETRY SPECIES            S    P    D
 N. ELECTRONS   30.0  NUMBER OF PRIMITIVE GTOS   14    9    5
                      NUMBER OF CONTRACTED GTOS   5    3    2
                      NUMBER OF CLOSED SHELLS     4    2    1
                      OPEN SHELL OCCUPATION       0    0    0

  ZNUC SCFIT  TOTAL HF ENERGY   KINETIC ENERGY   VIRIAL THEOREM ACCURACY
  30.0  10   -1.777404290E+03  1.777325716E+03 -2.000044209E+00  2.5E-06

 AAAAAAAAAAAAAAAAAAAAAAAAAAAAAAAAAAAAAAAAAAAAAAAAAAAAAAAAAAAAAAAAAAAAAAAAAAAAAAA

 TOTAL ATOMIC CHARGES:
   1.0000000   1.0000000   1.0000000   1.0000000   1.0000000   1.0000000
   1.0000000   1.0000000   6.0000000   6.0000000   6.0000000   6.0000000
   6.0000000   6.0000000   6.0000000   6.0000000   6.0000000   6.0000000
   6.0000000   6.0000000   6.0000000   6.0000000   6.0000000   6.0000000
   6.0000000   6.0000000   6.0000000   6.0000000   6.0000000   6.0000000
   6.0000000   6.0000000   7.0000000   7.0000000   7.0000000   7.0000000
   7.0000000   7.0000000   7.0000000   7.0000000   7.0000000   7.0000000
   7.0000000   7.0000000   7.0000000   7.0000000   7.0000000   7.0000000
   7.0000000   7.0000000   7.0000000   7.0000000   9.0000000   9.0000000
   9.0000000   9.0000000   9.0000000   9.0000000   9.0000000   9.0000000
  30.0000000  30.0000000
 TTTTTTTTTTTTTTTTTTTTTTTTTTTTTT MOQGAD      TELAPSE       18.48 TCPU       11.64
 TTTTTTTTTTTTTTTTTTTTTTTTTTTTTT SHELLXN     TELAPSE       85.14 TCPU       77.73
 TTTTTTTTTTTTTTTTTTTTTTTTTTTTTT MONMO3      TELAPSE       88.97 TCPU       81.54
 NUMERICALLY INTEGRATED DENSITY    424.0001676162
 TTTTTTTTTTTTTTTTTTTTTTTTTTTTTT NUMDFT      TELAPSE       91.29 TCPU       83.85
 CYC   0 ETOT(AU) -6.370050038809E+03 DETOT -6.37E+03 tst  0.00E+00 PX  1.00E+00
 TTTTTTTTTTTTTTTTTTTTTTTTTTTTTT DIIS        TELAPSE       91.38 TCPU       83.94
 TTTTTTTTTTTTTTTTTTTTTTTTTTTTTT FDIK        TELAPSE      125.19 TCPU      116.84
 INSULATING STATE
 TOP OF VALENCE BANDS -    BAND    212; K    4; EIG -1.3193172E-01 AU
 TOP OF VALENCE BANDS -    BAND    212; K    1; EIG -1.3208977E-01 AU
 BOTTOM OF VIRTUAL BANDS - BAND    213; K    3; EIG -9.1416927E-02 AU
 INDIRECT ENERGY BAND GAP:   1.1025 eV
 BOTTOM OF VIRTUAL BANDS - BAND    213; K    1; EIG -8.8050175E-02 AU
 TTTTTTTTTTTTTTTTTTTTTTTTTTTTTT PDIG        TELAPSE      125.79 TCPU      117.44
 TOTAL ATOMIC CHARGES:
   1.3556858   1.3556858   1.3556858   1.3556858   1.2033223   1.2033223
   1.2033223   1.2033223   6.2068595   6.2068595   6.2068595   6.2068595
   5.4960117   5.4960117   5.4960117   5.4960117   5.2617913   5.2617913
   5.2617913   5.2617913   5.0648104   5.0648104   5.0648104   5.0648104
   5.8032882   5.8032882   5.8032882   5.8032882   6.3035829   6.3035829
   6.3035829   6.3035829   7.3986178   7.3986178   7.3986178   7.3986178
   7.1887610   7.1887610   7.1887610   7.1887610   7.4204112   7.4204112
   7.4204112   7.4204112   7.1887132   7.1887132   7.1887132   7.1887132
   7.5986014   7.5986014   7.5986014   7.5986014   9.2848779   9.2848779
   9.2848779   9.2848779   9.2817145   9.2817145   9.2817145   9.2817145
  27.8045693  27.9672346
 TTTTTTTTTTTTTTTTTTTTTTTTTTTTTT MOQGAD      TELAPSE      125.84 TCPU      117.49
 TTTTTTTTTTTTTTTTTTTTTTTTTTTTTT SHELLXN     TELAPSE      203.53 TCPU      194.69
 TTTTTTTTTTTTTTTTTTTTTTTTTTTTTT MONMO3      TELAPSE      207.91 TCPU      199.05
 NUMERICALLY INTEGRATED DENSITY    424.0000797444
 TTTTTTTTTTTTTTTTTTTTTTTTTTTTTT NUMDFT      TELAPSE      214.45 TCPU      205.54
 CYC   1 ETOT(AU) -6.364205800775E+03 DETOT  5.84E+00 tst  0.00E+00 PX  1.00E+00
 TTTTTTTTTTTTTTTTTTTTTTTTTTTTTT DIIS        TELAPSE      214.85 TCPU      205.94
 DIIS TEST: 0.12775E+02 AT SCF   CYCLE   1 - MIX   30 %
 TTTTTTTTTTTTTTTTTTTTTTTTTTTTTT FDIK        TELAPSE      226.86 TCPU      217.81
 INSULATING STATE
 TOP OF VALENCE BANDS -    BAND    212; K    6; EIG -1.4218357E-01 AU
 TOP OF VALENCE BANDS -    BAND    212; K    1; EIG -1.4239490E-01 AU
 BOTTOM OF VIRTUAL BANDS - BAND    213; K    6; EIG -1.1807857E-01 AU
 DIRECT ENERGY BAND GAP:   0.6559 eV
 BOTTOM OF VIRTUAL BANDS - BAND    213; K    1; EIG -1.1307715E-01 AU
 TTTTTTTTTTTTTTTTTTTTTTTTTTTTTT PDIG        TELAPSE      227.45 TCPU      218.40
 TOTAL ATOMIC CHARGES:
   1.3470724   1.3470724   1.3470724   1.3470724   1.1651008   1.1651008
   1.1651008   1.1651008   6.1060786   6.1060786   6.1060786   6.1060786
   6.2437509   6.2437509   6.2437509   6.2437509   6.3050448   6.3050448
   6.3050448   6.3050448   6.2458671   6.2458671   6.2458671   6.2458671
   6.1888407   6.1888407   6.1888407   6.1888407   5.8620627   5.8620627
   5.8620627   5.8620627   6.9756391   6.9756391   6.9756391   6.9756391
   6.8475265   6.8475265   6.8475265   6.8475265   6.9142232   6.9142232
   6.9142232   6.9142232   6.8585016   6.8585016   6.8585016   6.8585016
   6.0420968   6.0420968   6.0420968   6.0420968   9.0461245   9.0461245
   9.0461245   9.0461245   8.9976770   8.9976770   8.9976770   8.9976770
  29.8091639  29.6084096
 TTTTTTTTTTTTTTTTTTTTTTTTTTTTTT MOQGAD      TELAPSE      227.50 TCPU      218.45
 TTTTTTTTTTTTTTTTTTTTTTTTTTTTTT SHELLXN     TELAPSE      305.28 TCPU      295.61
 TTTTTTTTTTTTTTTTTTTTTTTTTTTTTT MONMO3      TELAPSE      309.75 TCPU      300.06
 NUMERICALLY INTEGRATED DENSITY    424.0000753362
 TTTTTTTTTTTTTTTTTTTTTTTTTTTTTT NUMDFT      TELAPSE      316.28 TCPU      306.55
 CYC   2 ETOT(AU) -6.363190921805E+03 DETOT  1.01E+00 tst  5.39E-02 PX  7.53E-01
 TTTTTTTTTTTTTTTTTTTTTTTTTTTTTT DIIS        TELAPSE      316.65 TCPU      306.92
 DIIS TEST: 0.17580E+02 AT SCF   CYCLE   2 - DIIS ACTIVE - HISTORY:     2 CYCLES
 TTTTTTTTTTTTTTTTTTTTTTTTTTTTTT FDIK        TELAPSE      328.63 TCPU      318.80
 INSULATING STATE
 TOP OF VALENCE BANDS -    BAND    212; K    1; EIG -2.4900125E-01 AU
 BOTTOM OF VIRTUAL BANDS - BAND    213; K    6; EIG -1.1312183E-01 AU
 INDIRECT ENERGY BAND GAP:   3.6975 eV
 BOTTOM OF VIRTUAL BANDS - BAND    213; K    1; EIG -1.1193066E-01 AU
 TTTTTTTTTTTTTTTTTTTTTTTTTTTTTT PDIG        TELAPSE      329.23 TCPU      319.39
 TOTAL ATOMIC CHARGES:
   1.2732089   1.2732089   1.2732089   1.2732089   1.1413587   1.1413587
   1.1413587   1.1413587   5.8975205   5.8975205   5.8975205   5.8975205
   5.7814139   5.7814139   5.7814139   5.7814139   5.5830561   5.5830561
   5.5830561   5.5830561   5.7079718   5.7079718   5.7079718   5.7079718
   5.9985200   5.9985200   5.9985200   5.9985200   5.9713910   5.9713910
   5.9713910   5.9713910   7.0584352   7.0584352   7.0584352   7.0584352
   7.1337742   7.1337742   7.1337742   7.1337742   7.1006209   7.1006209
   7.1006209   7.1006209   7.1093338   7.1093338   7.1093338   7.1093338
   7.4240650   7.4240650   7.4240650   7.4240650   9.1525715   9.1525715
   9.1525715   9.1525715   9.1199853   9.1199853   9.1199853   9.1199853
  29.1191541  29.0679376
 TTTTTTTTTTTTTTTTTTTTTTTTTTTTTT MOQGAD      TELAPSE      329.27 TCPU      319.44
 TTTTTTTTTTTTTTTTTTTTTTTTTTTTTT SHELLXN     TELAPSE      406.60 TCPU      396.35
 TTTTTTTTTTTTTTTTTTTTTTTTTTTTTT MONMO3      TELAPSE      412.75 TCPU      402.48
 NUMERICALLY INTEGRATED DENSITY    424.0000778995
 TTTTTTTTTTTTTTTTTTTTTTTTTTTTTT NUMDFT      TELAPSE      419.36 TCPU      409.05
 CYC   3 ETOT(AU) -6.365985171936E+03 DETOT -2.79E+00 tst  9.82E-03 PX  6.41E-01
 TTTTTTTTTTTTTTTTTTTTTTTTTTTTTT DIIS        TELAPSE      419.53 TCPU      409.22
 DIIS TEST: 0.26413E+01 AT SCF   CYCLE   3 - DIIS ACTIVE - HISTORY:     3 CYCLES
 TTTTTTTTTTTTTTTTTTTTTTTTTTTTTT FDIK        TELAPSE      432.64 TCPU      421.12
 INSULATING STATE
 TOP OF VALENCE BANDS -    BAND    212; K    6; EIG -2.2330761E-01 AU
 TOP OF VALENCE BANDS -    BAND    212; K    1; EIG -2.2345331E-01 AU
 BOTTOM OF VIRTUAL BANDS - BAND    213; K    6; EIG -1.1438550E-01 AU
 DIRECT ENERGY BAND GAP:   2.9639 eV
 BOTTOM OF VIRTUAL BANDS - BAND    213; K    1; EIG -1.1064846E-01 AU
 TTTTTTTTTTTTTTTTTTTTTTTTTTTTTT PDIG        TELAPSE      433.22 TCPU      421.70
 TOTAL ATOMIC CHARGES:
   1.2969731   1.2969731   1.2969731   1.2969731   1.1551272   1.1551272
   1.1551272   1.1551272   6.1771710   6.1771710   6.1771710   6.1771710
   5.7968082   5.7968082   5.7968082   5.7968082   5.7319797   5.7319797
   5.7319797   5.7319797   5.4866793   5.4866793   5.4866793   5.4866793
   5.9236825   5.9236825   5.9236825   5.9236825   6.1793186   6.1793186
   6.1793186   6.1793186   7.2218002   7.2218002   7.2218002   7.2218002
   7.0447796   7.0447796   7.0447796   7.0447796   7.2045276   7.2045276
   7.2045276   7.2045276   7.0709009   7.0709009   7.0709009   7.0709009
   6.9526446   6.9526446   6.9526446   6.9526446   9.1863333   9.1863333
   9.1863333   9.1863333   9.1649482   9.1649482   9.1649482   9.1649482
  28.8007271  28.8245768
 TTTTTTTTTTTTTTTTTTTTTTTTTTTTTT MOQGAD      TELAPSE      433.27 TCPU      421.75
 TTTTTTTTTTTTTTTTTTTTTTTTTTTTTT SHELLXN     TELAPSE      517.09 TCPU      498.91
 TTTTTTTTTTTTTTTTTTTTTTTTTTTTTT MONMO3      TELAPSE      521.61 TCPU      503.42
 NUMERICALLY INTEGRATED DENSITY    424.0000752152
 TTTTTTTTTTTTTTTTTTTTTTTTTTTTTT NUMDFT      TELAPSE      528.17 TCPU      509.94
 CYC   4 ETOT(AU) -6.366227531080E+03 DETOT -2.42E-01 tst  3.20E-03 PX  1.45E-01
 TTTTTTTTTTTTTTTTTTTTTTTTTTTTTT DIIS        TELAPSE      529.06 TCPU      510.84
 DIIS TEST: 0.83661E+00 AT SCF   CYCLE   4 - DIIS ACTIVE - HISTORY:     4 CYCLES
 TTTTTTTTTTTTTTTTTTTTTTTTTTTTTT FDIK        TELAPSE      542.37 TCPU      521.72
 INSULATING STATE
 TOP OF VALENCE BANDS -    BAND    212; K    6; EIG -2.4801880E-01 AU
 TOP OF VALENCE BANDS -    BAND    212; K    1; EIG -2.4855767E-01 AU
 BOTTOM OF VIRTUAL BANDS - BAND    213; K    6; EIG -1.1585020E-01 AU
 DIRECT ENERGY BAND GAP:   3.5965 eV
 BOTTOM OF VIRTUAL BANDS - BAND    213; K    1; EIG -1.1423965E-01 AU
 TTTTTTTTTTTTTTTTTTTTTTTTTTTTTT PDIG        TELAPSE      542.95 TCPU      522.30
 TOTAL ATOMIC CHARGES:
   1.2874740   1.2874740   1.2874740   1.2874740   1.1493107   1.1493107
   1.1493107   1.1493107   6.0928453   6.0928453   6.0928453   6.0928453
   5.8173896   5.8173896   5.8173896   5.8173896   5.7044760   5.7044760
   5.7044760   5.7044760   5.6156865   5.6156865   5.6156865   5.6156865
   5.9987480   5.9987480   5.9987480   5.9987480   6.0989602   6.0989602
   6.0989602   6.0989602   7.1743634   7.1743634   7.1743634   7.1743634
   7.0853168   7.0853168   7.0853168   7.0853168   7.1211589   7.1211589
   7.1211589   7.1211589   7.0553344   7.0553344   7.0553344   7.0553344
   7.0586892   7.0586892   7.0586892   7.0586892   9.1617394   9.1617394
   9.1617394   9.1617394   9.1431799   9.1431799   9.1431799   9.1431799
  28.8797757  28.8615351
 TTTTTTTTTTTTTTTTTTTTTTTTTTTTTT MOQGAD      TELAPSE      543.00 TCPU      522.35
 TTTTTTTTTTTTTTTTTTTTTTTTTTTTTT SHELLXN     TELAPSE      623.61 TCPU      599.61
 TTTTTTTTTTTTTTTTTTTTTTTTTTTTTT MONMO3      TELAPSE      628.14 TCPU      604.12
 NUMERICALLY INTEGRATED DENSITY    424.0000778251
 TTTTTTTTTTTTTTTTTTTTTTTTTTTTTT NUMDFT      TELAPSE      634.74 TCPU      610.69
 CYC   5 ETOT(AU) -6.366349963786E+03 DETOT -1.22E-01 tst  6.28E-04 PX  1.20E-01
 TTTTTTTTTTTTTTTTTTTTTTTTTTTTTT DIIS        TELAPSE      635.06 TCPU      611.00
 DIIS TEST: 0.43880E-01 AT SCF   CYCLE   5 - DIIS ACTIVE - HISTORY:     5 CYCLES
 TTTTTTTTTTTTTTTTTTTTTTTTTTTTTT FDIK        TELAPSE      644.90 TCPU      620.75
 INSULATING STATE
 TOP OF VALENCE BANDS -    BAND    212; K    6; EIG -2.4562280E-01 AU
 TOP OF VALENCE BANDS -    BAND    212; K    1; EIG -2.4603637E-01 AU
 BOTTOM OF VIRTUAL BANDS - BAND    213; K    6; EIG -1.1448984E-01 AU
 DIRECT ENERGY BAND GAP:   3.5683 eV
 BOTTOM OF VIRTUAL BANDS - BAND    213; K    1; EIG -1.1249348E-01 AU
 TTTTTTTTTTTTTTTTTTTTTTTTTTTTTT PDIG        TELAPSE      645.48 TCPU      621.34
 TOTAL ATOMIC CHARGES:
   1.2898406   1.2898406   1.2898406   1.2898406   1.1520189   1.1520189
   1.1520189   1.1520189   6.0812952   6.0812952   6.0812952   6.0812952
   5.8134987   5.8134987   5.8134987   5.8134987   5.7305740   5.7305740
   5.7305740   5.7305740   5.6177001   5.6177001   5.6177001   5.6177001
   5.9584294   5.9584294   5.9584294   5.9584294   6.0802467   6.0802467
   6.0802467   6.0802467   7.1263263   7.1263263   7.1263263   7.1263263
   7.0348563   7.0348563   7.0348563   7.0348563   7.1945711   7.1945711
   7.1945711   7.1945711   7.1021905   7.1021905   7.1021905   7.1021905
   7.0719966   7.0719966   7.0719966   7.0719966   9.1686053   9.1686053
   9.1686053   9.1686053   9.1357033   9.1357033   9.1357033   9.1357033
  28.8812942  28.8872943
 TTTTTTTTTTTTTTTTTTTTTTTTTTTTTT MOQGAD      TELAPSE      645.53 TCPU      621.38
 TTTTTTTTTTTTTTTTTTTTTTTTTTTTTT SHELLXN     TELAPSE      722.79 TCPU      698.23
 TTTTTTTTTTTTTTTTTTTTTTTTTTTTTT MONMO3      TELAPSE      729.47 TCPU      704.88
 NUMERICALLY INTEGRATED DENSITY    424.0000764204
 TTTTTTTTTTTTTTTTTTTTTTTTTTTTTT NUMDFT      TELAPSE      736.06 TCPU      711.45
 CYC   6 ETOT(AU) -6.366346314297E+03 DETOT  3.65E-03 tst  8.46E-05 PX  2.16E-02
 TTTTTTTTTTTTTTTTTTTTTTTTTTTTTT DIIS        TELAPSE      736.36 TCPU      711.74
 DIIS TEST: 0.68529E-01 AT SCF   CYCLE   6 - DIIS ACTIVE - HISTORY:     6 CYCLES
 TTTTTTTTTTTTTTTTTTTTTTTTTTTTTT FDIK        TELAPSE      746.67 TCPU      721.65
 INSULATING STATE
 TOP OF VALENCE BANDS -    BAND    212; K    6; EIG -2.4526156E-01 AU
 TOP OF VALENCE BANDS -    BAND    212; K    1; EIG -2.4565344E-01 AU
 BOTTOM OF VIRTUAL BANDS - BAND    213; K    6; EIG -1.1526436E-01 AU
 DIRECT ENERGY BAND GAP:   3.5374 eV
 BOTTOM OF VIRTUAL BANDS - BAND    213; K    1; EIG -1.1260540E-01 AU
 TTTTTTTTTTTTTTTTTTTTTTTTTTTTTT PDIG        TELAPSE      747.26 TCPU      722.23
 TOTAL ATOMIC CHARGES:
   1.2891973   1.2891973   1.2891973   1.2891973   1.1518275   1.1518275
   1.1518275   1.1518275   6.0799620   6.0799620   6.0799620   6.0799620
   5.8169221   5.8169221   5.8169221   5.8169221   5.7216977   5.7216977
   5.7216977   5.7216977   5.6135957   5.6135957   5.6135957   5.6135957
   5.9731136   5.9731136   5.9731136   5.9731136   6.0802509   6.0802509
   6.0802509   6.0802509   7.1725399   7.1725399   7.1725399   7.1725399
   7.0773657   7.0773657   7.0773657   7.0773657   7.1450503   7.1450503
   7.1450503   7.1450503   7.0634591   7.0634591   7.0634591   7.0634591
   7.0691082   7.0691082   7.0691082   7.0691082   9.1639257   9.1639257
   9.1639257   9.1639257   9.1375017   9.1375017   9.1375017   9.1375017
  28.8903683  28.8875630
 TTTTTTTTTTTTTTTTTTTTTTTTTTTTTT MOQGAD      TELAPSE      747.30 TCPU      722.28
 TTTTTTTTTTTTTTTTTTTTTTTTTTTTTT SHELLXN     TELAPSE      824.57 TCPU      799.22
 TTTTTTTTTTTTTTTTTTTTTTTTTTTTTT MONMO3      TELAPSE      829.27 TCPU      803.91
 NUMERICALLY INTEGRATED DENSITY    424.0000765364
 TTTTTTTTTTTTTTTTTTTTTTTTTTTTTT NUMDFT      TELAPSE      835.82 TCPU      810.43
 CYC   7 ETOT(AU) -6.366355497129E+03 DETOT -9.18E-03 tst  3.69E-05 PX  1.49E-02
 TTTTTTTTTTTTTTTTTTTTTTTTTTTTTT DIIS        TELAPSE      835.98 TCPU      810.60
 DIIS TEST: 0.54707E-02 AT SCF   CYCLE   7 - DIIS ACTIVE - HISTORY:     7 CYCLES
 TTTTTTTTTTTTTTTTTTTTTTTTTTTTTT FDIK        TELAPSE      846.50 TCPU      821.03
 INSULATING STATE
 TOP OF VALENCE BANDS -    BAND    212; K    6; EIG -2.4578061E-01 AU
 TOP OF VALENCE BANDS -    BAND    212; K    1; EIG -2.4620271E-01 AU
 BOTTOM OF VIRTUAL BANDS - BAND    213; K    6; EIG -1.1529034E-01 AU
 DIRECT ENERGY BAND GAP:   3.5508 eV
 BOTTOM OF VIRTUAL BANDS - BAND    213; K    1; EIG -1.1319653E-01 AU
 TTTTTTTTTTTTTTTTTTTTTTTTTTTTTT PDIG        TELAPSE      847.09 TCPU      821.61
 TOTAL ATOMIC CHARGES:
   1.2864706   1.2864706   1.2864706   1.2864706   1.1494403   1.1494403
   1.1494403   1.1494403   6.0818500   6.0818500   6.0818500   6.0818500
   5.8169806   5.8169806   5.8169806   5.8169806   5.7131412   5.7131412
   5.7131412   5.7131412   5.6167142   5.6167142   5.6167142   5.6167142
   5.9822102   5.9822102   5.9822102   5.9822102   6.0904263   6.0904263
   6.0904263   6.0904263   7.1555820   7.1555820   7.1555820   7.1555820
   7.0650618   7.0650618   7.0650618   7.0650618   7.1497247   7.1497247
   7.1497247   7.1497247   7.0771397   7.0771397   7.0771397   7.0771397
   7.0647598   7.0647598   7.0647598   7.0647598   9.1648308   9.1648308
   9.1648308   9.1648308   9.1404886   9.1404886   9.1404886   9.1404886
  28.8947294  28.8859868
 TTTTTTTTTTTTTTTTTTTTTTTTTTTTTT MOQGAD      TELAPSE      847.13 TCPU      821.66
 TTTTTTTTTTTTTTTTTTTTTTTTTTTTTT SHELLXN     TELAPSE      924.60 TCPU      898.56
 TTTTTTTTTTTTTTTTTTTTTTTTTTTTTT MONMO3      TELAPSE      929.39 TCPU      903.33
 NUMERICALLY INTEGRATED DENSITY    424.0000767582
 TTTTTTTTTTTTTTTTTTTTTTTTTTTTTT NUMDFT      TELAPSE      935.98 TCPU      909.90
 CYC   8 ETOT(AU) -6.366356129801E+03 DETOT -6.33E-04 tst  4.05E-06 PX  5.46E-03
 TTTTTTTTTTTTTTTTTTTTTTTTTTTTTT DIIS        TELAPSE      936.18 TCPU      910.10
 DIIS TEST: 0.95044E-03 AT SCF   CYCLE   8 - DIIS ACTIVE - HISTORY:     8 CYCLES
 TTTTTTTTTTTTTTTTTTTTTTTTTTTTTT FDIK        TELAPSE      946.74 TCPU      919.80
 INSULATING STATE
 TOP OF VALENCE BANDS -    BAND    212; K    6; EIG -2.4618201E-01 AU
 TOP OF VALENCE BANDS -    BAND    212; K    1; EIG -2.4661624E-01 AU
 BOTTOM OF VIRTUAL BANDS - BAND    213; K    6; EIG -1.1536210E-01 AU
 DIRECT ENERGY BAND GAP:   3.5598 eV
 BOTTOM OF VIRTUAL BANDS - BAND    213; K    1; EIG -1.1304906E-01 AU
 TTTTTTTTTTTTTTTTTTTTTTTTTTTTTT PDIG        TELAPSE      947.33 TCPU      920.39
 TOTAL ATOMIC CHARGES:
   1.2867672   1.2867672   1.2867672   1.2867672   1.1502106   1.1502106
   1.1502106   1.1502106   6.0846104   6.0846104   6.0846104   6.0846104
   5.8117832   5.8117832   5.8117832   5.8117832   5.7178956   5.7178956
   5.7178956   5.7178956   5.6126168   5.6126168   5.6126168   5.6126168
   5.9744155   5.9744155   5.9744155   5.9744155   6.0853236   6.0853236
   6.0853236   6.0853236   7.1654699   7.1654699   7.1654699   7.1654699
   7.0674031   7.0674031   7.0674031   7.0674031   7.1556598   7.1556598
   7.1556598   7.1556598   7.0659289   7.0659289   7.0659289   7.0659289
   7.0715240   7.0715240   7.0715240   7.0715240   9.1661245   9.1661245
   9.1661245   9.1661245   9.1389555   9.1389555   9.1389555   9.1389555
  28.8940270  28.8872189
 TTTTTTTTTTTTTTTTTTTTTTTTTTTTTT MOQGAD      TELAPSE      947.37 TCPU      920.43
 TTTTTTTTTTTTTTTTTTTTTTTTTTTTTT SHELLXN     TELAPSE     1026.94 TCPU      997.46
 TTTTTTTTTTTTTTTTTTTTTTTTTTTTTT MONMO3      TELAPSE     1031.27 TCPU     1001.77
 NUMERICALLY INTEGRATED DENSITY    424.0000766665
 TTTTTTTTTTTTTTTTTTTTTTTTTTTTTT NUMDFT      TELAPSE     1037.80 TCPU     1008.29
 CYC   9 ETOT(AU) -6.366356185986E+03 DETOT -5.62E-05 tst  1.53E-06 PX  3.15E-03
 TTTTTTTTTTTTTTTTTTTTTTTTTTTTTT DIIS        TELAPSE     1038.26 TCPU     1008.75
 DIIS TEST: 0.59056E-03 AT SCF   CYCLE   9 - DIIS ACTIVE - HISTORY:     9 CYCLES
 TTTTTTTTTTTTTTTTTTTTTTTTTTTTTT FDIK        TELAPSE     1049.83 TCPU     1020.22
 INSULATING STATE
 TOP OF VALENCE BANDS -    BAND    212; K    6; EIG -2.4583972E-01 AU
 TOP OF VALENCE BANDS -    BAND    212; K    1; EIG -2.4625515E-01 AU
 BOTTOM OF VIRTUAL BANDS - BAND    213; K    6; EIG -1.1527054E-01 AU
 DIRECT ENERGY BAND GAP:   3.5530 eV
 BOTTOM OF VIRTUAL BANDS - BAND    213; K    1; EIG -1.1298093E-01 AU
 TTTTTTTTTTTTTTTTTTTTTTTTTTTTTT PDIG        TELAPSE     1050.42 TCPU     1020.81
 TOTAL ATOMIC CHARGES:
   1.2870033   1.2870033   1.2870033   1.2870033   1.1503939   1.1503939
   1.1503939   1.1503939   6.0818661   6.0818661   6.0818661   6.0818661
   5.8153638   5.8153638   5.8153638   5.8153638   5.7182148   5.7182148
   5.7182148   5.7182148   5.6150570   5.6150570   5.6150570   5.6150570
   5.9765157   5.9765157   5.9765157   5.9765157   6.0857597   6.0857597
   6.0857597   6.0857597   7.1605563   7.1605563   7.1605563   7.1605563
   7.0687374   7.0687374   7.0687374   7.0687374   7.1495265   7.1495265
   7.1495265   7.1495265   7.0736841   7.0736841   7.0736841   7.0736841
   7.0682293   7.0682293   7.0682293   7.0682293   9.1650072   9.1650072
   9.1650072   9.1650072   9.1392732   9.1392732   9.1392732   9.1392732
  28.8927920  28.8864547
 TTTTTTTTTTTTTTTTTTTTTTTTTTTTTT MOQGAD      TELAPSE     1050.46 TCPU     1020.85
 TTTTTTTTTTTTTTTTTTTTTTTTTTTTTT SHELLXN     TELAPSE     1127.70 TCPU     1097.80
 TTTTTTTTTTTTTTTTTTTTTTTTTTTTTT MONMO3      TELAPSE     1132.48 TCPU     1102.57
 NUMERICALLY INTEGRATED DENSITY    424.0000767770
 TTTTTTTTTTTTTTTTTTTTTTTTTTTTTT NUMDFT      TELAPSE     1139.06 TCPU     1109.14
 CYC  10 ETOT(AU) -6.366356280929E+03 DETOT -9.49E-05 tst  8.06E-07 PX  2.20E-03
 TTTTTTTTTTTTTTTTTTTTTTTTTTTTTT DIIS        TELAPSE     1139.37 TCPU     1109.44
 DIIS TEST: 0.62628E-04 AT SCF   CYCLE  10 - DIIS ACTIVE - HISTORY:    10 CYCLES
 TTTTTTTTTTTTTTTTTTTTTTTTTTTTTT FDIK        TELAPSE     1150.30 TCPU     1120.18
 INSULATING STATE
 TOP OF VALENCE BANDS -    BAND    212; K    6; EIG -2.4587338E-01 AU
 TOP OF VALENCE BANDS -    BAND    212; K    1; EIG -2.4629478E-01 AU
 BOTTOM OF VIRTUAL BANDS - BAND    213; K    6; EIG -1.1532663E-01 AU
 DIRECT ENERGY BAND GAP:   3.5524 eV
 BOTTOM OF VIRTUAL BANDS - BAND    213; K    1; EIG -1.1307267E-01 AU
 TTTTTTTTTTTTTTTTTTTTTTTTTTTTTT PDIG        TELAPSE     1150.89 TCPU     1120.76
 TOTAL ATOMIC CHARGES:
   1.2869276   1.2869276   1.2869276   1.2869276   1.1502174   1.1502174
   1.1502174   1.1502174   6.0820236   6.0820236   6.0820236   6.0820236
   5.8155020   5.8155020   5.8155020   5.8155020   5.7163523   5.7163523
   5.7163523   5.7163523   5.6149058   5.6149058   5.6149058   5.6149058
   5.9778338   5.9778338   5.9778338   5.9778338   6.0864890   6.0864890
   6.0864890   6.0864890   7.1613992   7.1613992   7.1613992   7.1613992
   7.0670546   7.0670546   7.0670546   7.0670546   7.1521041   7.1521041
   7.1521041   7.1521041   7.0716207   7.0716207   7.0716207   7.0716207
   7.0682085   7.0682085   7.0682085   7.0682085   9.1650422   9.1650422
   9.1650422   9.1650422   9.1394427   9.1394427   9.1394427   9.1394427
  28.8933125  28.8861935
 TTTTTTTTTTTTTTTTTTTTTTTTTTTTTT MOQGAD      TELAPSE     1150.94 TCPU     1120.81
 TTTTTTTTTTTTTTTTTTTTTTTTTTTTTT SHELLXN     TELAPSE     1230.99 TCPU     1198.09
 TTTTTTTTTTTTTTTTTTTTTTTTTTTTTT MONMO3      TELAPSE     1235.28 TCPU     1202.37
 NUMERICALLY INTEGRATED DENSITY    424.0000766781
 TTTTTTTTTTTTTTTTTTTTTTTTTTTTTT NUMDFT      TELAPSE     1241.95 TCPU     1209.02
 CYC  11 ETOT(AU) -6.366356290389E+03 DETOT -9.46E-06 tst  1.02E-07 PX  6.26E-04
 TTTTTTTTTTTTTTTTTTTTTTTTTTTTTT DIIS        TELAPSE     1242.15 TCPU     1209.21
 DIIS TEST: 0.18175E-04 AT SCF   CYCLE  11 - DIIS ACTIVE - HISTORY:    11 CYCLES
 TTTTTTTTTTTTTTTTTTTTTTTTTTTTTT FDIK        TELAPSE     1254.58 TCPU     1219.48
 INSULATING STATE
 TOP OF VALENCE BANDS -    BAND    212; K    6; EIG -2.4589893E-01 AU
 TOP OF VALENCE BANDS -    BAND    212; K    1; EIG -2.4632036E-01 AU
 BOTTOM OF VIRTUAL BANDS - BAND    213; K    6; EIG -1.1529709E-01 AU
 DIRECT ENERGY BAND GAP:   3.5539 eV
 BOTTOM OF VIRTUAL BANDS - BAND    213; K    1; EIG -1.1303736E-01 AU
 TTTTTTTTTTTTTTTTTTTTTTTTTTTTTT PDIG        TELAPSE     1255.17 TCPU     1220.07
 TOTAL ATOMIC CHARGES:
   1.2868920   1.2868920   1.2868920   1.2868920   1.1501291   1.1501291
   1.1501291   1.1501291   6.0823426   6.0823426   6.0823426   6.0823426
   5.8149039   5.8149039   5.8149039   5.8149039   5.7168701   5.7168701
   5.7168701   5.7168701   5.6146570   5.6146570   5.6146570   5.6146570
   5.9771866   5.9771866   5.9771866   5.9771866   6.0867518   6.0867518
   6.0867518   6.0867518   7.1611067   7.1611067   7.1611067   7.1611067
   7.0678145   7.0678145   7.0678145   7.0678145   7.1513153   7.1513153
   7.1513153   7.1513153   7.0718987   7.0718987   7.0718987   7.0718987
   7.0684385   7.0684385   7.0684385   7.0684385   9.1652434   9.1652434
   9.1652434   9.1652434   9.1394098   9.1394098   9.1394098   9.1394098
  28.8934743  28.8866863
 TTTTTTTTTTTTTTTTTTTTTTTTTTTTTT MOQGAD      TELAPSE     1255.21 TCPU     1220.11
 TTTTTTTTTTTTTTTTTTTTTTTTTTTTTT SHELLXN     TELAPSE     1333.31 TCPU     1297.33
 TTTTTTTTTTTTTTTTTTTTTTTTTTTTTT MONMO3      TELAPSE     1337.45 TCPU     1301.45
 NUMERICALLY INTEGRATED DENSITY    424.0000767079
 TTTTTTTTTTTTTTTTTTTTTTTTTTTTTT NUMDFT      TELAPSE     1344.04 TCPU     1308.00
 CYC  12 ETOT(AU) -6.366356293014E+03 DETOT -2.63E-06 tst  8.38E-09 PX  2.29E-04
 TTTTTTTTTTTTTTTTTTTTTTTTTTTTTT DIIS        TELAPSE     1344.22 TCPU     1308.18
 DIIS TEST: 0.15472E-05 AT SCF   CYCLE  12 - DIIS ACTIVE - HISTORY:    12 CYCLES
 TTTTTTTTTTTTTTTTTTTTTTTTTTTTTT FDIK        TELAPSE     1356.96 TCPU     1319.12
 INSULATING STATE
 TOP OF VALENCE BANDS -    BAND    212; K    6; EIG -2.4589821E-01 AU
 TOP OF VALENCE BANDS -    BAND    212; K    1; EIG -2.4631925E-01 AU
 BOTTOM OF VIRTUAL BANDS - BAND    213; K    6; EIG -1.1530700E-01 AU
 DIRECT ENERGY BAND GAP:   3.5536 eV
 BOTTOM OF VIRTUAL BANDS - BAND    213; K    1; EIG -1.1304513E-01 AU
 TTTTTTTTTTTTTTTTTTTTTTTTTTTTTT PDIG        TELAPSE     1357.55 TCPU     1319.71
 TOTAL ATOMIC CHARGES:
   1.2868757   1.2868757   1.2868757   1.2868757   1.1501898   1.1501898
   1.1501898   1.1501898   6.0823967   6.0823967   6.0823967   6.0823967
   5.8150374   5.8150374   5.8150374   5.8150374   5.7169471   5.7169471
   5.7169471   5.7169471   5.6147630   5.6147630   5.6147630   5.6147630
   5.9772897   5.9772897   5.9772897   5.9772897   6.0863690   6.0863690
   6.0863690   6.0863690   7.1612620   7.1612620   7.1612620   7.1612620
   7.0674820   7.0674820   7.0674820   7.0674820   7.1513133   7.1513133
   7.1513133   7.1513133   7.0721232   7.0721232   7.0721232   7.0721232
   7.0684094   7.0684094   7.0684094   7.0684094   9.1651843   9.1651843
   9.1651843   9.1651843   9.1393986   9.1393986   9.1393986   9.1393986
  28.8933199  28.8865155
 TTTTTTTTTTTTTTTTTTTTTTTTTTTTTT MOQGAD      TELAPSE     1357.59 TCPU     1319.75
 TTTTTTTTTTTTTTTTTTTTTTTTTTTTTT SHELLXN     TELAPSE     1435.19 TCPU     1396.90
 TTTTTTTTTTTTTTTTTTTTTTTTTTTTTT MONMO3      TELAPSE     1439.72 TCPU     1401.42
 NUMERICALLY INTEGRATED DENSITY    424.0000767156
 TTTTTTTTTTTTTTTTTTTTTTTTTTTTTT NUMDFT      TELAPSE     1446.33 TCPU     1408.00
 CYC  13 ETOT(AU) -6.366356293222E+03 DETOT -2.08E-07 tst  8.77E-10 PX  1.15E-04
[...]
 DIIS TEST: 0.18743E+00 AT CPHF  CYCLE   6 - DIIS ACTIVE - HISTORY:     6 CYCLES
 CYCLE   6   ALPHA  933.556698  EPSILON    3.489888  DELTA    2.4065E+00
 TTTTTTTTTTTTTTTTTTTTTTTTTTTTTT MOQGAD      TELAPSE   135679.75 TCPU   134721.12
 TTTTTTTTTTTTTTTTTTTTTTTTTTTTTT CP_MONMON   TELAPSE   135710.40 TCPU   134751.69
 DIIS TEST: 0.12277E-01 AT CPHF  CYCLE   7 - DIIS ACTIVE - HISTORY:     7 CYCLES
 CYCLE   7   ALPHA  933.900094  EPSILON    3.490804  DELTA    3.4340E-01
 TTTTTTTTTTTTTTTTTTTTTTTTTTTTTT MOQGAD      TELAPSE   137178.66 TCPU   136214.32
 TTTTTTTTTTTTTTTTTTTTTTTTTTTTTT CP_MONMON   TELAPSE   137209.17 TCPU   136244.70
 DIIS TEST: 0.20113E-02 AT CPHF  CYCLE   8 - DIIS ACTIVE - HISTORY:     8 CYCLES
 CYCLE   8   ALPHA  934.035645  EPSILON    3.491166  DELTA    1.3555E-01
 TTTTTTTTTTTTTTTTTTTTTTTTTTTTTT MOQGAD      TELAPSE   138675.53 TCPU   137699.66
 TTTTTTTTTTTTTTTTTTTTTTTTTTTTTT CP_MONMON   TELAPSE   138706.25 TCPU   137730.28
 DIIS TEST: 0.19670E-03 AT CPHF  CYCLE   9 - DIIS ACTIVE - HISTORY:     9 CYCLES
 CYCLE   9   ALPHA  934.028581  EPSILON    3.491147  DELTA   -7.0637E-03
 TTTTTTTTTTTTTTTTTTTTTTTTTTTTTT MOQGAD      TELAPSE   140170.17 TCPU   139187.67
 TTTTTTTTTTTTTTTTTTTTTTTTTTTTTT CP_MONMON   TELAPSE   140200.85 TCPU   139218.28
 DIIS TEST: 0.30462E-04 AT CPHF  CYCLE  10 - DIIS ACTIVE - HISTORY:    10 CYCLES
 CYCLE  10   ALPHA  934.009006  EPSILON    3.491094  DELTA   -1.9575E-02
 TTTTTTTTTTTTTTTTTTTTTTTTTTTTTT MOQGAD      TELAPSE   141664.99 TCPU   140675.46
 TTTTTTTTTTTTTTTTTTTTTTTTTTTTTT CP_MONMON   TELAPSE   141695.61 TCPU   140706.01
 DIIS TEST: 0.71523E-05 AT CPHF  CYCLE  11 - DIIS ACTIVE - HISTORY:    11 CYCLES
 CYCLE  11   ALPHA  933.995235  EPSILON    3.491058  DELTA   -1.3771E-02
 TTTTTTTTTTTTTTTTTTTTTTTTTTTTTT MOQGAD      TELAPSE   143160.02 TCPU   142162.47
 TTTTTTTTTTTTTTTTTTTTTTTTTTTTTT CP_MONMON   TELAPSE   143190.34 TCPU   142192.69
 DIIS TEST: 0.61809E-06 AT CPHF  CYCLE  12 - DIIS ACTIVE - HISTORY:    12 CYCLES
 CYCLE  12   ALPHA  933.991980  EPSILON    3.491049  DELTA   -3.2549E-03
 TTTTTTTTTTTTTTTTTTTTTTTTTTTTTT MOQGAD      TELAPSE   144658.81 TCPU   143651.12
 TTTTTTTTTTTTTTTTTTTTTTTTTTTTTT CP_MONMON   TELAPSE   144689.50 TCPU   143681.71
 DIIS TEST: 0.73765E-07 AT CPHF  CYCLE  13 - DIIS ACTIVE - HISTORY:    13 CYCLES
 CYCLE  13   ALPHA  933.990964  EPSILON    3.491046  DELTA   -1.0156E-03
 TTTTTTTTTTTTTTTTTTTTTTTTTTTTTT MOQGAD      TELAPSE   146156.73 TCPU   145140.27
 TTTTTTTTTTTTTTTTTTTTTTTTTTTTTT CP_MONMON   TELAPSE   146187.15 TCPU   145170.62
 DIIS TEST: 0.96332E-08 AT CPHF  CYCLE  14 - DIIS ACTIVE - HISTORY:    14 CYCLES
 CYCLE  14   ALPHA  933.990782  EPSILON    3.491046  DELTA   -1.8215E-04
 TTTTTTTTTTTTTTTTTTTTTTTTTTTTTT CP_SC       TELAPSE   146320.96 TCPU   145299.63

 *******************************************************************************

 ELECTRIC FIELD APPLIED ALONG CARTESIAN DIRECTION Z

 *******************************************************************************
 THE NUMBER OF SYMMETRY OPERATORS HAS BEEN REDUCED FROM  4 TO  1

 NEW GRID IN RECIPROCAL SPACE
 *******************************************************************************
 POINTS IN THE IBZ                  14 SHRINKING FACTORS               3  3  3
 *******************************************************************************
 *** K POINTS COORDINATES (OBLIQUE COORDINATES IN UNITS OF SHRINK FAC. )
   1-R(  0  0  0)   2-C(  1  0  0)   3-C(  0  1  2)   4-C(  2  0  1)
   5-C(  0  2  0)   6-C(  1  1  0)   7-C(  1  1  1)   8-C(  1  0  1)
   9-C(  0  1  1)  10-C(  2  1  0)  11-C(  0  0  2)  12-C(  2  1  1)
  13-C(  2  1  2)  14-C(  2  2  1)

 GCALCO - MAX INDICES DIRECT LATTICE VECTOR    14    14    16
 NO.OF VECTORS CREATED 6999 STARS  486 RMAX   199.67157 BOHR
 TTTTTTTTTTTTTTTTTTTTTTTTTTTTTT gordsh1     TELAPSE   146371.13 TCPU   145348.29

 MATRIX SIZE: P(G) 1806544, F(G)  904250, P(G) IRR  906456, F(G) IRR  906456
 MAX G-VECTOR INDEX FOR 1- AND 2-ELECTRON INTEGRALS  59

 TTTTTTTTTTTTTTTTTTTTTTTTTTTTTT INPUT       TELAPSE   146397.72 TCPU   145374.77
 TTTTTTTTTTTTTTTTTTTTTTTTTTTTTT SYMM        TELAPSE   146397.72 TCPU   145374.77

 ***** NEW REFERENCE GEOMETRY *****
 TTTTTTTTTTTTTTTTTTTTTTTTTTTTTT INT_SCREEN  TELAPSE   146397.74 TCPU   145374.78
 INFORMATION **** EXCBUF **** EXCH. BIPO BUFFER: WORDS USED =           0

 DFT PARAMETERS

     ATOM       ELECTRONS   NET CHARGE   R(ANGSTROM)
   1   1  H       1.0000      0.0000     1.11000000
   9   6  C       6.0000      0.0000     0.77000000
  33   7  N       7.0000      0.0000     0.74000000
  53   9  F       9.0000      0.0000     0.72000000
  61  30  ZN     30.0000      0.0000     1.37000000

 SIZE OF GRID=    1902148
 TTTTTTTTTTTTTTTTTTTTTTTTTTTTTT MAKE_GRID2  TELAPSE   146400.00 TCPU   145377.04
 BECKE WEIGHT FUNCTION
 RADSAFE =     2.00
 TOLERANCES - DENSITY:10**- 6; POTENTIAL:10**- 9; GRID WGT:10**-14

 RADIAL INTEGRATION  - INTERVALS (POINTS,UPPER LIMIT):            1( 75,  4.0*R)

 ANGULAR INTEGRATION - INTERVALS (ACCURACY LEVEL [N. POINTS] UPPER LIMIT):
  1(  4[  86]   0.2)  2(  8[ 194]   0.5)  3( 12[ 350]   0.9)  4( 16[ 974]   3.5)
  5( 12[ 350]9999.0)
 TTTTTTTTTTTTTTTTTTTTTTTTTTTTTT INT_CALC    TELAPSE   146400.11 TCPU   145377.15
 CYCLE   0   ALPHA  538.112266  EPSILON    2.435199  DELTA    5.3811E+02
 TTTTTTTTTTTTTTTTTTTTTTTTTTTTTT MOQGAD      TELAPSE   147816.93 TCPU   146787.73
 TTTTTTTTTTTTTTTTTTTTTTTTTTTTTT CP_MONMON   TELAPSE   147847.44 TCPU   146818.07
 DIIS TEST: 0.61864E+02 AT CPHF  CYCLE   1 - MIX    0 %
 CYCLE   1   ALPHA  282.076657  EPSILON    1.752326  DELTA   -2.5604E+02
 TTTTTTTTTTTTTTTTTTTTTTTTTTTTTT MOQGAD      TELAPSE   149289.55 TCPU   148249.44
 TTTTTTTTTTTTTTTTTTTTTTTTTTTTTT CP_MONMON   TELAPSE   149320.02 TCPU   148279.84
 DIIS TEST: 0.41118E+03 AT CPHF  CYCLE   2 - DIIS ACTIVE - HISTORY:     2 CYCLES
 CYCLE   2   ALPHA  395.249471  EPSILON    2.054169  DELTA    1.1317E+02
 TTTTTTTTTTTTTTTTTTTTTTTTTTTTTT MOQGAD      TELAPSE   150769.48 TCPU   149717.96
 TTTTTTTTTTTTTTTTTTTTTTTTTTTTTT CP_MONMON   TELAPSE   150800.00 TCPU   149748.36
 DIIS TEST: 0.24540E+02 AT CPHF  CYCLE   3 - DIIS ACTIVE - HISTORY:     3 CYCLES
 CYCLE   3   ALPHA  423.426399  EPSILON    2.129320  DELTA    2.8177E+01
 TTTTTTTTTTTTTTTTTTTTTTTTTTTTTT MOQGAD      TELAPSE   152242.07 TCPU   151180.46
 TTTTTTTTTTTTTTTTTTTTTTTTTTTTTT CP_MONMON   TELAPSE   152272.67 TCPU   151210.94
 DIIS TEST: 0.31252E+01 AT CPHF  CYCLE   4 - DIIS ACTIVE - HISTORY:     4 CYCLES
 CYCLE   4   ALPHA  424.112574  EPSILON    2.131150  DELTA    6.8618E-01
 TTTTTTTTTTTTTTTTTTTTTTTTTTTTTT MOQGAD      TELAPSE   153713.73 TCPU   152643.63
 TTTTTTTTTTTTTTTTTTTTTTTTTTTTTT CP_MONMON   TELAPSE   153744.31 TCPU   152674.14
 DIIS TEST: 0.12483E+00 AT CPHF  CYCLE   5 - DIIS ACTIVE - HISTORY:     5 CYCLES
 CYCLE   5   ALPHA  424.348863  EPSILON    2.131780  DELTA    2.3629E-01
 TTTTTTTTTTTTTTTTTTTTTTTTTTTTTT MOQGAD      TELAPSE   155190.03 TCPU   154108.07
 TTTTTTTTTTTTTTTTTTTTTTTTTTTTTT CP_MONMON   TELAPSE   155220.61 TCPU   154138.52
 DIIS TEST: 0.21782E-01 AT CPHF  CYCLE   6 - DIIS ACTIVE - HISTORY:     6 CYCLES
 CYCLE   6   ALPHA  424.441583  EPSILON    2.132028  DELTA    9.2720E-02
 TTTTTTTTTTTTTTTTTTTTTTTTTTTTTT MOQGAD      TELAPSE   156662.20 TCPU   155571.03
 TTTTTTTTTTTTTTTTTTTTTTTTTTTTTT CP_MONMON   TELAPSE   156692.81 TCPU   155601.54
 DIIS TEST: 0.52522E-02 AT CPHF  CYCLE   7 - DIIS ACTIVE - HISTORY:     7 CYCLES
 CYCLE   7   ALPHA  424.456569  EPSILON    2.132068  DELTA    1.4986E-02
 TTTTTTTTTTTTTTTTTTTTTTTTTTTTTT MOQGAD      TELAPSE   158137.44 TCPU   157039.35
 TTTTTTTTTTTTTTTTTTTTTTTTTTTTTT CP_MONMON   TELAPSE   158168.03 TCPU   157069.84
 DIIS TEST: 0.12926E-02 AT CPHF  CYCLE   8 - DIIS ACTIVE - HISTORY:     8 CYCLES
 CYCLE   8   ALPHA  424.462022  EPSILON    2.132082  DELTA    5.4531E-03
 TTTTTTTTTTTTTTTTTTTTTTTTTTTTTT MOQGAD      TELAPSE   159608.20 TCPU   158502.56
 TTTTTTTTTTTTTTTTTTTTTTTTTTTTTT CP_MONMON   TELAPSE   159638.88 TCPU   158533.12
 DIIS TEST: 0.58923E-04 AT CPHF  CYCLE   9 - DIIS ACTIVE - HISTORY:     9 CYCLES
 CYCLE   9   ALPHA  424.456300  EPSILON    2.132067  DELTA   -5.7216E-03
 TTTTTTTTTTTTTTTTTTTTTTTTTTTTTT MOQGAD      TELAPSE   161080.87 TCPU   159966.61
 TTTTTTTTTTTTTTTTTTTTTTTTTTTTTT CP_MONMON   TELAPSE   161111.39 TCPU   159997.06
 DIIS TEST: 0.16922E-04 AT CPHF  CYCLE  10 - DIIS ACTIVE - HISTORY:    10 CYCLES
 CYCLE  10   ALPHA  424.452789  EPSILON    2.132058  DELTA   -3.5106E-03
 TTTTTTTTTTTTTTTTTTTTTTTTTTTTTT MOQGAD      TELAPSE   162555.48 TCPU   161431.89
 TTTTTTTTTTTTTTTTTTTTTTTTTTTTTT CP_MONMON   TELAPSE   162586.05 TCPU   161462.38
 DIIS TEST: 0.62622E-06 AT CPHF  CYCLE  11 - DIIS ACTIVE - HISTORY:    11 CYCLES
 CYCLE  11   ALPHA  424.452369  EPSILON    2.132056  DELTA   -4.2061E-04
 TTTTTTTTTTTTTTTTTTTTTTTTTTTTTT CP_SC       TELAPSE   162694.96 TCPU   161562.54

 *******************************************************************************

 POLARIZABILITY (ALPHA), DIELECTRIC (EPSILON) AND FIRST-ORDER ELECTRIC
 SUSCEPTIBILITY (CHI(1)) TENSORS (INDEPENDENT COMPONENTS)

  FR.(eV) COMP.   ALPHA(Re,Im)           EPSILON(Re,Im)                CHI(1)
  2.331   XX     933.9902       0.0000       3.4910       0.0000       2.4910
  2.331   XY      -0.0005       0.0000      -0.0000       0.0000      -0.0000
  2.331   XZ       0.0000       0.0000       0.0000       0.0000       0.0000
  2.331   YY     933.9908       0.0000       3.4910       0.0000       2.4910
  2.331   YZ      -0.0000       0.0000      -0.0000       0.0000      -0.0000
  2.331   ZZ     424.4524       0.0000       2.1321       0.0000       1.1321

 DIELECTRIC TENSOR

 TENSOR IN PRINCIPAL AXES SYSTEM
 AA  3.491044E+00 BB  3.491047E+00 CC  2.132056E+00

 REFRACTIVE INDICES 
 AA  1.460156E+00 BB  1.868433E+00 CC  1.868434E+00

 OPTICALLY ANISOTROPIC - UNIAXIAL CRYSTAL

 BIREFRINGENCE =  0.4083 (NEGATIVE) - OBLATE OPTICAL ELLIPSOID

 EPSILON=N**2=1+CHI(1)=1+ALPHA*4*PI/V,   4*PI/V=   0.00267 BOHR**(-3)
 ALPHA IN BOHR**3; EPSILON AND CHI(1) ARE DIMENSIONLESS.
 *******************************************************************************


  Pockels Effect beta(-omega;omega,0) with omega=   1.1653 eV


 SIZE OF GRID=    1902148
 TTTTTTTTTTTTTTTTTTTTTTTTTTTTTT MAKE_GRID2  TELAPSE   163149.35 TCPU   162013.10
 BECKE WEIGHT FUNCTION
 RADSAFE =     2.00
 TOLERANCES - DENSITY:10**- 6; POTENTIAL:10**- 9; GRID WGT:10**-14

 RADIAL INTEGRATION  - INTERVALS (POINTS,UPPER LIMIT):            1( 75,  4.0*R)

 ANGULAR INTEGRATION - INTERVALS (ACCURACY LEVEL [N. POINTS] UPPER LIMIT):
  1(  4[  86]   0.2)  2(  8[ 194]   0.5)  3( 12[ 350]   0.9)  4( 16[ 974]   3.5)
  5( 12[ 350]9999.0)

 SIZE OF GRID=    1902148
 TTTTTTTTTTTTTTTTTTTTTTTTTTTTTT MAKE_GRID2  TELAPSE   163153.02 TCPU   162015.84
 BECKE WEIGHT FUNCTION
 RADSAFE =     2.00
 TOLERANCES - DENSITY:10**- 6; POTENTIAL:10**- 9; GRID WGT:10**-14

 RADIAL INTEGRATION  - INTERVALS (POINTS,UPPER LIMIT):            1( 75,  4.0*R)

 ANGULAR INTEGRATION - INTERVALS (ACCURACY LEVEL [N. POINTS] UPPER LIMIT):
  1(  4[  86]   0.2)  2(  8[ 194]   0.5)  3( 12[ 350]   0.9)  4( 16[ 974]   3.5)
  5( 12[ 350]9999.0)
 *******************************************************************************

 DC-POCKELS AND SECOND ELECTRIC SUSCEPTIBILITY (CHI(2))
 TENSORS (INDEPENDENT COMPONENTS)

BETA                                         CHI(2)       d(MKS)       d(cgs)
 *******************************************************************************

     XXX          0.4542E-02   0.6057E-05   0.5890E-05   0.1405E-06
     XXY          0.5726E-04   0.7635E-07   0.7424E-07   0.1771E-08
     XXZ          0.1171E+03   0.1561E+00   0.1518E+00   0.3622E-02
     XYX         -0.2277E-03  -0.3036E-06  -0.2952E-06  -0.7043E-08
     XYY          0.2122E-02   0.2830E-05   0.2752E-05   0.6565E-07
     XYZ         -0.8253E+02  -0.1101E+00  -0.1070E+00  -0.2553E-02
     XZX          0.1113E+03   0.1484E+00   0.1443E+00   0.3442E-02
     XZY         -0.7576E+02  -0.1010E+00  -0.9824E-01  -0.2344E-02
     XZZ          0.2370E-02   0.3160E-05   0.3073E-05   0.7331E-07
     YXX         -0.3411E-03  -0.4549E-06  -0.4423E-06  -0.1055E-07
     YXY          0.2150E-02   0.2867E-05   0.2788E-05   0.6652E-07
     YXZ         -0.8252E+02  -0.1100E+00  -0.1070E+00  -0.2553E-02
     YYX         -0.1512E-03  -0.2017E-06  -0.1961E-06  -0.4679E-08
     YYY         -0.7263E-03  -0.9685E-06  -0.9418E-06  -0.2247E-07
     YYZ         -0.1171E+03  -0.1561E+00  -0.1518E+00  -0.3622E-02
     YZX         -0.7576E+02  -0.1010E+00  -0.9824E-01  -0.2344E-02
     YZY         -0.1113E+03  -0.1484E+00  -0.1443E+00  -0.3442E-02
     YZZ         -0.3544E-03  -0.4727E-06  -0.4596E-06  -0.1096E-07
     ZXX          0.1112E+03   0.1483E+00   0.1442E+00   0.3441E-02
     ZXY         -0.7576E+02  -0.1010E+00  -0.9824E-01  -0.2344E-02
     ZXZ          0.2335E-02   0.3113E-05   0.3027E-05   0.7222E-07
     ZYX         -0.7576E+02  -0.1010E+00  -0.9824E-01  -0.2344E-02
     ZYY         -0.1112E+03  -0.1483E+00  -0.1442E+00  -0.3441E-02
     ZYZ         -0.3637E-03  -0.4851E-06  -0.4716E-06  -0.1125E-07
     ZZX          0.1939E-03   0.2585E-06   0.2514E-06   0.5997E-08
     ZZY         -0.3943E-05  -0.5258E-08  -0.5113E-08  -0.1220E-09
     ZZZ         -0.1494E-02  -0.1993E-05  -0.1938E-05  -0.4623E-07
 *******************************************************************************
 CHI(2) = BETA*2PI/V

 BETA AND CHI(2) IN A.U.:    [BETA] = M**(-1/2) L**(7/2) T
                             [CHI(2)] = 1/F
                             (L=LENGTH, M=MASS, T=TIME, F=FIELD INTENSITY)

 ELECTRIC SUSCEPTIBILITY IN THE SECOND HARMONIC GENERATION (SHG) CONVENTION IS:
                   d(A.U.)= 1/2 CHI(2)
                   d(MKS) = d(A.U.)/0.514220632 pm/V
                   d(CGS) = d(A.U.)/(4PI*1.7152535)  10**(-7) esu

 FIELD INTENSITY: 1 A.U. = 0.514220632*10**(11) V/m = 1.7152535*10**7 esu
 BEWARE:                CHI(2)=P/(E0*F**2)   (MKS)
                        CHI(2)=P/F**2        (CGS)
 WHERE P IS THE POLARIZATION VECTOR AND F IS THE APPLIED ELECTRIC FIELD.
 CONSISTENCY IS  PRESERVED BY MULTIPLYING THE CGS VALUE TIMES THE PERMITTIVITY
 OF THE VACUUM, E0 (CONVERSION FACTORS FROM www.physics.nist.gov/constants).
 IN PARENTHESIS: BETA BEFORE SYMMETRIZATION.

  SHG Effect beta(-2omega;omega,omega) with omega=   1.1653 eV


 SIZE OF GRID=    1902148
 TTTTTTTTTTTTTTTTTTTTTTTTTTTTTT MAKE_GRID2  TELAPSE   163530.93 TCPU   162391.97
 BECKE WEIGHT FUNCTION
 RADSAFE =     2.00
 TOLERANCES - DENSITY:10**- 6; POTENTIAL:10**- 9; GRID WGT:10**-14

 RADIAL INTEGRATION  - INTERVALS (POINTS,UPPER LIMIT):            1( 75,  4.0*R)

 ANGULAR INTEGRATION - INTERVALS (ACCURACY LEVEL [N. POINTS] UPPER LIMIT):
  1(  4[  86]   0.2)  2(  8[ 194]   0.5)  3( 12[ 350]   0.9)  4( 16[ 974]   3.5)
  5( 12[ 350]9999.0)

 SIZE OF GRID=    1902148
 TTTTTTTTTTTTTTTTTTTTTTTTTTTTTT MAKE_GRID2  TELAPSE   163533.59 TCPU   162394.61
 BECKE WEIGHT FUNCTION
 RADSAFE =     2.00
 TOLERANCES - DENSITY:10**- 6; POTENTIAL:10**- 9; GRID WGT:10**-14

 RADIAL INTEGRATION  - INTERVALS (POINTS,UPPER LIMIT):            1( 75,  4.0*R)

 ANGULAR INTEGRATION - INTERVALS (ACCURACY LEVEL [N. POINTS] UPPER LIMIT):
  1(  4[  86]   0.2)  2(  8[ 194]   0.5)  3( 12[ 350]   0.9)  4( 16[ 974]   3.5)
  5( 12[ 350]9999.0)
 *******************************************************************************

 SECOND HARMONIC GENERATION (SHG)  AND SECOND ELECTRIC SUSCEPTIBILITY (CHI(2))
 TENSORS (INDEPENDENT COMPONENTS)

BETA                                         CHI(2)       d(MKS)       d(cgs)
 *******************************************************************************

     XXX          0.7888E-02   0.1052E-04   0.1023E-04   0.2440E-06
     XXY         -0.2636E-03  -0.3515E-06  -0.3418E-06  -0.8154E-08
     XXZ          0.1997E+03   0.2663E+00   0.2589E+00   0.6176E-02
     XYX         -0.2636E-03  -0.3515E-06  -0.3418E-06  -0.8154E-08
     XYY          0.2625E-02   0.3500E-05   0.3403E-05   0.8119E-07
     XYZ         -0.7827E+02  -0.1044E+00  -0.1015E+00  -0.2421E-02
     XZX          0.1997E+03   0.2663E+00   0.2589E+00   0.6176E-02
     XZY         -0.7827E+02  -0.1044E+00  -0.1015E+00  -0.2421E-02
     XZZ          0.2773E-02   0.3698E-05   0.3596E-05   0.8579E-07
     YXX         -0.3396E-03  -0.4528E-06  -0.4403E-06  -0.1050E-07
     YXY          0.2359E-02   0.3146E-05   0.3059E-05   0.7299E-07
     YXZ         -0.7826E+02  -0.1044E+00  -0.1015E+00  -0.2421E-02
     YYX          0.2359E-02   0.3146E-05   0.3059E-05   0.7299E-07
     YYY         -0.1214E-02  -0.1620E-05  -0.1575E-05  -0.3757E-07
     YYZ         -0.1997E+03  -0.2663E+00  -0.2589E+00  -0.6176E-02
     YZX         -0.7826E+02  -0.1044E+00  -0.1015E+00  -0.2421E-02
     YZY         -0.1997E+03  -0.2663E+00  -0.2589E+00  -0.6176E-02
     YZZ         -0.3895E-03  -0.5194E-06  -0.5051E-06  -0.1205E-07
     ZXX          0.1718E+03   0.2291E+00   0.2228E+00   0.5315E-02
     ZXY         -0.7696E+02  -0.1026E+00  -0.9979E-01  -0.2381E-02
     ZXZ          0.2485E-02   0.3314E-05   0.3222E-05   0.7687E-07
     ZYX         -0.7696E+02  -0.1026E+00  -0.9979E-01  -0.2381E-02
     ZYY         -0.1718E+03  -0.2291E+00  -0.2228E+00  -0.5315E-02
     ZYZ         -0.3853E-03  -0.5139E-06  -0.4997E-06  -0.1192E-07
     ZZX          0.2485E-02   0.3314E-05   0.3222E-05   0.7687E-07
     ZZY         -0.3853E-03  -0.5139E-06  -0.4997E-06  -0.1192E-07
     ZZZ         -0.1418E-02  -0.1891E-05  -0.1839E-05  -0.4386E-07
 *******************************************************************************
 CHI(2) = BETA*2PI/V

 BETA AND CHI(2) IN A.U.:    [BETA] = M**(-1/2) L**(7/2) T
                             [CHI(2)] = 1/F
                             (L=LENGTH, M=MASS, T=TIME, F=FIELD INTENSITY)

 ELECTRIC SUSCEPTIBILITY IN THE SECOND HARMONIC GENERATION (SHG) CONVENTION IS:
                   d(A.U.)= 1/2 CHI(2)
                   d(MKS) = d(A.U.)/0.514220632 pm/V
                   d(CGS) = d(A.U.)/(4PI*1.7152535)  10**(-7) esu

 FIELD INTENSITY: 1 A.U. = 0.514220632*10**(11) V/m = 1.7152535*10**7 esu
 BEWARE:                CHI(2)=P/(E0*F**2)   (MKS)
                        CHI(2)=P/F**2        (CGS)
 WHERE P IS THE POLARIZATION VECTOR AND F IS THE APPLIED ELECTRIC FIELD.
 CONSISTENCY IS  PRESERVED BY MULTIPLYING THE CGS VALUE TIMES THE PERMITTIVITY
 OF THE VACUUM, E0 (CONVERSION FACTORS FROM www.physics.nist.gov/constants).
 IN PARENTHESIS: BETA BEFORE SYMMETRIZATION.

 *******************************************************************************


 GCALCO - MAX INDICES DIRECT LATTICE VECTOR    14    14    16
 NO.OF VECTORS CREATED 6999 STARS  486 RMAX   199.67157 BOHR

 CAPPA:IS1  3;IS2  3;IS3  3; K PTS MONK NET   6; SYMMOPS:K SPACE   8;G SPACE   4

 TTTTTTTTTTTTTTTTTTTTTTTTTTTTTT END         TELAPSE   163533.96 TCPU   162394.98
 EEEEEEEEEE TERMINATION  DATE 01 12 2023 TIME 02:02:19.3
NODE    0 CPU TIME =    162394.977
NODE    1 CPU TIME =    162745.070
NODE    2 CPU TIME =    162677.503
NODE    3 CPU TIME =    162667.010
NODE    4 CPU TIME =    162613.949
NODE    5 CPU TIME =    162707.480
NODE    6 CPU TIME =    162675.087
NODE    7 CPU TIME =    162692.092
NODE    8 CPU TIME =    162620.384
NODE    9 CPU TIME =    162681.953
NODE   10 CPU TIME =    162450.280
NODE   11 CPU TIME =    162439.024
NODE   12 CPU TIME =    162345.386
NODE   13 CPU TIME =    162424.582
NODE   14 CPU TIME =    162437.383
NODE   15 CPU TIME =    162453.899
NODE   16 CPU TIME =    162355.188
NODE   17 CPU TIME =    162424.621
NODE   18 CPU TIME =    162426.260
NODE   19 CPU TIME =    162446.684
NODE   20 CPU TIME =    162335.160
NODE   21 CPU TIME =    162422.149
NODE   22 CPU TIME =    162417.005
NODE   23 CPU TIME =    162383.541
    TOTAL CPU TIME =   3900236.670
trying normal rsh (/usr/bin/rsh)
exec: No such file or directory
trying normal rsh (/usr/bin/rsh)
exec: No such file or directory
trying normal rsh (/usr/bin/rsh)
exec: No such file or directory
trying normal rsh (/usr/bin/rsh)
exec: No such file or directory
