Loading crystal17/1.0.2/intel/19.0
  Loading requirement: intel/19.0 ompi/4.0.1/intel/19.0
 PROCESS            5  OF           24  WORKING
 PROCESS            3  OF           24  WORKING
 PROCESS           15  OF           24  WORKING
 PROCESS           21  OF           24  WORKING
 PROCESS            9  OF           24  WORKING
 PROCESS           11  OF           24  WORKING
 PROCESS            0  OF           24  WORKING
 PROCESS            4  OF           24  WORKING
 PROCESS            7  OF           24  WORKING
 PROCESS            2  OF           24  WORKING
 PROCESS            6  OF           24  WORKING
 PROCESS           10  OF           24  WORKING
 PROCESS           12  OF           24  WORKING
 PROCESS           18  OF           24  WORKING
 PROCESS           23  OF           24  WORKING
 PROCESS            8  OF           24  WORKING
 PROCESS           14  OF           24  WORKING
 PROCESS           16  OF           24  WORKING
 PROCESS           17  OF           24  WORKING
 PROCESS           19  OF           24  WORKING
 PROCESS           20  OF           24  WORKING
 PROCESS           13  OF           24  WORKING

         
 *******************************************************************************
 *                                                                             *
 *                               CRYSTAL17                                     *
 *                      public : 1.0.2 - March 1st, 2018                       *
 *                       HTTP://WWW.CRYSTAL.UNITO.IT                           *
 *                                                                             *
 *                              MAIN AUTHORS                                   *
 *                                                                             *
 *  R. DOVESI(1,11), V.R. SAUNDERS(2), C. ROETTI(1,11), R. ORLANDO(1,11),      *
 *  C.M. ZICOVICH-WILSON(1,3), F. PASCALE(4), B. CIVALLERI(1,11),              *
 *  K. DOLL(5), N.M. HARRISON(2,6), I.J. BUSH(7), Ph. D'ARCO(8),               *
 *  M. LLUNELL(9), M. CAUSA'(10), Y. NOEL(8), L. MASCHIO(1,11), A. ERBA(1,11)  *
 *  M. RE'RAT(14), S. CASASSA(1,11)                                            *
 *                                                                             *
 *        CONTRIBUTIONS TO THE CODE HAVE ALSO BEEN GIVEN BY                    *
 *                                                                             *
 *  M. FERRABONE(1,11), M. DE LA PIERRE(1,11), M. FERRERO(1,11),               *
 *  J. BAIMA(1,11), E. ALBANESE(1,11), M.F. PEINTINGER(12), R. BAST(13),       *
 *  B. KIRTMAN(15), V. LACIVITA(1,11), R. DEMICHELIS(1,16)                     *
 *  G. BRANDEBURG(17), S. SALUSTRO(1,11), G. SANSONE(1,11)                     *
 *  M.T. RUGGIERO(18)                                                          *
 *                                                                             *
 * (1) THEORETICAL CHEMISTRY GROUP - UNIVERSITA' DI TORINO - TORINO (ITALY)    *
 * (2) COMPUTATIONAL SCIENCE & ENGINEERING DEPARTMENT - STFC DARESBURY (UK)    *
 * (3) UNIVERSIDAD AUTONOMA DEL ESTADO DE MORELOS - CUERNAVACA (MEXICO)        *
 * (4) UNIVERSITE' DE LORRAINE - NANCY (FRANCE)                                *
 * (5) UNIVERSITAET STUTTGART- STUTTGART (GERMANY)                             *
 * (6) IMPERIAL COLLEGE - LONDON (UK)                                          *
 * (7) OXFORD E-RESEARCH CENTRE - OXFORD (UK)                                  *
 * (8) UPMC - SORBONNE UNIVERSITES - PARIS (FRANCE)                            *
 * (9) UNIVERSIDAD DE BARCELONA - BARCELONA (SPAIN)                            *
 *(10) UNIVERSITA' DI NAPOLI "FEDERICO II" - NAPOLI (ITALY)                    *
 *(11) NIS - NANOSTRUCTURED INTERFACES AND SURFACES - TORINO (ITALY)           *
 *(12) MPI FUER CHEMISCHE ENERGIEKONVERSION - MUELHEIM AN DER RUHR (GERMANY)   *
 *(13) UNIVERSITY OF TROMSO - TROMSO (NORWAY)                                  *
 *(14) UNIVERSITE' DE PAU ET DES PAYS DE L'ADOUR - PAU (FRANCE)                *
 *(15) UNIVERSITY OF CALIFORNIA SANTA BARBARA - SANTA BARBARA (USA)            *
 *(16) CURTIN UNIVERSITY - PERTH (AUSTRALIA)                                   *
 *(17) UNIVERSITY COLLEGE LONDON - LONDON (UK)                                 *
 *(18) CAMBRIDGE UNIVERSITY - CAMBRIDGE (UK)                                   *
 *                                                                             *
 *******************************************************************************
 EEEEEEEEEE STARTING  DATE 29 11 2023 TIME 13:12:10.9
 Z:\home\sanoj\Downloads\tmp_p\newconn.mol                                       

 CRYSTAL CALCULATION
 (INPUT ACCORDING TO THE INTERNATIONAL TABLES FOR X-RAY CRYSTALLOGRAPHY)
 CRYSTAL FAMILY                       :  TETRAGONAL  
 CRYSTAL CLASS  (GROTH - 1921)        :  TETRAGONAL DISPHENOIDAL              

 SPACE GROUP (NONCENTROSYMMETRIC)     :  I -4            

 LATTICE PARAMETERS  (ANGSTROMS AND DEGREES) - CONVENTIONAL CELL
        A           B           C        ALPHA        BETA       GAMMA
    10.28747    10.28747    13.32167    90.00000    90.00000    90.00000


 NUMBER OF IRREDUCIBLE ATOMS IN THE CONVENTIONAL CELL:   17

 INPUT COORDINATES

 ATOM AT. N.              COORDINATES
   1   1     7.149000000000E-02  7.482700000000E-01  3.467200000000E-01
   2   1     3.710700000000E-01  4.538800000000E-01  3.754500000000E-01
   3   6     2.669800000000E-01  8.147500000000E-01  3.872900000000E-01
   4   6     2.490600000000E-01 -4.514000000000E-02  3.759500000000E-01
   5   6     1.717100000000E-01  7.215100000000E-01  3.644700000000E-01
   6   6     3.390900000000E-01  5.552300000000E-01  3.799300000000E-01
   7   6     3.910500000000E-01  7.671000000000E-01  4.113900000000E-01
   8   6     7.892100000000E-01  4.082800000000E-01  3.611300000000E-01
   9   7     3.317500000000E-01  3.232000000000E-02  3.240700000000E-01
  10   7     2.818300000000E-01  1.561700000000E-01  3.275200000000E-01
  11   7     1.504400000000E-01  2.832000000000E-02  4.107700000000E-01
  12   7     1.723500000000E-01  1.540900000000E-01  3.789300000000E-01
  13   7     4.281600000000E-01  6.449200000000E-01  4.066900000000E-01
  14   9     4.815500000000E-01  8.535600000000E-01  4.428800000000E-01
  15   9     1.256400000000E-01  4.977600000000E-01  3.363400000000E-01
  16  30     0.000000000000E+00  5.000000000000E-01  7.500000000000E-01
  17  30     0.000000000000E+00  0.000000000000E+00  5.000000000000E-01

 *******************************************************************************

 << INFORMATION >>: FROM NOW ON, ALL COORDINATES REFER TO THE PRIMITIVE CELL

 *******************************************************************************

 LATTICE PARAMETERS  (ANGSTROMS AND DEGREES) - PRIMITIVE CELL
       A          B          C        ALPHA      BETA     GAMMA        VOLUME
    9.86320    9.86320    9.86320   117.13314 117.13314  95.04169    704.929968

 COORDINATES OF THE EQUIVALENT ATOMS (FRACTIONAL UNITS)

 N. ATOM EQUIV AT. N.          X                  Y                  Z

   1   1   1    1 H     9.49900000000E-02  4.18210000000E-01 -1.80240000000E-01
   2   1   2    1 H    -4.01550000000E-01  2.75230000000E-01  1.80240000000E-01
   3   1   3    1 H    -4.18210000000E-01  4.01550000000E-01 -3.23220000000E-01
   4   1   4    1 H    -2.75230000000E-01 -9.49900000000E-02  3.23220000000E-01

   5   2   1    1 H    -1.70670000000E-01 -2.53480000000E-01 -1.75050000000E-01
   6   2   2    1 H    -7.84300000000E-02  4.38000000000E-03  1.75050000000E-01
   7   2   3    1 H     2.53480000000E-01  7.84300000000E-02  8.28100000000E-02
   8   2   4    1 H    -4.38000000000E-03  1.70670000000E-01 -8.28100000000E-02

   9   3   1    6 C     2.02040000000E-01 -3.45730000000E-01  8.17300000000E-02
  10   3   2    6 C    -4.27460000000E-01  1.20310000000E-01 -8.17300000000E-02
  11   3   3    6 C     3.45730000000E-01  4.27460000000E-01 -4.52230000000E-01
  12   3   4    6 C    -1.20310000000E-01 -2.02040000000E-01  4.52230000000E-01

  13   4   1    6 C     3.30810000000E-01 -3.74990000000E-01  2.03920000000E-01
  14   4   2    6 C     4.21090000000E-01  1.26890000000E-01 -2.03920000000E-01
  15   4   3    6 C     3.74990000000E-01 -4.21090000000E-01 -2.94200000000E-01
  16   4   4    6 C    -1.26890000000E-01 -3.30810000000E-01  2.94200000000E-01

  17   5   1    6 C     8.59800000000E-02 -4.63820000000E-01 -1.06780000000E-01
  18   5   2    6 C    -3.57040000000E-01  1.92760000000E-01  1.06780000000E-01
  19   5   3    6 C     4.63820000000E-01  3.57040000000E-01 -4.50200000000E-01
  20   5   4    6 C    -1.92760000000E-01 -8.59800000000E-02  4.50200000000E-01

  21   6   1    6 C    -6.48400000000E-02 -2.80980000000E-01 -1.05680000000E-01
  22   6   2    6 C    -1.75300000000E-01  4.08400000000E-02  1.05680000000E-01
  23   6   3    6 C     2.80980000000E-01  1.75300000000E-01  2.16140000000E-01
  24   6   4    6 C    -4.08400000000E-02  6.48400000000E-02 -2.16140000000E-01
 PROCESS            1  OF           24  WORKING

  25   7   1    6 C     1.78490000000E-01 -1.97560000000E-01  1.58150000000E-01
  26   7   2    6 C    -3.55710000000E-01  2.03400000000E-02 -1.58150000000E-01
  27   7   3    6 C     1.97560000000E-01  3.55710000000E-01  3.76050000000E-01
  28   7   4    6 C    -2.03400000000E-02 -1.78490000000E-01 -3.76050000000E-01

  29   8   1    6 C    -2.30590000000E-01  1.50340000000E-01  1.97490000000E-01
  30   8   2    6 C    -4.71500000000E-02 -4.28080000000E-01 -1.97490000000E-01
  31   8   3    6 C    -1.50340000000E-01  4.71500000000E-02 -3.80930000000E-01
  32   8   4    6 C     4.28080000000E-01  2.30590000000E-01  3.80930000000E-01

  33   9   1    7 N     3.56390000000E-01 -3.44180000000E-01  3.64070000000E-01
  34   9   2    7 N     2.91750000000E-01 -7.68000000000E-03 -3.64070000000E-01
  35   9   3    7 N     3.44180000000E-01 -2.91750000000E-01 -2.99430000000E-01
  36   9   4    7 N     7.68000000000E-03 -3.56390000000E-01  2.99430000000E-01

  37  10   1    7 N     4.83690000000E-01 -3.90650000000E-01  4.38000000000E-01
  38  10   2    7 N     1.71350000000E-01  4.56900000000E-02 -4.38000000000E-01
  39  10   3    7 N     3.90650000000E-01 -1.71350000000E-01 -1.25660000000E-01
  40  10   4    7 N    -4.56900000000E-02 -4.83690000000E-01  1.25660000000E-01

  41  11   1    7 N     4.39090000000E-01 -4.38790000000E-01  1.78760000000E-01
  42  11   2    7 N     3.82450000000E-01  2.60330000000E-01 -1.78760000000E-01
  43  11   3    7 N     4.38790000000E-01 -3.82450000000E-01 -1.22120000000E-01
  44  11   4    7 N    -2.60330000000E-01 -4.39090000000E-01  1.22120000000E-01

  45  12   1    7 N    -4.66980000000E-01 -4.48720000000E-01  3.26440000000E-01
  46  12   2    7 N     2.24840000000E-01  2.06580000000E-01 -3.26440000000E-01
  47  12   3    7 N     4.48720000000E-01 -2.24840000000E-01 -1.82600000000E-02
  48  12   4    7 N    -2.06580000000E-01  4.66980000000E-01  1.82600000000E-02

  49  13   1    7 N     5.16100000000E-02 -1.65150000000E-01  7.30800000000E-02
  50  13   2    7 N    -2.38230000000E-01 -2.14700000000E-02 -7.30800000000E-02
  51  13   3    7 N     1.65150000000E-01  2.38230000000E-01  2.16760000000E-01
  52  13   4    7 N     2.14700000000E-02 -5.16100000000E-02 -2.16760000000E-01

  53  14   1    9 F     2.96440000000E-01 -7.55700000000E-02  3.35110000000E-01
  54  14   2    9 F    -4.10680000000E-01 -3.86700000000E-02 -3.35110000000E-01
  55  14   3    9 F     7.55700000000E-02  4.10680000000E-01  3.72010000000E-01
  56  14   4    9 F     3.86700000000E-02 -2.96440000000E-01 -3.72010000000E-01

  57  15   1    9 F    -1.65900000000E-01  4.61980000000E-01 -3.76600000000E-01
  58  15   2    9 F    -1.61420000000E-01  2.10700000000E-01  3.76600000000E-01
  59  15   3    9 F    -4.61980000000E-01  1.61420000000E-01  3.72120000000E-01
  60  15   4    9 F    -2.10700000000E-01  1.65900000000E-01 -3.72120000000E-01

  61  16   1   30 ZN    2.50000000000E-01 -2.50000000000E-01 -5.00000000000E-01

  62  17   1   30 ZN   -5.00000000000E-01 -5.00000000000E-01  0.00000000000E+00

 NUMBER OF SYMMETRY OPERATORS         :    4
 *******************************************************************************
 * GEOMETRY EDITING - INPUT COORDINATES ARE GIVEN IN ANGSTROM         
 *******************************************************************************

 GEOMETRY NOW FULLY CONSISTENT WITH THE GROUP
 PROCESS           22  OF           24  WORKING

 GCALCO - MAX INDICES DIRECT LATTICE VECTOR    14    14    16
 NO.OF VECTORS CREATED 6999 STARS  482 RMAX   200.15221 BOHR

 GEOMETRY FOR WAVE FUNCTION - DIMENSIONALITY OF THE SYSTEM    3
 (NON PERIODIC DIRECTION: LATTICE PARAMETER FORMALLY SET TO 500)
 *******************************************************************************
 LATTICE PARAMETERS (ANGSTROMS AND DEGREES) - BOHR = 0.5291772083 ANGSTROM
 PRIMITIVE CELL - CENTRING CODE 6/0 VOLUME=   704.929968 - DENSITY  2.016 g/cm^3
         A              B              C           ALPHA      BETA       GAMMA 
     9.86320280     9.86320280     9.86320280   117.133137 117.133137  95.041693
 *******************************************************************************
 ATOMS IN THE ASYMMETRIC UNIT   17 - ATOMS IN THE UNIT CELL:   62
     ATOM                 X/A                 Y/B                 Z/C    
 *******************************************************************************
      1 T   1 H     9.499000000000E-02  4.182100000000E-01 -1.802400000000E-01
      2 F   1 H    -4.015500000000E-01  2.752300000000E-01  1.802400000000E-01
      3 F   1 H    -4.182100000000E-01  4.015500000000E-01 -3.232200000000E-01
      4 F   1 H    -2.752300000000E-01 -9.499000000000E-02  3.232200000000E-01
      5 T   1 H    -1.706700000000E-01 -2.534800000000E-01 -1.750500000000E-01
      6 F   1 H    -7.843000000000E-02  4.380000000000E-03  1.750500000000E-01
      7 F   1 H     2.534800000000E-01  7.843000000000E-02  8.281000000000E-02
      8 F   1 H    -4.380000000000E-03  1.706700000000E-01 -8.281000000000E-02
      9 T   6 C     2.020400000000E-01 -3.457300000000E-01  8.173000000000E-02
     10 F   6 C    -4.274600000000E-01  1.203100000000E-01 -8.173000000000E-02
     11 F   6 C     3.457300000000E-01  4.274600000000E-01 -4.522300000000E-01
     12 F   6 C    -1.203100000000E-01 -2.020400000000E-01  4.522300000000E-01
     13 T   6 C     3.308100000000E-01 -3.749900000000E-01  2.039200000000E-01
     14 F   6 C     4.210900000000E-01  1.268900000000E-01 -2.039200000000E-01
     15 F   6 C     3.749900000000E-01 -4.210900000000E-01 -2.942000000000E-01
     16 F   6 C    -1.268900000000E-01 -3.308100000000E-01  2.942000000000E-01
     17 T   6 C     8.598000000000E-02 -4.638200000000E-01 -1.067800000000E-01
     18 F   6 C    -3.570400000000E-01  1.927600000000E-01  1.067800000000E-01
     19 F   6 C     4.638200000000E-01  3.570400000000E-01 -4.502000000000E-01
     20 F   6 C    -1.927600000000E-01 -8.598000000000E-02  4.502000000000E-01
     21 T   6 C    -6.484000000000E-02 -2.809800000000E-01 -1.056800000000E-01
     22 F   6 C    -1.753000000000E-01  4.084000000000E-02  1.056800000000E-01
     23 F   6 C     2.809800000000E-01  1.753000000000E-01  2.161400000000E-01
     24 F   6 C    -4.084000000000E-02  6.484000000000E-02 -2.161400000000E-01
     25 T   6 C     1.784900000000E-01 -1.975600000000E-01  1.581500000000E-01
     26 F   6 C    -3.557100000000E-01  2.034000000000E-02 -1.581500000000E-01
     27 F   6 C     1.975600000000E-01  3.557100000000E-01  3.760500000000E-01
     28 F   6 C    -2.034000000000E-02 -1.784900000000E-01 -3.760500000000E-01
     29 T   6 C    -2.305900000000E-01  1.503400000000E-01  1.974900000000E-01
     30 F   6 C    -4.715000000000E-02 -4.280800000000E-01 -1.974900000000E-01
     31 F   6 C    -1.503400000000E-01  4.715000000000E-02 -3.809300000000E-01
     32 F   6 C     4.280800000000E-01  2.305900000000E-01  3.809300000000E-01
     33 T   7 N     3.563900000000E-01 -3.441800000000E-01  3.640700000000E-01
     34 F   7 N     2.917500000000E-01 -7.680000000000E-03 -3.640700000000E-01
     35 F   7 N     3.441800000000E-01 -2.917500000000E-01 -2.994300000000E-01
     36 F   7 N     7.680000000000E-03 -3.563900000000E-01  2.994300000000E-01
     37 T   7 N     4.836900000000E-01 -3.906500000000E-01  4.380000000000E-01
     38 F   7 N     1.713500000000E-01  4.569000000000E-02 -4.380000000000E-01
     39 F   7 N     3.906500000000E-01 -1.713500000000E-01 -1.256600000000E-01
     40 F   7 N    -4.569000000000E-02 -4.836900000000E-01  1.256600000000E-01
     41 T   7 N     4.390900000000E-01 -4.387900000000E-01  1.787600000000E-01
     42 F   7 N     3.824500000000E-01  2.603300000000E-01 -1.787600000000E-01
     43 F   7 N     4.387900000000E-01 -3.824500000000E-01 -1.221200000000E-01
     44 F   7 N    -2.603300000000E-01 -4.390900000000E-01  1.221200000000E-01
     45 T   7 N    -4.669800000000E-01 -4.487200000000E-01  3.264400000000E-01
     46 F   7 N     2.248400000000E-01  2.065800000000E-01 -3.264400000000E-01
     47 F   7 N     4.487200000000E-01 -2.248400000000E-01 -1.826000000000E-02
     48 F   7 N    -2.065800000000E-01  4.669800000000E-01  1.826000000000E-02
     49 T   7 N     5.161000000000E-02 -1.651500000000E-01  7.308000000000E-02
     50 F   7 N    -2.382300000000E-01 -2.147000000000E-02 -7.308000000000E-02
     51 F   7 N     1.651500000000E-01  2.382300000000E-01  2.167600000000E-01
     52 F   7 N     2.147000000000E-02 -5.161000000000E-02 -2.167600000000E-01
     53 T   9 F     2.964400000000E-01 -7.557000000000E-02  3.351100000000E-01
     54 F   9 F    -4.106800000000E-01 -3.867000000000E-02 -3.351100000000E-01
     55 F   9 F     7.557000000000E-02  4.106800000000E-01  3.720100000000E-01
     56 F   9 F     3.867000000000E-02 -2.964400000000E-01 -3.720100000000E-01
     57 T   9 F    -1.659000000000E-01  4.619800000000E-01 -3.766000000000E-01
     58 F   9 F    -1.614200000000E-01  2.107000000000E-01  3.766000000000E-01
     59 F   9 F    -4.619800000000E-01  1.614200000000E-01  3.721200000000E-01
     60 F   9 F    -2.107000000000E-01  1.659000000000E-01 -3.721200000000E-01
     61 T  30 ZN    2.500000000000E-01 -2.500000000000E-01 -5.000000000000E-01
     62 T  30 ZN    5.000000000000E-01 -5.000000000000E-01  0.000000000000E+00

 TRANSFORMATION MATRIX PRIMITIVE-CRYSTALLOGRAPHIC CELL
  0.0000  1.0000  1.0000  1.0000  0.0000  1.0000  1.0000  1.0000  0.0000

 *******************************************************************************
 CRYSTALLOGRAPHIC CELL (VOLUME=       1409.85993599)
         A              B              C           ALPHA      BETA       GAMMA 
    10.28747007    10.28747007    13.32167394    90.000000  90.000000  90.000000

 COORDINATES IN THE CRYSTALLOGRAPHIC CELL
     ATOM                 X/A                 Y/B                 Z/C    
 *******************************************************************************
      1 T   1 H     7.149000000000E-02 -2.517300000000E-01  3.467200000000E-01
      2 F   1 H    -7.149000000000E-02  2.517300000000E-01  3.467200000000E-01
      3 F   1 H    -2.517300000000E-01 -7.149000000000E-02 -3.467200000000E-01
      4 F   1 H     2.517300000000E-01  7.149000000000E-02 -3.467200000000E-01
      5 T   1 H    -1.289300000000E-01 -4.612000000000E-02 -1.245500000000E-01
      6 F   1 H     1.289300000000E-01  4.612000000000E-02 -1.245500000000E-01
      7 F   1 H    -4.612000000000E-02  1.289300000000E-01  1.245500000000E-01
      8 F   1 H     4.612000000000E-02 -1.289300000000E-01  1.245500000000E-01
      9 T   6 C    -2.330200000000E-01  3.147500000000E-01 -1.127100000000E-01
     10 F   6 C     2.330200000000E-01 -3.147500000000E-01 -1.127100000000E-01
     11 F   6 C     3.147500000000E-01  2.330200000000E-01  1.127100000000E-01
     12 F   6 C    -3.147500000000E-01 -2.330200000000E-01  1.127100000000E-01
     13 T   6 C    -2.509400000000E-01  4.548600000000E-01 -1.240500000000E-01
     14 F   6 C     2.509400000000E-01 -4.548600000000E-01 -1.240500000000E-01
     15 F   6 C     4.548600000000E-01  2.509400000000E-01  1.240500000000E-01
     16 F   6 C    -4.548600000000E-01 -2.509400000000E-01  1.240500000000E-01
     17 T   6 C    -3.282900000000E-01  2.215100000000E-01 -1.355300000000E-01
     18 F   6 C     3.282900000000E-01 -2.215100000000E-01 -1.355300000000E-01
     19 F   6 C     2.215100000000E-01  3.282900000000E-01  1.355300000000E-01
     20 F   6 C    -2.215100000000E-01 -3.282900000000E-01  1.355300000000E-01
     21 T   6 C    -1.609100000000E-01  5.523000000000E-02 -1.200700000000E-01
     22 F   6 C     1.609100000000E-01 -5.523000000000E-02 -1.200700000000E-01
     23 F   6 C     5.523000000000E-02  1.609100000000E-01  1.200700000000E-01
     24 F   6 C    -5.523000000000E-02 -1.609100000000E-01  1.200700000000E-01
     25 T   6 C    -1.089500000000E-01  2.671000000000E-01 -8.861000000000E-02
     26 F   6 C     1.089500000000E-01 -2.671000000000E-01 -8.861000000000E-02
     27 F   6 C     2.671000000000E-01  1.089500000000E-01  8.861000000000E-02
     28 F   6 C    -2.671000000000E-01 -1.089500000000E-01  8.861000000000E-02
     29 T   6 C     2.892100000000E-01 -9.172000000000E-02 -1.388700000000E-01
     30 F   6 C    -2.892100000000E-01  9.172000000000E-02 -1.388700000000E-01
     31 F   6 C    -9.172000000000E-02 -2.892100000000E-01  1.388700000000E-01
     32 F   6 C     9.172000000000E-02  2.892100000000E-01  1.388700000000E-01
     33 T   7 N     3.317500000000E-01  3.232000000000E-02  3.240700000000E-01
     34 F   7 N    -3.317500000000E-01 -3.232000000000E-02  3.240700000000E-01
     35 F   7 N     3.232000000000E-02 -3.317500000000E-01 -3.240700000000E-01
     36 F   7 N    -3.232000000000E-02  3.317500000000E-01 -3.240700000000E-01
     37 T   7 N    -2.181700000000E-01 -3.438300000000E-01 -1.724800000000E-01
     38 F   7 N     2.181700000000E-01  3.438300000000E-01 -1.724800000000E-01
     39 F   7 N    -3.438300000000E-01  2.181700000000E-01  1.724800000000E-01
     40 F   7 N     3.438300000000E-01 -2.181700000000E-01  1.724800000000E-01
     41 T   7 N     1.504400000000E-01  2.832000000000E-02  4.107700000000E-01
     42 F   7 N    -1.504400000000E-01 -2.832000000000E-02  4.107700000000E-01
     43 F   7 N     2.832000000000E-02 -1.504400000000E-01 -4.107700000000E-01
     44 F   7 N    -2.832000000000E-02  1.504400000000E-01 -4.107700000000E-01
     45 T   7 N    -3.276500000000E-01 -3.459100000000E-01 -1.210700000000E-01
     46 F   7 N     3.276500000000E-01  3.459100000000E-01 -1.210700000000E-01
     47 F   7 N    -3.459100000000E-01  3.276500000000E-01  1.210700000000E-01
     48 F   7 N     3.459100000000E-01 -3.276500000000E-01  1.210700000000E-01
     49 T   7 N    -7.184000000000E-02  1.449200000000E-01 -9.331000000000E-02
     50 F   7 N     7.184000000000E-02 -1.449200000000E-01 -9.331000000000E-02
     51 F   7 N     1.449200000000E-01  7.184000000000E-02  9.331000000000E-02
     52 F   7 N    -1.449200000000E-01 -7.184000000000E-02  9.331000000000E-02
     53 T   9 F    -1.845000000000E-02  3.535600000000E-01 -5.712000000000E-02
     54 F   9 F     1.845000000000E-02 -3.535600000000E-01 -5.712000000000E-02
     55 F   9 F     3.535600000000E-01  1.845000000000E-02  5.712000000000E-02
     56 F   9 F    -3.535600000000E-01 -1.845000000000E-02  5.712000000000E-02
     57 T   9 F    -3.743600000000E-01 -2.240000000000E-03 -1.636600000000E-01
     58 F   9 F     3.743600000000E-01  2.240000000000E-03 -1.636600000000E-01
     59 F   9 F    -2.240000000000E-03  3.743600000000E-01  1.636600000000E-01
     60 F   9 F     2.240000000000E-03 -3.743600000000E-01  1.636600000000E-01
     61 T  30 ZN    5.000000000000E-01  9.137402555675E-17  2.500000000000E-01
     62 T  30 ZN    0.000000000000E+00  0.000000000000E+00 -5.000000000000E-01

 T = ATOM BELONGING TO THE ASYMMETRIC UNIT

 ****    4 SYMMOPS - TRANSLATORS IN FRACTIONAL UNITS
 **** MATRICES AND TRANSLATORS IN THE CRYSTALLOGRAPHIC REFERENCE FRAME
   V INV                    ROTATION MATRICES                   TRANSLATORS
   1   1  1.00  0.00  0.00  0.00  1.00  0.00  0.00  0.00  1.00  0.00  0.00  0.00
   2   2 -0.00  1.00 -1.00  1.00 -0.00 -1.00  0.00 -0.00 -1.00  0.00  0.00  0.00
   3   4  0.00 -1.00 -0.00  0.00 -1.00  1.00  1.00 -1.00 -0.00  0.00  0.00  0.00
   4   3 -1.00  0.00  1.00 -1.00  0.00 -0.00 -1.00  1.00  0.00  0.00  0.00  0.00

 DIRECT LATTICE VECTORS CARTESIAN COMPONENTS (ANGSTROM)
          X                    Y                    Z
  -0.514373503570E+01   0.514373503570E+01   0.666083697210E+01
   0.514373503570E+01  -0.514373503570E+01   0.666083697210E+01
   0.514373503570E+01   0.514373503570E+01  -0.666083697210E+01


 CARTESIAN COORDINATES - PRIMITIVE CELL
 *******************************************************************************
 *      ATOM          X(ANGSTROM)         Y(ANGSTROM)         Z(ANGSTROM)
 *******************************************************************************
    1     1 H     7.354512354044E-01 -2.589664841074E+00  4.618890789933E+00
    2     1 H    -7.354512354044E-01  2.589664841074E+00  4.618890789933E+00
    3     1 H    -2.589664841074E+00 -7.354512354044E-01 -4.618890789933E+00
    4     1 H     2.589664841074E+00  7.354512354044E-01 -4.618890789933E+00
    5     1 H    -1.326363516306E+00 -4.744581196930E-01 -1.659214489750E+00
    6     1 H     1.326363516306E+00  4.744581196930E-01 -1.659214489750E+00
    7     1 H    -4.744581196930E-01  1.326363516306E+00  1.659214489750E+00
    8     1 H     4.744581196930E-01 -1.326363516306E+00  1.659214489750E+00
    9     6 C    -2.397186276038E+00  3.237981204973E+00 -1.501485870251E+00
   10     6 C     2.397186276038E+00 -3.237981204973E+00 -1.501485870251E+00
   11     6 C     3.237981204973E+00  2.397186276038E+00  1.501485870251E+00
   12     6 C    -3.237981204973E+00 -2.397186276038E+00  1.501485870251E+00
   13     6 C    -2.581537739717E+00  4.679358636677E+00 -1.652553652778E+00
   14     6 C     2.581537739717E+00 -4.679358636677E+00 -1.652553652778E+00
   15     6 C     4.679358636677E+00  2.581537739717E+00  1.652553652778E+00
   16     6 C    -4.679358636677E+00 -2.581537739717E+00  1.652553652778E+00
   17     6 C    -3.377273549740E+00  2.278777495516E+00 -1.805486469657E+00
   18     6 C     3.377273549740E+00 -2.278777495516E+00 -1.805486469657E+00
   19     6 C     2.278777495516E+00  3.377273549740E+00  1.805486469657E+00
   20     6 C    -2.278777495516E+00 -3.377273549740E+00  1.805486469657E+00
   21     6 C    -1.655356809189E+00  5.681769720434E-01 -1.599533390480E+00
   22     6 C     1.655356809189E+00 -5.681769720434E-01 -1.599533390480E+00
   23     6 C     5.681769720434E-01  1.655356809189E+00  1.599533390480E+00
   24     6 C    -5.681769720434E-01 -1.655356809189E+00  1.599533390480E+00
   25     6 C    -1.120819864279E+00  2.747783256071E+00 -1.180433528196E+00
   26     6 C     1.120819864279E+00 -2.747783256071E+00 -1.180433528196E+00
   27     6 C     2.747783256071E+00  1.120819864279E+00  1.180433528196E+00
   28     6 C    -2.747783256071E+00 -1.120819864279E+00  1.180433528196E+00
   29     6 C     2.975239219350E+00 -9.435667549488E-01 -1.849980860631E+00
   30     6 C    -2.975239219350E+00  9.435667549488E-01 -1.849980860631E+00
   31     6 C    -9.435667549488E-01 -2.975239219350E+00  1.849980860631E+00
   32     6 C     9.435667549488E-01  2.975239219350E+00  1.849980860631E+00
   33     7 N     3.412868196187E+00  3.324910327076E-01  4.317154875097E+00
   34     7 N    -3.412868196187E+00 -3.324910327076E-01  4.317154875097E+00
   35     7 N     3.324910327076E-01 -3.412868196187E+00 -4.317154875097E+00
   36     7 N    -3.324910327076E-01  3.412868196187E+00 -4.317154875097E+00
   37     7 N    -2.244417345477E+00 -3.537140834649E+00 -2.297722321896E+00
   38     7 N     2.244417345477E+00  3.537140834649E+00 -2.297722321896E+00
   39     7 N    -3.537140834649E+00  2.244417345477E+00  2.297722321896E+00
   40     7 N     3.537140834649E+00 -2.244417345477E+00  2.297722321896E+00
   41     7 N     1.547646997541E+00  2.913411524220E-01  5.472144006059E+00
   42     7 N    -1.547646997541E+00 -2.913411524220E-01  5.472144006059E+00
   43     7 N     2.913411524220E-01 -1.547646997541E+00 -5.472144006059E+00
   44     7 N    -2.913411524220E-01  1.547646997541E+00 -5.472144006059E+00
   45     7 N    -3.370689568894E+00 -3.558538772398E+00 -1.612855064424E+00
   46     7 N     3.370689568894E+00  3.558538772398E+00 -1.612855064424E+00
   47     7 N    -3.558538772398E+00  3.370689568894E+00  1.612855064424E+00
   48     7 N     3.558538772398E+00 -3.370689568894E+00  1.612855064424E+00
   49     7 N    -7.390518499294E-01  1.490860162747E+00 -1.243045395733E+00
   50     7 N     7.390518499294E-01 -1.490860162747E+00 -1.243045395733E+00
   51     7 N     1.490860162747E+00  7.390518499294E-01  1.243045395733E+00
   52     7 N    -1.490860162747E+00 -7.390518499294E-01  1.243045395733E+00
   53     9 F    -1.898038228173E-01  3.637237918444E+00 -7.609340156927E-01
   54     9 F     1.898038228173E-01 -3.637237918444E+00 -7.609340156927E-01
   55     9 F     3.637237918444E+00  1.898038228173E-01  7.609340156927E-01
   56     9 F    -3.637237918444E+00 -1.898038228173E-01  7.609340156927E-01
   57     9 F    -3.851217295929E+00 -2.304393295994E-02 -2.180225157708E+00
   58     9 F     3.851217295929E+00  2.304393295994E-02 -2.180225157708E+00
   59     9 F    -2.304393295994E-02  3.851217295929E+00  2.180225157708E+00
   60     9 F     2.304393295994E-02 -3.851217295929E+00  2.180225157708E+00
   61    30 ZN    5.143735035700E+00  9.400075532184E-16 -9.991255458150E+00
   62    30 ZN    0.000000000000E+00  0.000000000000E+00  6.660836972100E+00

 *******************************************************************************
 STARTING BASIS SET HANDLING 
 *******************************************************************************

 Loading internal basis set: POB-DZVPP           

 Please cite in your publication:
 Peintinger, M. F., Oliveira, D. V. and Bredow, T. (2013), Generally applicable 
 solid-state Gaussian basis sets, in preparation                                
                                                                                
                    

 *******************************************************************************
 LOCAL ATOMIC FUNCTIONS BASIS SET
 *******************************************************************************
   ATOM   X(AU)   Y(AU)   Z(AU)  N. TYPE  EXPONENT  S COEF   P COEF   D/F/G COEF
 *******************************************************************************
   1 H    1.390  -4.894   8.728
                                  1 S  
                                         2.263E+01 1.441E-02 0.000E+00 0.000E+00
                                         3.236E+00 1.072E-01 0.000E+00 0.000E+00
                                         7.304E-01 3.846E-01 0.000E+00 0.000E+00
                                  2 S  
                                         1.417E-01 1.000E+00 0.000E+00 0.000E+00
                           3-     5 P  
                                         3.944E-01 0.000E+00 1.000E+00 0.000E+00
                           6-     8 P  
                                         1.006E-01 0.000E+00 1.000E+00 0.000E+00
   2 H   -1.390   4.894   8.728
   3 H   -4.894  -1.390  -8.728
   4 H    4.894   1.390  -8.728
   5 H   -2.506  -0.897  -3.135
   6 H    2.506   0.897  -3.135
   7 H   -0.897   2.506   3.135
   8 H    0.897  -2.506   3.135
   9 C   -4.530   6.119  -2.837
                                 65 S  
                                         1.238E+03 5.457E-03 0.000E+00 0.000E+00
                                         1.863E+02 4.064E-02 0.000E+00 0.000E+00
                                         4.225E+01 1.803E-01 0.000E+00 0.000E+00
                                         1.168E+01 4.632E-01 0.000E+00 0.000E+00
                                         3.593E+00 4.409E-01 0.000E+00 0.000E+00
                                 66 S  
                                         5.281E+00 1.000E+00 0.000E+00 0.000E+00
                                 67 S  
                                         4.447E-01 1.000E+00 0.000E+00 0.000E+00
                          68-    70 P  
                                         9.468E+00 0.000E+00 3.839E-02 0.000E+00
                                         2.010E+00 0.000E+00 2.112E-01 0.000E+00
                                         5.477E-01 0.000E+00 5.133E-01 0.000E+00
                          71-    73 P  
                                         1.604E-01 0.000E+00 1.000E+00 0.000E+00
                          74-    78 D  
                                         6.070E-01 0.000E+00 0.000E+00 1.000E+00
                          79-    83 D  
                                         2.939E-01 0.000E+00 0.000E+00 1.000E+00
  10 C    4.530  -6.119  -2.837
  11 C    6.119   4.530   2.837
  12 C   -6.119  -4.530   2.837
  13 C   -4.878   8.843  -3.123
  14 C    4.878  -8.843  -3.123
  15 C    8.843   4.878   3.123
  16 C   -8.843  -4.878   3.123
  17 C   -6.382   4.306  -3.412
  18 C    6.382  -4.306  -3.412
  19 C    4.306   6.382   3.412
  20 C   -4.306  -6.382   3.412
  21 C   -3.128   1.074  -3.023
  22 C    3.128  -1.074  -3.023
  23 C    1.074   3.128   3.023
  24 C   -1.074  -3.128   3.023
  25 C   -2.118   5.193  -2.231
  26 C    2.118  -5.193  -2.231
  27 C    5.193   2.118   2.231
  28 C   -5.193  -2.118   2.231
  29 C    5.622  -1.783  -3.496
  30 C   -5.622   1.783  -3.496
  31 C   -1.783  -5.622   3.496
  32 C    1.783   5.622   3.496
  33 N    6.449   0.628   8.158
                                521 S  
                                         1.713E+03-5.393E-03 0.000E+00 0.000E+00
                                         2.576E+02-4.022E-02 0.000E+00 0.000E+00
                                         5.846E+01-1.793E-01 0.000E+00 0.000E+00
                                         1.620E+01-4.638E-01 0.000E+00 0.000E+00
                                         5.005E+00-4.417E-01 0.000E+00 0.000E+00
                                522 S  
                                         6.217E-01 1.000E+00 0.000E+00 0.000E+00
                                523 S  
                                         2.921E-01 1.000E+00 0.000E+00 0.000E+00
                         524-   526 P  
                                         1.357E+01 0.000E+00-4.007E-02 0.000E+00
                                         2.926E+00 0.000E+00-2.181E-01 0.000E+00
                                         7.993E-01 0.000E+00-5.129E-01 0.000E+00
                         527-   529 P  
                                         2.244E-01 0.000E+00 1.000E+00 0.000E+00
                         530-   534 D  
                                         3.118E-01 0.000E+00 0.000E+00 1.000E+00
  34 N   -6.449  -0.628   8.158
  35 N    0.628  -6.449  -8.158
  36 N   -0.628   6.449  -8.158
  37 N   -4.241  -6.684  -4.342
  38 N    4.241   6.684  -4.342
  39 N   -6.684   4.241   4.342
  40 N    6.684  -4.241   4.342
  41 N    2.925   0.551  10.341
  42 N   -2.925  -0.551  10.341
  43 N    0.551  -2.925 -10.341
  44 N   -0.551   2.925 -10.341
  45 N   -6.370  -6.725  -3.048
  46 N    6.370   6.725  -3.048
  47 N   -6.725   6.370   3.048
  48 N    6.725  -6.370   3.048
  49 N   -1.397   2.817  -2.349
  50 N    1.397  -2.817  -2.349
  51 N    2.817   1.397   2.349
  52 N   -2.817  -1.397   2.349
  53 F   -0.359   6.873  -1.438
                                801 S  
                                         2.895E+03-5.341E-03 0.000E+00 0.000E+00
                                         4.354E+02-3.990E-02 0.000E+00 0.000E+00
                                         9.884E+01-1.791E-01 0.000E+00 0.000E+00
                                         2.749E+01-4.676E-01 0.000E+00 0.000E+00
                                         8.541E+00-4.465E-01 0.000E+00 0.000E+00
                                802 S  
                                         1.123E+00 1.000E+00 0.000E+00 0.000E+00
                                803 S  
                                         3.743E-01 1.000E+00 0.000E+00 0.000E+00
                         804-   806 P  
                                         2.270E+01 0.000E+00-4.521E-02 0.000E+00
                                         4.987E+00 0.000E+00-2.375E-01 0.000E+00
                                         1.349E+00 0.000E+00-5.129E-01 0.000E+00
                         807-   809 P  
                                         3.474E-01 0.000E+00 1.000E+00 0.000E+00
                         810-   814 D  
                                         9.203E-01 0.000E+00 0.000E+00 1.000E+00
                         815-   819 D  
                                         3.977E-01 0.000E+00 0.000E+00 1.000E+00
  54 F    0.359  -6.873  -1.438
  55 F    6.873   0.359   1.438
  56 F   -6.873  -0.359   1.438
  57 F   -7.278  -0.044  -4.120
  58 F    7.278   0.044  -4.120
  59 F   -0.044   7.278   4.120
  60 F    0.044  -7.278   4.120
  61 ZN   9.720   0.000 -18.881
                                953 S  
                                         8.200E+04 1.421E-03 0.000E+00 0.000E+00
                                         1.231E+04 1.089E-02 0.000E+00 0.000E+00
                                         2.801E+03 5.406E-02 0.000E+00 0.000E+00
                                         7.910E+02 1.885E-01 0.000E+00 0.000E+00
                                         2.576E+02 3.835E-01 0.000E+00 0.000E+00
                                         8.881E+01 2.972E-01 0.000E+00 0.000E+00
                                954 S  
                                         1.719E+02-1.105E-01 0.000E+00 0.000E+00
                                         2.030E+01 6.461E-01 0.000E+00 0.000E+00
                                         8.346E+00 4.422E-01 0.000E+00 0.000E+00
                                955 S  
                                         1.485E+01-2.271E-01 0.000E+00 0.000E+00
                                         2.450E+00 7.243E-01 0.000E+00 0.000E+00
                                         9.985E-01 4.484E-01 0.000E+00 0.000E+00
                                956 S  
                                         1.493E+00 1.000E+00 0.000E+00 0.000E+00
                                957 S  
                                         1.830E-01 1.000E+00 0.000E+00 0.000E+00
                         958-   960 P  
                                         1.072E+03 0.000E+00 9.277E-03 0.000E+00
                                         2.527E+02 0.000E+00 6.954E-02 0.000E+00
                                         8.010E+01 0.000E+00 2.716E-01 0.000E+00
                                         2.890E+01 0.000E+00 5.340E-01 0.000E+00
                                         1.077E+01 0.000E+00 3.450E-01 0.000E+00
                         961-   963 P  
                                         5.645E+00 0.000E+00 3.413E-01 0.000E+00
                                         2.168E+00 0.000E+00 5.639E-01 0.000E+00
                                         8.054E-01 0.000E+00 2.368E-01 0.000E+00
                         964-   966 P  
                                         2.721E-01 0.000E+00 1.000E+00 0.000E+00
                         967-   971 D  
                                         5.609E+01 0.000E+00 0.000E+00 2.959E-02
                                         1.575E+01 0.000E+00 0.000E+00 1.587E-01
                                         5.312E+00 0.000E+00 0.000E+00 3.798E-01
                                         1.774E+00 0.000E+00 0.000E+00 4.690E-01
                         972-   976 D  
                                         5.073E-01 0.000E+00 0.000E+00 1.000E+00
                         977-   983 F  
                                         2.814E+00 0.000E+00 0.000E+00 1.000E+00
                         984-   990 F  
                                         1.300E+00 0.000E+00 0.000E+00 1.000E+00
  62 ZN   0.000   0.000  12.587

 *******************************************************************************
 FINISHED BASIS SET HANDLING 
 *******************************************************************************

 INFORMATION **** SET_MPP **** PCRYSTAL CALCULATION
 INFORMATION **** READM2 **** NEW DEFAULT: FOCK/KS MATRIX MIXING SET TO 30 %
 INFORMATION **** READM2 **** NEW DEFAULT: FULL DIRECT SCF MODE
 INFORMATION **** READM2 **** NEW DEFAULT: COULOMB BIPOLAR BUFFER SET TO 32 Mb
 INFORMATION **** READM2 **** NEW DEFAULT: EXCHANGE BIPOLAR BUFFER SET TO 32 Mb

 *******************************************************************************
 NEW DEFAULT: DFT INTEGRATION GRID INCREASED TO XLGRID
 NEW DEFAULT: DIIS ACCELERATOR ACTIVE
 USE KEYWORD NODIIS TO TURN IT OFF
 *******************************************************************************

 INFORMATION **** DFTD3_INPUT **** PERFORM DISPERSION CORRECTION DFT-D3(BJ) IN THE BECKE-JOHNSON DAMPING SCHEME

 PLEASE CITE:
 (1) DFT-D3 Reference
  S. Grimme, J. Antony, S. Ehrlich, and H. Krieg, J. Chem. Phys. 132 (2010), 154104
 (2) BJ-Damping Reference
  S. Grimme, S. Ehrlich, and L. Goerigk, J. Comput. Chem. 32 (2011), 1456-1465
 (3) General DFT-D Review
  S. Grimme, A. Hansen, J. G. Brandenburg, and C. Bannwarth,
  Chem. Rev. 116 (2016), 5105-5154

 INFORMATION **** TOLINTEG **** COULOMB AND EXCHANGE SERIES TOLERANCES MODIFIED
 INFORMATION **** BIPOSIZE **** COULOMB BIPOLAR BUFFER SET TO   100000000
 INFORMATION **** MAXCYCLE **** MAX NUMBER OF SCF CYCLES SET TO          50
 *******************************************************************************
 N. OF ATOMS PER CELL        62  COULOMB OVERLAP TOL         (T1) 10**  -12
 NUMBER OF SHELLS           400  COULOMB PENETRATION TOL     (T2) 10**  -12
 NUMBER OF AO              1028  EXCHANGE OVERLAP TOL        (T3) 10**   20
 N. OF ELECTRONS PER CELL   424  EXCHANGE PSEUDO OVP (F(G))  (T4) 10**   20
 CORE ELECTRONS PER CELL    140  EXCHANGE PSEUDO OVP (P(G))  (T5) 10**   20
 N. OF SYMMETRY OPERATORS     4  POLE ORDER IN MONO ZONE                  4
 *******************************************************************************
 TYPE OF CALCULATION :  RESTRICTED CLOSED SHELL
 KOHN-SHAM HAMILTONIAN

 (EXCHANGE)[CORRELATION] FUNCTIONAL:(PERDEW-BURKE-ERNZERHOF)[PERDEW-BURKE-ERNZERHOF]


 CAPPA:IS1  3;IS2  3;IS3  3; K PTS MONK NET   6; SYMMOPS:K SPACE   8;G SPACE   4

 *******************************************************************************
 MAX NUMBER OF SCF CYCLES      50  CONVERGENCE ON DELTAP        10**-16
 WEIGHT OF F(I) IN F(I+1)      30% CONVERGENCE ON ENERGY        10**- 6
 SHRINK. FACT.(MONKH.)    3  3  3  NUMBER OF K POINTS IN THE IBZ      6
 SHRINKING FACTOR(GILAT NET)    3  NUMBER OF K POINTS(GILAT NET)      6
 *******************************************************************************
 *** K POINTS COORDINATES (OBLIQUE COORDINATES IN UNITS OF IS =  3)
   1-R(  0  0  0)   2-C(  1  0  0)   3-C(  1  1  0)   4-C(  2  1  0)
   5-C(  2  1  1)   6-C(  2  2  1)

 DIRECT LATTICE VECTORS COMPON. (A.U.)     RECIP. LATTICE VECTORS COMPON. (A.U.) 
        X            Y            Z              X            Y            Z
   -9.7202505    9.7202505   12.5871577      0.0000000    0.3232008    0.2495871
    9.7202505   -9.7202505   12.5871577      0.3232008    0.0000000    0.2495871
    9.7202505    9.7202505  -12.5871577      0.3232008    0.3232008    0.0000000

 DISK SPACE FOR EIGENVECTORS (FTN 10)    11624624 REALS

 SYMMETRY ADAPTION OF THE BLOCH FUNCTIONS ENABLED
 TTTTTTTTTTTTTTTTTTTTTTTTTTTTTT gordsh1     TELAPSE        7.68 TCPU        0.06

 MATRIX SIZE: P(G) 1789656, F(G)  895534, P(G) IRR  226336, F(G) IRR  226336
 MAX G-VECTOR INDEX FOR 1- AND 2-ELECTRON INTEGRALS  63

 TTTTTTTTTTTTTTTTTTTTTTTTTTTTTT INPUT       TELAPSE       10.22 TCPU        2.58

 NEIGHBORS OF THE NON-EQUIVALENT ATOMS

 N = NUMBER OF NEIGHBORS AT DISTANCE R
    ATOM  N     R/ANG      R/AU   NEIGHBORS (ATOM LABELS AND CELL INDICES)
   1 H    1     1.0930     2.0655   17 C    0 1 0
   1 H    1     2.1643     4.0899   30 C    0 1 0
   1 H    1     2.1919     4.1421    9 C    0 1 0
   1 H    1     2.6403     4.9894   57 F    0 1 0
   1 H    1     2.7360     5.1703   46 N    0 0-1
   1 H    1     2.8294     5.3468   13 C    0 1 0

   5 H    1     1.0949     2.0691   21 C    0 0 0
   5 H    1     2.0930     3.9552   49 N    0 0 0
   5 H    1     2.1831     4.1255   30 C    0 0 0
   5 H    1     2.3393     4.4206   50 N    0 0 0
   5 H    1     2.6173     4.9459   57 F    0 0 0
   5 H    1     2.8173     5.3240    6 H    0 0 0

   9 C    1     1.4045     2.6540   25 C    0 0 0
   9 C    1     1.4047     2.6544   17 C    0 0 0
   9 C    1     1.4610     2.7608   13 C    0 0 0
   9 C    1     2.1919     4.1421    1 H    0-1 0
   9 C    1     2.3623     4.4641   53 F    0 0 0
   9 C    1     2.3916     4.5195   30 C    0 0 0

  13 C    1     1.3474     2.5463   41 N    0-1 0
  13 C    1     1.3551     2.5608   33 N    0-1 0
  13 C    1     1.4610     2.7608    9 C    0 0 0
  13 C    1     2.1952     4.1483   37 N    1 0 1
  13 C    1     2.1966     4.1510   45 N    1 0 1
  13 C    1     2.4673     4.6625   25 C    0 0 0

  17 C    1     1.0930     2.0655    1 H    0-1 0
  17 C    1     1.3951     2.6364   30 C    0 0 0
  17 C    1     1.4047     2.6544    9 C    0 0 0
  17 C    1     2.3798     4.4972   57 F    0 0 0
  17 C    1     2.3879     4.5125   25 C    0 0 0
  17 C    1     2.4359     4.6032   21 C    0 0 0

  21 C    1     1.0949     2.0691    5 H    0 0 0
  21 C    1     1.3483     2.5480   49 N    0 0 0
  21 C    1     1.3949     2.6360   30 C    0 0 0
  21 C    1     2.2830     4.3142   25 C    0 0 0
  21 C    1     2.3470     4.4352   57 F    0 0 0
  21 C    1     2.4359     4.6032   17 C    0 0 0

  25 C    1     1.3151     2.4852   49 N    0 0 0
  25 C    1     1.3542     2.5591   53 F    0 0 0
  25 C    1     1.4045     2.6540    9 C    0 0 0
  25 C    1     2.2830     4.3142   21 C    0 0 0
  25 C    1     2.3879     4.5125   17 C    0 0 0
  25 C    1     2.4673     4.6625   13 C    0 0 0

  29 C    1     1.3456     2.5429   58 F    0 0 0
  29 C    1     1.3949     2.6360   22 C    0 0 0
  29 C    1     1.3951     2.6364   18 C    0 0 0
  29 C    1     2.1643     4.0899    2 H   -1 0 0
  29 C    1     2.1831     4.1255    6 H    0 0 0
  29 C    1     2.3808     4.4991   50 N    0 0 0

  33 N    1     1.3551     2.5608   13 C    0 1 0
  33 N    1     1.3745     2.5974   37 N    1 1 1
  33 N    1     2.0199     3.8171   61 ZN   1 1 0
  33 N    1     2.1892     4.1369   45 N    1 1 1
  33 N    1     2.1943     4.1465   41 N    0 0 0
  33 N    1     2.4825     4.6913    9 C    0 1 0

  37 N    1     1.3183     2.4913   45 N    0 0 0
  37 N    1     1.3745     2.5974   33 N   -1-1-1
  37 N    1     2.1879     4.1345   41 N   -1-1-1
  37 N    1     2.1952     4.1483   13 C   -1 0-1
  37 N    1     2.8805     5.4433   54 F    0 0 0
  37 N    1     2.9470     5.5691   61 ZN   0 0-1

  41 N    1     1.3474     2.5463   13 C    0 1 0
  41 N    1     1.3801     2.6081   45 N    1 1 1
  41 N    1     1.9731     3.7286   62 ZN   0 0 0
  41 N    1     2.1879     4.1345   37 N    1 1 1
  41 N    1     2.1943     4.1465   33 N    0 0 0
  41 N    1     2.5224     4.7666    9 C    0 1 0

  45 N    1     1.3183     2.4913   37 N    0 0 0
  45 N    1     1.3801     2.6081   41 N   -1-1-1
  45 N    1     2.1892     4.1369   33 N   -1-1-1
  45 N    1     2.1966     4.1510   13 C   -1 0-1
  45 N    1     2.7360     5.1703    2 H   -1-1-1
  45 N    1     2.8736     5.4304   62 ZN  -1-1-1

  49 N    1     1.3151     2.4852   25 C    0 0 0
  49 N    1     1.3483     2.5480   21 C    0 0 0
  49 N    1     2.0930     3.9552    5 H    0 0 0
  49 N    1     2.2674     4.2847   53 F    0 0 0
  49 N    1     2.3393     4.4206    6 H    0 0 0
  49 N    1     2.3808     4.4991   30 C    0 0 0

  53 F    1     1.3542     2.5591   25 C    0 0 0
  53 F    1     2.2674     4.2847   49 N    0 0 0
  53 F    1     2.3623     4.4641    9 C    0 0 0
  53 F    1     2.7518     5.2001   34 N    0 0 1
  53 F    1     2.7571     5.2101   13 C    0 0 0
  53 F    1     2.8743     5.4317   33 N    0-1 0

  57 F    1     1.3456     2.5429   30 C    0 0 0
  57 F    1     2.3470     4.4352   21 C    0 0 0
  57 F    1     2.3798     4.4972   17 C    0 0 0
  57 F    1     2.5854     4.8858   58 F    0-1-1
  57 F    1     2.6173     4.9459    5 H    0 0 0
  57 F    1     2.6403     4.9894    1 H    0-1 0

  61 ZN   4     2.0199     3.8171   33 N   -1-1 0   34 N   -1 0 1   35 N    0 0 1
                                    36 N   -1 0 0
  61 ZN   4     2.9470     5.5691   37 N    0 0 1   38 N   -1 0 0   39 N   -1 0 1
                                    40 N   -1-1 0
  61 ZN   4     2.9846     5.6401   53 F   -1 0 0   54 F    0 0 1   55 F   -1-1 0
                                    56 F   -1 0 1
  61 ZN   4     3.1137     5.8841   13 C   -1 0 0   14 C    0 0 1   15 C   -1-1 0
                                    16 C   -1 0 1
  61 ZN   4     3.4087     6.4415   25 C   -1 0 0   26 C    0 0 1   27 C   -1-1 0
                                    28 C   -1 0 1
  61 ZN   4     3.5670     6.7406    9 C   -1 0 0   10 C    0 0 1   11 C   -1-1 0
                                    12 C   -1 0 1

  62 ZN   4     1.9731     3.7286   41 N    0 0 0   42 N    0 0 0   43 N    1 1 0
                                    44 N    1 1 0
  62 ZN   4     2.8736     5.4304   45 N    1 1 1   46 N    0 0-1   47 N    0 1 0
                                    48 N    1 0 0
  62 ZN   4     3.0841     5.8280   13 C    0 1 0   14 C    1 0 0   15 C    0 0-1
                                    16 C    1 1 1
  62 ZN   4     3.3789     6.3851    1 H    0 0 0    2 H    0 0 0    3 H    1 1 0
                                     4 H    1 1 0
  62 ZN   4     3.6647     6.9252    9 C    0 1 0   10 C    1 0 0   11 C    0 0-1
                                    12 C    1 1 1
  62 ZN   4     3.8194     7.2177   17 C    0 1 0   18 C    1 0 0   19 C    0 0-1
                                    20 C    1 1 1


 SYMMETRY ALLOWED INTERNAL DEGREE(S) OF FREEDOM:  45
 TTTTTTTTTTTTTTTTTTTTTTTTTTTTTT SYMM        TELAPSE       13.14 TCPU        5.49
 TTTTTTTTTTTTTTTTTTTTTTTTTTTTTT INT_SCREEN  TELAPSE       13.20 TCPU        5.55
 INFORMATION **** EXCBUF **** EXCH. BIPO BUFFER: WORDS USED =           0

 DFT PARAMETERS

     ATOM       ELECTRONS   NET CHARGE   R(ANGSTROM)
   1   1  H       1.0000      0.0000     1.11000000
   9   6  C       6.0000      0.0000     0.77000000
  33   7  N       7.0000      0.0000     0.74000000
  53   9  F       9.0000      0.0000     0.72000000
  61  30  ZN     30.0000      0.0000     1.37000000

 SIZE OF GRID=     477442
 TTTTTTTTTTTTTTTTTTTTTTTTTTTTTT MAKE_GRID2  TELAPSE       18.08 TCPU       10.41
 BECKE WEIGHT FUNCTION
 RADSAFE =     2.00
 TOLERANCES - DENSITY:10**- 6; POTENTIAL:10**- 9; GRID WGT:10**-14

 RADIAL INTEGRATION  - INTERVALS (POINTS,UPPER LIMIT):            1( 75,  4.0*R)

 ANGULAR INTEGRATION - INTERVALS (ACCURACY LEVEL [N. POINTS] UPPER LIMIT):
  1(  4[  86]   0.2)  2(  8[ 194]   0.5)  3( 12[ 350]   0.9)  4( 16[ 974]   3.5)
  5( 12[ 350]9999.0)
 TTTTTTTTTTTTTTTTTTTTTTTTTTTTTT INT_CALC    TELAPSE       18.13 TCPU       10.46
 EEEEEEEEEE INT_CALC TERMINATION  DATE 29 11 2023 TIME 13:12:29.0

 *******************************************************************************
 Z:\home\sanoj\Downloads\tmp_p\newconn.mol                                       
 CRYSTAL - SCF - TYPE OF CALCULATION :  RESTRICTED CLOSED SHELL
 *******************************************************************************

 CAPPA:IS1  3;IS2  3;IS3  3; K PTS MONK NET   6; SYMMOPS:K SPACE   8;G SPACE   4

 TTTTTTTTTTTTTTTTTTTTTTTTTTTTTT SDIK        TELAPSE       18.36 TCPU       10.69

 AAAAAAAAAAAAAAAAAAAAAAAAAAAAAAAAAAAAAAAAAAAAAAAAAAAAAAAAAAAAAAAAAAAAAAAAAAAAAAA
         ATOMIC WAVEFUNCTION(S)


 NUCLEAR CHARGE  1.0  SYMMETRY SPECIES            S
 N. ELECTRONS    1.0  NUMBER OF PRIMITIVE GTOS    4
                      NUMBER OF CONTRACTED GTOS   2
                      NUMBER OF CLOSED SHELLS     0
                      OPEN SHELL OCCUPATION       1

  ZNUC SCFIT  TOTAL HF ENERGY   KINETIC ENERGY   VIRIAL THEOREM ACCURACY
   1.0   1   -4.946643675E-01  4.917913167E-01 -2.005842012E+00  9.4E-17

 NUCLEAR CHARGE  6.0  SYMMETRY SPECIES            S    P
 N. ELECTRONS    6.0  NUMBER OF PRIMITIVE GTOS    7    4
                      NUMBER OF CONTRACTED GTOS   3    2
                      NUMBER OF CLOSED SHELLS     2    0
                      OPEN SHELL OCCUPATION       0    2

  ZNUC SCFIT  TOTAL HF ENERGY   KINETIC ENERGY   VIRIAL THEOREM ACCURACY
   6.0   6   -3.750912652E+01  3.905246519E+01 -1.960480378E+00  3.7E-06

 NUCLEAR CHARGE  7.0  SYMMETRY SPECIES            S    P
 N. ELECTRONS    7.0  NUMBER OF PRIMITIVE GTOS    7    4
                      NUMBER OF CONTRACTED GTOS   3    2
                      NUMBER OF CLOSED SHELLS     2    0
                      OPEN SHELL OCCUPATION       0    3

  ZNUC SCFIT  TOTAL HF ENERGY   KINETIC ENERGY   VIRIAL THEOREM ACCURACY
   7.0   9   -5.432196661E+01  5.425066284E+01 -2.001314339E+00  1.2E-06

 NUCLEAR CHARGE  9.0  SYMMETRY SPECIES            S    P
 N. ELECTRONS    9.0  NUMBER OF PRIMITIVE GTOS    7    4
                      NUMBER OF CONTRACTED GTOS   3    2
                      NUMBER OF CLOSED SHELLS     2    0
                      OPEN SHELL OCCUPATION       0    5

  ZNUC SCFIT  TOTAL HF ENERGY   KINETIC ENERGY   VIRIAL THEOREM ACCURACY
   9.0  14   -9.927886620E+01  9.927374065E+01 -2.000051630E+00  4.0E-06

 NUCLEAR CHARGE 30.0  SYMMETRY SPECIES            S    P    D
 N. ELECTRONS   30.0  NUMBER OF PRIMITIVE GTOS   14    9    5
                      NUMBER OF CONTRACTED GTOS   5    3    2
                      NUMBER OF CLOSED SHELLS     4    2    1
                      OPEN SHELL OCCUPATION       0    0    0

  ZNUC SCFIT  TOTAL HF ENERGY   KINETIC ENERGY   VIRIAL THEOREM ACCURACY
  30.0  10   -1.777404290E+03  1.777325716E+03 -2.000044209E+00  2.5E-06

 AAAAAAAAAAAAAAAAAAAAAAAAAAAAAAAAAAAAAAAAAAAAAAAAAAAAAAAAAAAAAAAAAAAAAAAAAAAAAAA

 TOTAL ATOMIC CHARGES:
   1.0000000   1.0000000   1.0000000   1.0000000   1.0000000   1.0000000
   1.0000000   1.0000000   6.0000000   6.0000000   6.0000000   6.0000000
   6.0000000   6.0000000   6.0000000   6.0000000   6.0000000   6.0000000
   6.0000000   6.0000000   6.0000000   6.0000000   6.0000000   6.0000000
   6.0000000   6.0000000   6.0000000   6.0000000   6.0000000   6.0000000
   6.0000000   6.0000000   7.0000000   7.0000000   7.0000000   7.0000000
   7.0000000   7.0000000   7.0000000   7.0000000   7.0000000   7.0000000
   7.0000000   7.0000000   7.0000000   7.0000000   7.0000000   7.0000000
   7.0000000   7.0000000   7.0000000   7.0000000   9.0000000   9.0000000
   9.0000000   9.0000000   9.0000000   9.0000000   9.0000000   9.0000000
  30.0000000  30.0000000
 TTTTTTTTTTTTTTTTTTTTTTTTTTTTTT MOQGAD      TELAPSE       20.42 TCPU       12.72
 TTTTTTTTTTTTTTTTTTTTTTTTTTTTTT SHELLXN     TELAPSE       84.50 TCPU       75.52
 TTTTTTTTTTTTTTTTTTTTTTTTTTTTTT MONMO3      TELAPSE       93.06 TCPU       84.05
 NUMERICALLY INTEGRATED DENSITY    423.9998984943
 TTTTTTTTTTTTTTTTTTTTTTTTTTTTTT NUMDFT      TELAPSE       95.43 TCPU       86.41
 CYC   0 ETOT(AU) -6.369975487845E+03 DETOT -6.37E+03 tst  0.00E+00 PX  1.00E+00
 TTTTTTTTTTTTTTTTTTTTTTTTTTTTTT DIIS        TELAPSE       95.52 TCPU       86.50
 TTTTTTTTTTTTTTTTTTTTTTTTTTTTTT FDIK        TELAPSE      130.33 TCPU      119.91
 INSULATING STATE
 TOP OF VALENCE BANDS -    BAND    212; K    3; EIG -1.2747787E-01 AU
 TOP OF VALENCE BANDS -    BAND    212; K    1; EIG -1.3064151E-01 AU
 BOTTOM OF VIRTUAL BANDS - BAND    213; K    1; EIG -1.0561084E-01 AU
 INDIRECT ENERGY BAND GAP:   0.5950 eV
 TTTTTTTTTTTTTTTTTTTTTTTTTTTTTT PDIG        TELAPSE      130.94 TCPU      120.51
 TOTAL ATOMIC CHARGES:
   1.2314393   1.2314393   1.2314393   1.2314393   1.2767255   1.2767255
   1.2767255   1.2767255   6.1920156   6.1920156   6.1920156   6.1920156
   5.5315520   5.5315520   5.5315520   5.5315520   6.2931612   6.2931612
   6.2931612   6.2931612   5.8891880   5.8891880   5.8891880   5.8891880
   5.1089515   5.1089515   5.1089515   5.1089515   5.2208396   5.2208396
   5.2208396   5.2208396   7.4064434   7.4064434   7.4064434   7.4064434
   7.1874210   7.1874210   7.1874210   7.1874210   7.3954521   7.3954521
   7.3954521   7.3954521   7.1781865   7.1781865   7.1781865   7.1781865
   7.5546231   7.5546231   7.5546231   7.5546231   9.3053048   9.3053048
   9.3053048   9.3053048   9.2982847   9.2982847   9.2982847   9.2982847
  27.8615901  27.8600562
 TTTTTTTTTTTTTTTTTTTTTTTTTTTTTT MOQGAD      TELAPSE      130.99 TCPU      120.56
 TTTTTTTTTTTTTTTTTTTTTTTTTTTTTT SHELLXN     TELAPSE      204.75 TCPU      194.08
 TTTTTTTTTTTTTTTTTTTTTTTTTTTTTT MONMO3      TELAPSE      218.07 TCPU      207.36
 NUMERICALLY INTEGRATED DENSITY    423.9999254801
 TTTTTTTTTTTTTTTTTTTTTTTTTTTTTT NUMDFT      TELAPSE      224.83 TCPU      214.11
 CYC   1 ETOT(AU) -6.364185735857E+03 DETOT  5.79E+00 tst  0.00E+00 PX  1.00E+00
 TTTTTTTTTTTTTTTTTTTTTTTTTTTTTT DIIS        TELAPSE      227.90 TCPU      217.15
 DIIS TEST: 0.13597E+02 AT SCF   CYCLE   1 - MIX   30 %
 TTTTTTTTTTTTTTTTTTTTTTTTTTTTTT FDIK        TELAPSE      242.57 TCPU      229.65
 INSULATING STATE
 TOP OF VALENCE BANDS -    BAND    212; K    4; EIG -1.6373124E-01 AU
 TOP OF VALENCE BANDS -    BAND    212; K    1; EIG -1.6383437E-01 AU
 BOTTOM OF VIRTUAL BANDS - BAND    213; K    1; EIG -1.2501300E-01 AU
 INDIRECT ENERGY BAND GAP:   1.0536 eV
 TTTTTTTTTTTTTTTTTTTTTTTTTTTTTT PDIG        TELAPSE      243.15 TCPU      230.24
 TOTAL ATOMIC CHARGES:
   1.1836397   1.1836397   1.1836397   1.1836397   1.2470691   1.2470691
   1.2470691   1.2470691   6.3394775   6.3394775   6.3394775   6.3394775
   6.2895442   6.2895442   6.2895442   6.2895442   6.2177946   6.2177946
   6.2177946   6.2177946   5.9107249   5.9107249   5.9107249   5.9107249
   6.3664474   6.3664474   6.3664474   6.3664474   5.8249817   5.8249817
   5.8249817   5.8249817   6.9551120   6.9551120   6.9551120   6.9551120
   6.7994941   6.7994941   6.7994941   6.7994941   6.9574322   6.9574322
   6.9574322   6.9574322   6.8242016   6.8242016   6.8242016   6.8242016
   6.1290100   6.1290100   6.1290100   6.1290100   9.0705318   9.0705318
   9.0705318   9.0705318   8.9890275   8.9890275   8.9890275   8.9890275
  29.8035486  29.7784978
 TTTTTTTTTTTTTTTTTTTTTTTTTTTTTT MOQGAD      TELAPSE      243.20 TCPU      230.28
 TTTTTTTTTTTTTTTTTTTTTTTTTTTTTT SHELLXN     TELAPSE      317.38 TCPU      304.01
 TTTTTTTTTTTTTTTTTTTTTTTTTTTTTT MONMO3      TELAPSE      327.16 TCPU      313.75
 NUMERICALLY INTEGRATED DENSITY    423.9999166215
 TTTTTTTTTTTTTTTTTTTTTTTTTTTTTT NUMDFT      TELAPSE      333.83 TCPU      320.40
 CYC   2 ETOT(AU) -6.362903490842E+03 DETOT  1.28E+00 tst  8.52E-02 PX  7.38E-01
 TTTTTTTTTTTTTTTTTTTTTTTTTTTTTT DIIS        TELAPSE      334.22 TCPU      320.79
 DIIS TEST: 0.20823E+02 AT SCF   CYCLE   2 - DIIS ACTIVE - HISTORY:     2 CYCLES
 TTTTTTTTTTTTTTTTTTTTTTTTTTTTTT FDIK        TELAPSE      348.50 TCPU      332.79
 INSULATING STATE
 TOP OF VALENCE BANDS -    BAND    212; K    4; EIG -2.4732481E-01 AU
 TOP OF VALENCE BANDS -    BAND    212; K    1; EIG -2.4759253E-01 AU
 BOTTOM OF VIRTUAL BANDS - BAND    213; K    1; EIG -1.2698941E-01 AU
 INDIRECT ENERGY BAND GAP:   3.2745 eV
 TTTTTTTTTTTTTTTTTTTTTTTTTTTTTT PDIG        TELAPSE      349.08 TCPU      333.38
 TOTAL ATOMIC CHARGES:
   1.1705672   1.1705672   1.1705672   1.1705672   1.1872965   1.1872965
   1.1872965   1.1872965   5.8989224   5.8989224   5.8989224   5.8989224
   5.8042938   5.8042938   5.8042938   5.8042938   6.0642391   6.0642391
   6.0642391   6.0642391   6.1504418   6.1504418   6.1504418   6.1504418
   5.5754352   5.5754352   5.5754352   5.5754352   5.5506989   5.5506989
   5.5506989   5.5506989   6.9973380   6.9973380   6.9973380   6.9973380
   7.1485439   7.1485439   7.1485439   7.1485439   7.0320182   7.0320182
   7.0320182   7.0320182   7.1610099   7.1610099   7.1610099   7.1610099
   7.4396881   7.4396881   7.4396881   7.4396881   9.0918310   9.0918310
   9.0918310   9.0918310   9.1480659   9.1480659   9.1480659   9.1480659
  29.1391809  29.1792601
 TTTTTTTTTTTTTTTTTTTTTTTTTTTTTT MOQGAD      TELAPSE      349.13 TCPU      333.43
 TTTTTTTTTTTTTTTTTTTTTTTTTTTTTT SHELLXN     TELAPSE      422.89 TCPU      406.91
 TTTTTTTTTTTTTTTTTTTTTTTTTTTTTT MONMO3      TELAPSE      432.99 TCPU      416.95
 NUMERICALLY INTEGRATED DENSITY    423.9999127307
 TTTTTTTTTTTTTTTTTTTTTTTTTTTTTT NUMDFT      TELAPSE      439.57 TCPU      423.52
 CYC   3 ETOT(AU) -6.365775401662E+03 DETOT -2.87E+00 tst  1.47E-02 PX  5.95E-01
 TTTTTTTTTTTTTTTTTTTTTTTTTTTTTT DIIS        TELAPSE      439.74 TCPU      423.68
 DIIS TEST: 0.41009E+01 AT SCF   CYCLE   3 - DIIS ACTIVE - HISTORY:     3 CYCLES
 TTTTTTTTTTTTTTTTTTTTTTTTTTTTTT FDIK        TELAPSE      451.25 TCPU      435.08
 INSULATING STATE
 TOP OF VALENCE BANDS -    BAND    212; K    5; EIG -2.3251593E-01 AU
 TOP OF VALENCE BANDS -    BAND    212; K    1; EIG -2.3324159E-01 AU
 BOTTOM OF VIRTUAL BANDS - BAND    213; K    1; EIG -1.2538684E-01 AU
 INDIRECT ENERGY BAND GAP:   2.9151 eV
 TTTTTTTTTTTTTTTTTTTTTTTTTTTTTT PDIG        TELAPSE      451.83 TCPU      435.66
 TOTAL ATOMIC CHARGES:
   1.1474554   1.1474554   1.1474554   1.1474554   1.2334062   1.2334062
   1.2334062   1.2334062   6.2898115   6.2898115   6.2898115   6.2898115
   5.8348804   5.8348804   5.8348804   5.8348804   6.3360047   6.3360047
   6.3360047   6.3360047   5.7762861   5.7762861   5.7762861   5.7762861
   5.5922758   5.5922758   5.5922758   5.5922758   5.4918058   5.4918058
   5.4918058   5.4918058   7.2242516   7.2242516   7.2242516   7.2242516
   7.0208608   7.0208608   7.0208608   7.0208608   7.2138508   7.2138508
   7.2138508   7.2138508   7.0358912   7.0358912   7.0358912   7.0358912
   6.9781516   6.9781516   6.9781516   6.9781516   9.2115075   9.2115075
   9.2115075   9.2115075   9.2035278   9.2035278   9.2035278   9.2035278
  28.8117279  28.8284023
 TTTTTTTTTTTTTTTTTTTTTTTTTTTTTT MOQGAD      TELAPSE      451.88 TCPU      435.71
 TTTTTTTTTTTTTTTTTTTTTTTTTTTTTT SHELLXN     TELAPSE      527.71 TCPU      509.44
 TTTTTTTTTTTTTTTTTTTTTTTTTTTTTT MONMO3      TELAPSE      536.27 TCPU      517.98
 NUMERICALLY INTEGRATED DENSITY    423.9999143664
 TTTTTTTTTTTTTTTTTTTTTTTTTTTTTT NUMDFT      TELAPSE      542.96 TCPU      524.64
 CYC   4 ETOT(AU) -6.366173556254E+03 DETOT -3.98E-01 tst  6.75E-03 PX  1.67E-01
 TTTTTTTTTTTTTTTTTTTTTTTTTTTTTT DIIS        TELAPSE      543.13 TCPU      524.81
 DIIS TEST: 0.12066E+01 AT SCF   CYCLE   4 - DIIS ACTIVE - HISTORY:     4 CYCLES
 TTTTTTTTTTTTTTTTTTTTTTTTTTTTTT FDIK        TELAPSE      555.48 TCPU      536.47
 INSULATING STATE
 TOP OF VALENCE BANDS -    BAND    212; K    4; EIG -2.4855519E-01 AU
 TOP OF VALENCE BANDS -    BAND    212; K    1; EIG -2.4860791E-01 AU
 BOTTOM OF VIRTUAL BANDS - BAND    213; K    1; EIG -1.2821759E-01 AU
 INDIRECT ENERGY BAND GAP:   3.2746 eV
 TTTTTTTTTTTTTTTTTTTTTTTTTTTTTT PDIG        TELAPSE      556.07 TCPU      537.06
 TOTAL ATOMIC CHARGES:
   1.1606421   1.1606421   1.1606421   1.1606421   1.2161230   1.2161230
   1.2161230   1.2161230   6.1916499   6.1916499   6.1916499   6.1916499
   5.8568925   5.8568925   5.8568925   5.8568925   6.2197523   6.2197523
   6.2197523   6.2197523   5.9669516   5.9669516   5.9669516   5.9669516
   5.6599815   5.6599815   5.6599815   5.6599815   5.4988198   5.4988198
   5.4988198   5.4988198   7.1449251   7.1449251   7.1449251   7.1449251
   7.0538149   7.0538149   7.0538149   7.0538149   7.1358309   7.1358309
   7.1358309   7.1358309   7.0591116   7.0591116   7.0591116   7.0591116
   7.0696521   7.0696521   7.0696521   7.0696521   9.1745901   9.1745901
   9.1745901   9.1745901   9.1525757   9.1525757   9.1525757   9.1525757
  28.8724652  28.8822824
 TTTTTTTTTTTTTTTTTTTTTTTTTTTTTT MOQGAD      TELAPSE      556.11 TCPU      537.10
 TTTTTTTTTTTTTTTTTTTTTTTTTTTTTT SHELLXN     TELAPSE      630.13 TCPU      610.56
 TTTTTTTTTTTTTTTTTTTTTTTTTTTTTT MONMO3      TELAPSE      640.19 TCPU      620.59
 NUMERICALLY INTEGRATED DENSITY    423.9999164702
 TTTTTTTTTTTTTTTTTTTTTTTTTTTTTT NUMDFT      TELAPSE      646.85 TCPU      627.22
 CYC   5 ETOT(AU) -6.366350012597E+03 DETOT -1.76E-01 tst  1.17E-03 PX  1.22E-01
 TTTTTTTTTTTTTTTTTTTTTTTTTTTTTT DIIS        TELAPSE      647.02 TCPU      627.39
 DIIS TEST: 0.42118E-01 AT SCF   CYCLE   5 - DIIS ACTIVE - HISTORY:     5 CYCLES
 TTTTTTTTTTTTTTTTTTTTTTTTTTTTTT FDIK        TELAPSE      658.97 TCPU      639.05
 INSULATING STATE
 TOP OF VALENCE BANDS -    BAND    212; K    2; EIG -2.4556658E-01 AU
 TOP OF VALENCE BANDS -    BAND    212; K    1; EIG -2.4585356E-01 AU
 BOTTOM OF VIRTUAL BANDS - BAND    213; K    1; EIG -1.2576188E-01 AU
 INDIRECT ENERGY BAND GAP:   3.2601 eV
 TTTTTTTTTTTTTTTTTTTTTTTTTTTTTT PDIG        TELAPSE      659.55 TCPU      639.64
 TOTAL ATOMIC CHARGES:
   1.1601169   1.1601169   1.1601169   1.1601169   1.2183461   1.2183461
   1.2183461   1.2183461   6.1602221   6.1602221   6.1602221   6.1602221
   5.8474094   5.8474094   5.8474094   5.8474094   6.2408420   6.2408420
   6.2408420   6.2408420   5.9028285   5.9028285   5.9028285   5.9028285
   5.6201921   5.6201921   5.6201921   5.6201921   5.5561110   5.5561110
   5.5561110   5.5561110   7.1239779   7.1239779   7.1239779   7.1239779
   7.0424390   7.0424390   7.0424390   7.0424390   7.1619486   7.1619486
   7.1619486   7.1619486   7.0834896   7.0834896   7.0834896   7.0834896
   7.0890680   7.0890680   7.0890680   7.0890680   9.1610385   9.1610385
   9.1610385   9.1610385   9.1771252   9.1771252   9.1771252   9.1771252
  28.8999321  28.9194468
 TTTTTTTTTTTTTTTTTTTTTTTTTTTTTT MOQGAD      TELAPSE      659.60 TCPU      639.68
 TTTTTTTTTTTTTTTTTTTTTTTTTTTTTT SHELLXN     TELAPSE      733.59 TCPU      713.31
 TTTTTTTTTTTTTTTTTTTTTTTTTTTTTT MONMO3      TELAPSE      743.62 TCPU      723.31
 NUMERICALLY INTEGRATED DENSITY    423.9999159240
 TTTTTTTTTTTTTTTTTTTTTTTTTTTTTT NUMDFT      TELAPSE      750.27 TCPU      729.94
 CYC   6 ETOT(AU) -6.366350994690E+03 DETOT -9.82E-04 tst  8.66E-05 PX  2.23E-02
 TTTTTTTTTTTTTTTTTTTTTTTTTTTTTT DIIS        TELAPSE      750.77 TCPU      730.44
 DIIS TEST: 0.44786E-01 AT SCF   CYCLE   6 - DIIS ACTIVE - HISTORY:     6 CYCLES
 TTTTTTTTTTTTTTTTTTTTTTTTTTTTTT FDIK        TELAPSE      762.90 TCPU      740.30
 INSULATING STATE
 TOP OF VALENCE BANDS -    BAND    212; K    2; EIG -2.4624156E-01 AU
 TOP OF VALENCE BANDS -    BAND    212; K    1; EIG -2.4635069E-01 AU
 BOTTOM OF VIRTUAL BANDS - BAND    213; K    1; EIG -1.2663416E-01 AU
 INDIRECT ENERGY BAND GAP:   3.2547 eV
 TTTTTTTTTTTTTTTTTTTTTTTTTTTTTT PDIG        TELAPSE      763.49 TCPU      740.89
 TOTAL ATOMIC CHARGES:
   1.1598207   1.1598207   1.1598207   1.1598207   1.2167283   1.2167283
   1.2167283   1.2167283   6.1663577   6.1663577   6.1663577   6.1663577
   5.8535309   5.8535309   5.8535309   5.8535309   6.2241456   6.2241456
   6.2241456   6.2241456   5.9219875   5.9219875   5.9219875   5.9219875
   5.6417037   5.6417037   5.6417037   5.6417037   5.5289587   5.5289587
   5.5289587   5.5289587   7.1559365   7.1559365   7.1559365   7.1559365
   7.0632493   7.0632493   7.0632493   7.0632493   7.1341141   7.1341141
   7.1341141   7.1341141   7.0536189   7.0536189   7.0536189   7.0536189
   7.0938218   7.0938218   7.0938218   7.0938218   9.1671753   9.1671753
   9.1671753   9.1671753   9.1652476   9.1652476   9.1652476   9.1652476
  28.9005748  28.9138389
 TTTTTTTTTTTTTTTTTTTTTTTTTTTTTT MOQGAD      TELAPSE      763.54 TCPU      740.94
 TTTTTTTTTTTTTTTTTTTTTTTTTTTTTT SHELLXN     TELAPSE      839.74 TCPU      814.67
 TTTTTTTTTTTTTTTTTTTTTTTTTTTTTT MONMO3      TELAPSE      847.14 TCPU      822.03
 NUMERICALLY INTEGRATED DENSITY    423.9999154421
 TTTTTTTTTTTTTTTTTTTTTTTTTTTTTT NUMDFT      TELAPSE      853.82 TCPU      828.70
 CYC   7 ETOT(AU) -6.366356010961E+03 DETOT -5.02E-03 tst  2.76E-05 PX  1.13E-02
 TTTTTTTTTTTTTTTTTTTTTTTTTTTTTT DIIS        TELAPSE      854.20 TCPU      829.08
 DIIS TEST: 0.96456E-02 AT SCF   CYCLE   7 - DIIS ACTIVE - HISTORY:     7 CYCLES
 TTTTTTTTTTTTTTTTTTTTTTTTTTTTTT FDIK        TELAPSE      864.16 TCPU      838.89
 INSULATING STATE
 TOP OF VALENCE BANDS -    BAND    212; K    2; EIG -2.4638916E-01 AU
 TOP OF VALENCE BANDS -    BAND    212; K    1; EIG -2.4650201E-01 AU
 BOTTOM OF VIRTUAL BANDS - BAND    213; K    1; EIG -1.2679658E-01 AU
 INDIRECT ENERGY BAND GAP:   3.2543 eV
 TTTTTTTTTTTTTTTTTTTTTTTTTTTTTT PDIG        TELAPSE      864.75 TCPU      839.47
 TOTAL ATOMIC CHARGES:
   1.1593059   1.1593059   1.1593059   1.1593059   1.2160218   1.2160218
   1.2160218   1.2160218   6.1696410   6.1696410   6.1696410   6.1696410
   5.8520289   5.8520289   5.8520289   5.8520289   6.2261106   6.2261106
   6.2261106   6.2261106   5.9368254   5.9368254   5.9368254   5.9368254
   5.6401053   5.6401053   5.6401053   5.6401053   5.5245225   5.5245225
   5.5245225   5.5245225   7.1341549   7.1341549   7.1341549   7.1341549
   7.0488423   7.0488423   7.0488423   7.0488423   7.1494567   7.1494567
   7.1494567   7.1494567   7.0724807   7.0724807   7.0724807   7.0724807
   7.0857653   7.0857653   7.0857653   7.0857653   9.1682427   9.1682427
   9.1682427   9.1682427   9.1631685   9.1631685   9.1631685   9.1631685
  28.8985456  28.9147639
 TTTTTTTTTTTTTTTTTTTTTTTTTTTTTT MOQGAD      TELAPSE      864.80 TCPU      839.52
 TTTTTTTTTTTTTTTTTTTTTTTTTTTTTT SHELLXN     TELAPSE      938.63 TCPU      912.94
 TTTTTTTTTTTTTTTTTTTTTTTTTTTTTT MONMO3      TELAPSE      948.73 TCPU      923.01
 NUMERICALLY INTEGRATED DENSITY    423.9999154718
 TTTTTTTTTTTTTTTTTTTTTTTTTTTTTT NUMDFT      TELAPSE      955.35 TCPU      929.60
 CYC   8 ETOT(AU) -6.366357164125E+03 DETOT -1.15E-03 tst  7.66E-06 PX  6.01E-03
 TTTTTTTTTTTTTTTTTTTTTTTTTTTTTT DIIS        TELAPSE      955.77 TCPU      930.02
 DIIS TEST: 0.14581E-02 AT SCF   CYCLE   8 - DIIS ACTIVE - HISTORY:     8 CYCLES
 TTTTTTTTTTTTTTTTTTTTTTTTTTTTTT FDIK        TELAPSE      966.19 TCPU      940.32
 INSULATING STATE
 TOP OF VALENCE BANDS -    BAND    212; K    2; EIG -2.4677040E-01 AU
 TOP OF VALENCE BANDS -    BAND    212; K    1; EIG -2.4690134E-01 AU
 BOTTOM OF VIRTUAL BANDS - BAND    213; K    1; EIG -1.2693499E-01 AU
 INDIRECT ENERGY BAND GAP:   3.2609 eV
 TTTTTTTTTTTTTTTTTTTTTTTTTTTTTT PDIG        TELAPSE      966.78 TCPU      940.90
 TOTAL ATOMIC CHARGES:
   1.1587142   1.1587142   1.1587142   1.1587142   1.2158389   1.2158389
   1.2158389   1.2158389   6.1708480   6.1708480   6.1708480   6.1708480
   5.8472270   5.8472270   5.8472270   5.8472270   6.2271553   6.2271553
   6.2271553   6.2271553   5.9343383   5.9343383   5.9343383   5.9343383
   5.6364783   5.6364783   5.6364783   5.6364783   5.5281665   5.5281665
   5.5281665   5.5281665   7.1423147   7.1423147   7.1423147   7.1423147
   7.0568826   7.0568826   7.0568826   7.0568826   7.1425987   7.1425987
   7.1425987   7.1425987   7.0649768   7.0649768   7.0649768   7.0649768
   7.0868669   7.0868669   7.0868669   7.0868669   9.1679353   9.1679353
   9.1679353   9.1679353   9.1662374   9.1662374   9.1662374   9.1662374
  28.8989835  28.9147011
 TTTTTTTTTTTTTTTTTTTTTTTTTTTTTT MOQGAD      TELAPSE      966.83 TCPU      940.95
 TTTTTTTTTTTTTTTTTTTTTTTTTTTTTT SHELLXN     TELAPSE     1042.64 TCPU     1014.61
 TTTTTTTTTTTTTTTTTTTTTTTTTTTTTT MONMO3      TELAPSE     1050.04 TCPU     1021.94
 NUMERICALLY INTEGRATED DENSITY    423.9999155554
 TTTTTTTTTTTTTTTTTTTTTTTTTTTTTT NUMDFT      TELAPSE     1056.61 TCPU     1028.50
 CYC   9 ETOT(AU) -6.366357329682E+03 DETOT -1.66E-04 tst  1.67E-06 PX  2.45E-03
 TTTTTTTTTTTTTTTTTTTTTTTTTTTTTT DIIS        TELAPSE     1056.81 TCPU     1028.69
 DIIS TEST: 0.49770E-03 AT SCF   CYCLE   9 - DIIS ACTIVE - HISTORY:     9 CYCLES
 TTTTTTTTTTTTTTTTTTTTTTTTTTTTTT FDIK        TELAPSE     1067.91 TCPU     1038.98
 INSULATING STATE
 TOP OF VALENCE BANDS -    BAND    212; K    2; EIG -2.4659596E-01 AU
 TOP OF VALENCE BANDS -    BAND    212; K    1; EIG -2.4672871E-01 AU
 BOTTOM OF VIRTUAL BANDS - BAND    213; K    1; EIG -1.2687084E-01 AU
 INDIRECT ENERGY BAND GAP:   3.2579 eV
 TTTTTTTTTTTTTTTTTTTTTTTTTTTTTT PDIG        TELAPSE     1068.50 TCPU     1039.56
 TOTAL ATOMIC CHARGES:
   1.1591467   1.1591467   1.1591467   1.1591467   1.2162124   1.2162124
   1.2162124   1.2162124   6.1704562   6.1704562   6.1704562   6.1704562
   5.8499011   5.8499011   5.8499011   5.8499011   6.2252649   6.2252649
   6.2252649   6.2252649   5.9310259   5.9310259   5.9310259   5.9310259
   5.6390092   5.6390092   5.6390092   5.6390092   5.5258149   5.5258149
   5.5258149   5.5258149   7.1409334   7.1409334   7.1409334   7.1409334
   7.0515093   7.0515093   7.0515093   7.0515093   7.1468252   7.1468252
   7.1468252   7.1468252   7.0674183   7.0674183   7.0674183   7.0674183
   7.0911790   7.0911790   7.0911790   7.0911790   9.1667516   9.1667516
   9.1667516   9.1667516   9.1655934   9.1655934   9.1655934   9.1655934
  28.8983776  28.9134563
 TTTTTTTTTTTTTTTTTTTTTTTTTTTTTT MOQGAD      TELAPSE     1068.54 TCPU     1039.61
 TTTTTTTTTTTTTTTTTTTTTTTTTTTTTT SHELLXN     TELAPSE     1144.53 TCPU     1113.42
 TTTTTTTTTTTTTTTTTTTTTTTTTTTTTT MONMO3      TELAPSE     1151.73 TCPU     1120.58
 NUMERICALLY INTEGRATED DENSITY    423.9999157044
 TTTTTTTTTTTTTTTTTTTTTTTTTTTTTT NUMDFT      TELAPSE     1158.31 TCPU     1127.12
 CYC  10 ETOT(AU) -6.366357384011E+03 DETOT -5.43E-05 tst  4.07E-07 PX  1.50E-03
 TTTTTTTTTTTTTTTTTTTTTTTTTTTTTT DIIS        TELAPSE     1158.52 TCPU     1127.33
 DIIS TEST: 0.14018E-03 AT SCF   CYCLE  10 - DIIS ACTIVE - HISTORY:    10 CYCLES
 TTTTTTTTTTTTTTTTTTTTTTTTTTTTTT FDIK        TELAPSE     1170.16 TCPU     1138.22
 INSULATING STATE
 TOP OF VALENCE BANDS -    BAND    212; K    2; EIG -2.4655695E-01 AU
 TOP OF VALENCE BANDS -    BAND    212; K    1; EIG -2.4668240E-01 AU
 BOTTOM OF VIRTUAL BANDS - BAND    213; K    1; EIG -1.2682991E-01 AU
 INDIRECT ENERGY BAND GAP:   3.2579 eV
 TTTTTTTTTTTTTTTTTTTTTTTTTTTTTT PDIG        TELAPSE     1170.74 TCPU     1138.80
 TOTAL ATOMIC CHARGES:
   1.1591341   1.1591341   1.1591341   1.1591341   1.2161210   1.2161210
   1.2161210   1.2161210   6.1688372   6.1688372   6.1688372   6.1688372
   5.8502131   5.8502131   5.8502131   5.8502131   6.2263309   6.2263309
   6.2263309   6.2263309   5.9335684   5.9335684   5.9335684   5.9335684
   5.6388566   5.6388566   5.6388566   5.6388566   5.5266402   5.5266402
   5.5266402   5.5266402   7.1398235   7.1398235   7.1398235   7.1398235
   7.0543444   7.0543444   7.0543444   7.0543444   7.1447556   7.1447556
   7.1447556   7.1447556   7.0678532   7.0678532   7.0678532   7.0678532
   7.0880071   7.0880071   7.0880071   7.0880071   9.1674943   9.1674943
   9.1674943   9.1674943   9.1651639   9.1651639   9.1651639   9.1651639
  28.8980285  28.9133972
 TTTTTTTTTTTTTTTTTTTTTTTTTTTTTT MOQGAD      TELAPSE     1170.79 TCPU     1138.85
 TTTTTTTTTTTTTTTTTTTTTTTTTTTTTT SHELLXN     TELAPSE     1244.47 TCPU     1212.25
 TTTTTTTTTTTTTTTTTTTTTTTTTTTTTT MONMO3      TELAPSE     1254.25 TCPU     1221.98
 NUMERICALLY INTEGRATED DENSITY    423.9999155441
 TTTTTTTTTTTTTTTTTTTTTTTTTTTTTT NUMDFT      TELAPSE     1260.93 TCPU     1228.63
 CYC  11 ETOT(AU) -6.366357402752E+03 DETOT -1.87E-05 tst  1.44E-07 PX  8.66E-04
 TTTTTTTTTTTTTTTTTTTTTTTTTTTTTT DIIS        TELAPSE     1261.16 TCPU     1228.86
 DIIS TEST: 0.20863E-04 AT SCF   CYCLE  11 - DIIS ACTIVE - HISTORY:    11 CYCLES
 TTTTTTTTTTTTTTTTTTTTTTTTTTTTTT FDIK        TELAPSE     1271.60 TCPU     1238.90
 INSULATING STATE
 TOP OF VALENCE BANDS -    BAND    212; K    2; EIG -2.4659228E-01 AU
 TOP OF VALENCE BANDS -    BAND    212; K    1; EIG -2.4671977E-01 AU
 BOTTOM OF VIRTUAL BANDS - BAND    213; K    1; EIG -1.2686520E-01 AU
 INDIRECT ENERGY BAND GAP:   3.2579 eV
 TTTTTTTTTTTTTTTTTTTTTTTTTTTTTT PDIG        TELAPSE     1272.18 TCPU     1239.49
 TOTAL ATOMIC CHARGES:
   1.1590579   1.1590579   1.1590579   1.1590579   1.2160180   1.2160180
   1.2160180   1.2160180   6.1700406   6.1700406   6.1700406   6.1700406
   5.8493544   5.8493544   5.8493544   5.8493544   6.2259791   6.2259791
   6.2259791   6.2259791   5.9333156   5.9333156   5.9333156   5.9333156
   5.6380380   5.6380380   5.6380380   5.6380380   5.5265009   5.5265009
   5.5265009   5.5265009   7.1407911   7.1407911   7.1407911   7.1407911
   7.0533351   7.0533351   7.0533351   7.0533351   7.1456468   7.1456468
   7.1456468   7.1456468   7.0670608   7.0670608   7.0670608   7.0670608
   7.0888135   7.0888135   7.0888135   7.0888135   9.1674587   9.1674587
   9.1674587   9.1674587   9.1654717   9.1654717   9.1654717   9.1654717
  28.8984073  28.9140642
 TTTTTTTTTTTTTTTTTTTTTTTTTTTTTT MOQGAD      TELAPSE     1272.23 TCPU     1239.53
 TTTTTTTTTTTTTTTTTTTTTTTTTTTTTT SHELLXN     TELAPSE     1348.86 TCPU     1313.28
 TTTTTTTTTTTTTTTTTTTTTTTTTTTTTT MONMO3      TELAPSE     1356.04 TCPU     1320.44
 NUMERICALLY INTEGRATED DENSITY    423.9999155949
 TTTTTTTTTTTTTTTTTTTTTTTTTTTTTT NUMDFT      TELAPSE     1362.66 TCPU     1327.03
 CYC  12 ETOT(AU) -6.366357405831E+03 DETOT -3.08E-06 tst  3.70E-08 PX  3.11E-04
 TTTTTTTTTTTTTTTTTTTTTTTTTTTTTT DIIS        TELAPSE     1363.41 TCPU     1327.78
 DIIS TEST: 0.44726E-05 AT SCF   CYCLE  12 - DIIS ACTIVE - HISTORY:    12 CYCLES
 TTTTTTTTTTTTTTTTTTTTTTTTTTTTTT FDIK        TELAPSE     1375.83 TCPU     1338.46
 INSULATING STATE
 TOP OF VALENCE BANDS -    BAND    212; K    2; EIG -2.4659517E-01 AU
 TOP OF VALENCE BANDS -    BAND    212; K    1; EIG -2.4672355E-01 AU
 BOTTOM OF VIRTUAL BANDS - BAND    213; K    1; EIG -1.2685274E-01 AU
 INDIRECT ENERGY BAND GAP:   3.2584 eV
 TTTTTTTTTTTTTTTTTTTTTTTTTTTTTT PDIG        TELAPSE     1376.42 TCPU     1339.05
 TOTAL ATOMIC CHARGES:
   1.1590481   1.1590481   1.1590481   1.1590481   1.2160695   1.2160695
   1.2160695   1.2160695   6.1698953   6.1698953   6.1698953   6.1698953
   5.8496536   5.8496536   5.8496536   5.8496536   6.2260744   6.2260744
   6.2260744   6.2260744   5.9329037   5.9329037   5.9329037   5.9329037
   5.6385456   5.6385456   5.6385456   5.6385456   5.5265165   5.5265165
   5.5265165   5.5265165   7.1402670   7.1402670   7.1402670   7.1402670
   7.0536527   7.0536527   7.0536527   7.0536527   7.1451483   7.1451483
   7.1451483   7.1451483   7.0675298   7.0675298   7.0675298   7.0675298
   7.0888001   7.0888001   7.0888001   7.0888001   9.1673884   9.1673884
   9.1673884   9.1673884   9.1654482   9.1654482   9.1654482   9.1654482
  28.8983894  28.9138461
 TTTTTTTTTTTTTTTTTTTTTTTTTTTTTT MOQGAD      TELAPSE     1376.46 TCPU     1339.09
 TTTTTTTTTTTTTTTTTTTTTTTTTTTTTT SHELLXN     TELAPSE     1452.85 TCPU     1412.56
 TTTTTTTTTTTTTTTTTTTTTTTTTTTTTT MONMO3      TELAPSE     1462.64 TCPU     1422.33
 NUMERICALLY INTEGRATED DENSITY    423.9999155882
 TTTTTTTTTTTTTTTTTTTTTTTTTTTTTT NUMDFT      TELAPSE     1469.34 TCPU     1429.01
 CYC  13 ETOT(AU) -6.366357406386E+03 DETOT -5.55E-07 tst  7.37E-09 PX  1.48E-04
 TTTTTTTTTTTTTTTTTTTTTTTTTTTTTT DIIS        TELAPSE     1469.87 TCPU     1429.53
 DIIS TEST: 0.12910E-05 AT SCF   CYCLE  13 - DIIS ACTIVE - HISTORY:    13 CYCLES
 TTTTTTTTTTTTTTTTTTTTTTTTTTTTTT FDIK        TELAPSE     1482.34 TCPU     1441.56
 INSULATING STATE
 TOP OF VALENCE BANDS -    BAND    212; K    2; EIG -2.4658751E-01 AU
 TOP OF VALENCE BANDS -    BAND    212; K    1; EIG -2.4671519E-01 AU
 BOTTOM OF VIRTUAL BANDS - BAND    213; K    1; EIG -1.2685424E-01 AU
 INDIRECT ENERGY BAND GAP:   3.2581 eV
 TTTTTTTTTTTTTTTTTTTTTTTTTTTTTT PDIG        TELAPSE     1482.92 TCPU     1442.14
 TOTAL ATOMIC CHARGES:
   1.1590802   1.1590802   1.1590802   1.1590802   1.2160706   1.2160706
   1.2160706   1.2160706   6.1697210   6.1697210   6.1697210   6.1697210
   5.8496446   5.8496446   5.8496446   5.8496446   6.2260685   6.2260685
[...]
 DIIS TEST: 0.19220E+00 AT CPHF  CYCLE   6 - DIIS ACTIVE - HISTORY:     6 CYCLES
 CYCLE   6   ALPHA  886.040264  EPSILON    3.340565  DELTA    2.6315E+00
 TTTTTTTTTTTTTTTTTTTTTTTTTTTTTT MOQGAD      TELAPSE   135094.32 TCPU   134196.74
 TTTTTTTTTTTTTTTTTTTTTTTTTTTTTT CP_MONMON   TELAPSE   135124.72 TCPU   134227.04
 DIIS TEST: 0.18587E-01 AT CPHF  CYCLE   7 - DIIS ACTIVE - HISTORY:     7 CYCLES
 CYCLE   7   ALPHA  886.395916  EPSILON    3.341505  DELTA    3.5565E-01
 TTTTTTTTTTTTTTTTTTTTTTTTTTTTTT MOQGAD      TELAPSE   136566.13 TCPU   135663.69
 TTTTTTTTTTTTTTTTTTTTTTTTTTTTTT CP_MONMON   TELAPSE   136596.77 TCPU   135694.24
 DIIS TEST: 0.26534E-02 AT CPHF  CYCLE   8 - DIIS ACTIVE - HISTORY:     8 CYCLES
 CYCLE   8   ALPHA  886.509611  EPSILON    3.341805  DELTA    1.1369E-01
 TTTTTTTTTTTTTTTTTTTTTTTTTTTTTT MOQGAD      TELAPSE   138038.25 TCPU   137126.59
 TTTTTTTTTTTTTTTTTTTTTTTTTTTTTT CP_MONMON   TELAPSE   138068.86 TCPU   137157.11
 DIIS TEST: 0.28971E-03 AT CPHF  CYCLE   9 - DIIS ACTIVE - HISTORY:     9 CYCLES
 CYCLE   9   ALPHA  886.484927  EPSILON    3.341740  DELTA   -2.4684E-02
 TTTTTTTTTTTTTTTTTTTTTTTTTTTTTT MOQGAD      TELAPSE   139511.38 TCPU   138590.98
 TTTTTTTTTTTTTTTTTTTTTTTTTTTTTT CP_MONMON   TELAPSE   139541.84 TCPU   138621.35
 DIIS TEST: 0.58347E-04 AT CPHF  CYCLE  10 - DIIS ACTIVE - HISTORY:    10 CYCLES
 CYCLE  10   ALPHA  886.466775  EPSILON    3.341692  DELTA   -1.8152E-02
 TTTTTTTTTTTTTTTTTTTTTTTTTTTTTT MOQGAD      TELAPSE   140980.29 TCPU   140051.55
 TTTTTTTTTTTTTTTTTTTTTTTTTTTTTT CP_MONMON   TELAPSE   141010.66 TCPU   140081.85
 DIIS TEST: 0.57485E-05 AT CPHF  CYCLE  11 - DIIS ACTIVE - HISTORY:    11 CYCLES
 CYCLE  11   ALPHA  886.449073  EPSILON    3.341645  DELTA   -1.7701E-02
 TTTTTTTTTTTTTTTTTTTTTTTTTTTTTT MOQGAD      TELAPSE   142452.47 TCPU   141513.34
 TTTTTTTTTTTTTTTTTTTTTTTTTTTTTT CP_MONMON   TELAPSE   142482.89 TCPU   141543.69
 DIIS TEST: 0.54531E-06 AT CPHF  CYCLE  12 - DIIS ACTIVE - HISTORY:    12 CYCLES
 CYCLE  12   ALPHA  886.446284  EPSILON    3.341638  DELTA   -2.7889E-03
 TTTTTTTTTTTTTTTTTTTTTTTTTTTTTT MOQGAD      TELAPSE   143923.66 TCPU   142975.43
 TTTTTTTTTTTTTTTTTTTTTTTTTTTTTT CP_MONMON   TELAPSE   143954.33 TCPU   143005.98
 DIIS TEST: 0.53912E-07 AT CPHF  CYCLE  13 - DIIS ACTIVE - HISTORY:    13 CYCLES
 CYCLE  13   ALPHA  886.445290  EPSILON    3.341635  DELTA   -9.9438E-04
 TTTTTTTTTTTTTTTTTTTTTTTTTTTTTT CP_SC       TELAPSE   144072.80 TCPU   143121.11

 *******************************************************************************

 ELECTRIC FIELD APPLIED ALONG CARTESIAN DIRECTION Z

 *******************************************************************************
 THE NUMBER OF SYMMETRY OPERATORS HAS BEEN REDUCED FROM  4 TO  1

 NEW GRID IN RECIPROCAL SPACE
 *******************************************************************************
 POINTS IN THE IBZ                  14 SHRINKING FACTORS               3  3  3
 *******************************************************************************
 *** K POINTS COORDINATES (OBLIQUE COORDINATES IN UNITS OF SHRINK FAC. )
   1-R(  0  0  0)   2-C(  1  0  0)   3-C(  0  1  2)   4-C(  2  0  1)
   5-C(  0  2  0)   6-C(  1  1  0)   7-C(  1  1  1)   8-C(  1  0  1)
   9-C(  0  1  1)  10-C(  2  1  0)  11-C(  0  0  2)  12-C(  2  1  1)
  13-C(  2  1  2)  14-C(  2  2  1)

 GCALCO - MAX INDICES DIRECT LATTICE VECTOR    14    14    16
 NO.OF VECTORS CREATED 6999 STARS  482 RMAX   200.15221 BOHR
 TTTTTTTTTTTTTTTTTTTTTTTTTTTTTT gordsh1     TELAPSE   144122.98 TCPU   143169.96

 MATRIX SIZE: P(G) 1789656, F(G)  895534, P(G) IRR  897164, F(G) IRR  897164
 MAX G-VECTOR INDEX FOR 1- AND 2-ELECTRON INTEGRALS  63

 TTTTTTTTTTTTTTTTTTTTTTTTTTTTTT INPUT       TELAPSE   144151.97 TCPU   143198.70
 TTTTTTTTTTTTTTTTTTTTTTTTTTTTTT SYMM        TELAPSE   144151.97 TCPU   143198.70

 ***** NEW REFERENCE GEOMETRY *****
 TTTTTTTTTTTTTTTTTTTTTTTTTTTTTT INT_SCREEN  TELAPSE   144151.99 TCPU   143198.71
 INFORMATION **** EXCBUF **** EXCH. BIPO BUFFER: WORDS USED =           0

 DFT PARAMETERS

     ATOM       ELECTRONS   NET CHARGE   R(ANGSTROM)
   1   1  H       1.0000      0.0000     1.11000000
   9   6  C       6.0000      0.0000     0.77000000
  33   7  N       7.0000      0.0000     0.74000000
  53   9  F       9.0000      0.0000     0.72000000
  61  30  ZN     30.0000      0.0000     1.37000000

 SIZE OF GRID=    1909538
 TTTTTTTTTTTTTTTTTTTTTTTTTTTTTT MAKE_GRID2  TELAPSE   144154.31 TCPU   143201.03
 BECKE WEIGHT FUNCTION
 RADSAFE =     2.00
 TOLERANCES - DENSITY:10**- 6; POTENTIAL:10**- 9; GRID WGT:10**-14

 RADIAL INTEGRATION  - INTERVALS (POINTS,UPPER LIMIT):            1( 75,  4.0*R)

 ANGULAR INTEGRATION - INTERVALS (ACCURACY LEVEL [N. POINTS] UPPER LIMIT):
  1(  4[  86]   0.2)  2(  8[ 194]   0.5)  3( 12[ 350]   0.9)  4( 16[ 974]   3.5)
  5( 12[ 350]9999.0)
 TTTTTTTTTTTTTTTTTTTTTTTTTTTTTT INT_CALC    TELAPSE   144154.44 TCPU   143201.15
 CYCLE   0   ALPHA  609.163398  EPSILON    2.609167  DELTA    6.0916E+02
 TTTTTTTTTTTTTTTTTTTTTTTTTTTTTT MOQGAD      TELAPSE   145542.90 TCPU   144584.69
 TTTTTTTTTTTTTTTTTTTTTTTTTTTTTT CP_MONMON   TELAPSE   145573.20 TCPU   144614.89
 DIIS TEST: 0.12148E+03 AT CPHF  CYCLE   1 - MIX    0 %
 CYCLE   1   ALPHA  183.762508  EPSILON    1.485427  DELTA   -4.2540E+02
 TTTTTTTTTTTTTTTTTTTTTTTTTTTTTT MOQGAD      TELAPSE   146984.46 TCPU   146018.37
 TTTTTTTTTTTTTTTTTTTTTTTTTTTTTT CP_MONMON   TELAPSE   147014.74 TCPU   146048.55
 DIIS TEST: 0.11389E+04 AT CPHF  CYCLE   2 - DIIS ACTIVE - HISTORY:     2 CYCLES
 CYCLE   2   ALPHA  425.674004  EPSILON    2.124461  DELTA    2.4191E+02
 TTTTTTTTTTTTTTTTTTTTTTTTTTTTTT MOQGAD      TELAPSE   148430.16 TCPU   147453.57
 TTTTTTTTTTTTTTTTTTTTTTTTTTTTTT CP_MONMON   TELAPSE   148460.35 TCPU   147483.69
 DIIS TEST: 0.20703E+02 AT CPHF  CYCLE   3 - DIIS ACTIVE - HISTORY:     3 CYCLES
 CYCLE   3   ALPHA  453.814253  EPSILON    2.198796  DELTA    2.8140E+01
 TTTTTTTTTTTTTTTTTTTTTTTTTTTTTT MOQGAD      TELAPSE   149875.17 TCPU   148888.59
 TTTTTTTTTTTTTTTTTTTTTTTTTTTTTT CP_MONMON   TELAPSE   149905.63 TCPU   148918.92
 DIIS TEST: 0.98341E+01 AT CPHF  CYCLE   4 - DIIS ACTIVE - HISTORY:     4 CYCLES
 CYCLE   4   ALPHA  456.966303  EPSILON    2.207123  DELTA    3.1520E+00
 TTTTTTTTTTTTTTTTTTTTTTTTTTTTTT MOQGAD      TELAPSE   151315.82 TCPU   150324.12
 TTTTTTTTTTTTTTTTTTTTTTTTTTTTTT CP_MONMON   TELAPSE   151346.07 TCPU   150354.24
 DIIS TEST: 0.35401E+00 AT CPHF  CYCLE   5 - DIIS ACTIVE - HISTORY:     5 CYCLES
 CYCLE   5   ALPHA  457.788244  EPSILON    2.209294  DELTA    8.2194E-01
 TTTTTTTTTTTTTTTTTTTTTTTTTTTTTT MOQGAD      TELAPSE   152758.83 TCPU   151758.40
 TTTTTTTTTTTTTTTTTTTTTTTTTTTTTT CP_MONMON   TELAPSE   152789.04 TCPU   151788.53
 DIIS TEST: 0.39271E-01 AT CPHF  CYCLE   6 - DIIS ACTIVE - HISTORY:     6 CYCLES
 CYCLE   6   ALPHA  458.255792  EPSILON    2.210529  DELTA    4.6755E-01
 TTTTTTTTTTTTTTTTTTTTTTTTTTTTTT MOQGAD      TELAPSE   154199.73 TCPU   153187.18
 TTTTTTTTTTTTTTTTTTTTTTTTTTTTTT CP_MONMON   TELAPSE   154229.97 TCPU   153217.32
 DIIS TEST: 0.13426E-01 AT CPHF  CYCLE   7 - DIIS ACTIVE - HISTORY:     7 CYCLES
 CYCLE   7   ALPHA  458.274850  EPSILON    2.210579  DELTA    1.9058E-02
 TTTTTTTTTTTTTTTTTTTTTTTTTTTTTT MOQGAD      TELAPSE   155640.81 TCPU   154622.51
 TTTTTTTTTTTTTTTTTTTTTTTTTTTTTT CP_MONMON   TELAPSE   155671.01 TCPU   154652.64
 DIIS TEST: 0.11203E-02 AT CPHF  CYCLE   8 - DIIS ACTIVE - HISTORY:     8 CYCLES
 CYCLE   8   ALPHA  458.304568  EPSILON    2.210658  DELTA    2.9718E-02
 TTTTTTTTTTTTTTTTTTTTTTTTTTTTTT MOQGAD      TELAPSE   157085.25 TCPU   156053.99
 TTTTTTTTTTTTTTTTTTTTTTTTTTTTTT CP_MONMON   TELAPSE   157115.68 TCPU   156084.29
 DIIS TEST: 0.13018E-03 AT CPHF  CYCLE   9 - DIIS ACTIVE - HISTORY:     9 CYCLES
 CYCLE   9   ALPHA  458.294557  EPSILON    2.210632  DELTA   -1.0012E-02
 TTTTTTTTTTTTTTTTTTTTTTTTTTTTTT MOQGAD      TELAPSE   158526.02 TCPU   157487.10
 TTTTTTTTTTTTTTTTTTTTTTTTTTTTTT CP_MONMON   TELAPSE   158556.27 TCPU   157517.27
 DIIS TEST: 0.12293E-04 AT CPHF  CYCLE  10 - DIIS ACTIVE - HISTORY:    10 CYCLES
 CYCLE  10   ALPHA  458.285492  EPSILON    2.210608  DELTA   -9.0642E-03
 TTTTTTTTTTTTTTTTTTTTTTTTTTTTTT MOQGAD      TELAPSE   159969.82 TCPU   158920.20
 TTTTTTTTTTTTTTTTTTTTTTTTTTTTTT CP_MONMON   TELAPSE   160000.29 TCPU   158950.60
 DIIS TEST: 0.12303E-05 AT CPHF  CYCLE  11 - DIIS ACTIVE - HISTORY:    11 CYCLES
 CYCLE  11   ALPHA  458.283940  EPSILON    2.210603  DELTA   -1.5524E-03
 TTTTTTTTTTTTTTTTTTTTTTTTTTTTTT MOQGAD      TELAPSE   161414.96 TCPU   160354.57
 TTTTTTTTTTTTTTTTTTTTTTTTTTTTTT CP_MONMON   TELAPSE   161445.40 TCPU   160384.94
 DIIS TEST: 0.71023E-06 AT CPHF  CYCLE  12 - DIIS ACTIVE - HISTORY:    12 CYCLES
 CYCLE  12   ALPHA  458.283739  EPSILON    2.210603  DELTA   -2.0126E-04
 TTTTTTTTTTTTTTTTTTTTTTTTTTTTTT CP_SC       TELAPSE   161551.06 TCPU   160485.74

 *******************************************************************************

 POLARIZABILITY (ALPHA), DIELECTRIC (EPSILON) AND FIRST-ORDER ELECTRIC
 SUSCEPTIBILITY (CHI(1)) TENSORS (INDEPENDENT COMPONENTS)

  FR.(eV) COMP.   ALPHA(Re,Im)           EPSILON(Re,Im)                CHI(1)
  2.331   XX     886.4449       0.0000       3.3416       0.0000       2.3416
  2.331   XY      -0.0007       0.0000      -0.0000       0.0000      -0.0000
  2.331   XZ      -0.0000       0.0000      -0.0000       0.0000      -0.0000
  2.331   YY     886.4453       0.0000       3.3416       0.0000       2.3416
  2.331   YZ      -0.0000       0.0000      -0.0000       0.0000      -0.0000
  2.331   ZZ     458.2837       0.0000       2.2106       0.0000       1.2106

 DIELECTRIC TENSOR

 TENSOR IN PRINCIPAL AXES SYSTEM
 AA  3.341633E+00 BB  3.341637E+00 CC  2.210603E+00

 REFRACTIVE INDICES 
 AA  1.486810E+00 BB  1.828013E+00 CC  1.828014E+00

 OPTICALLY ANISOTROPIC - UNIAXIAL CRYSTAL

 BIREFRINGENCE =  0.3412 (NEGATIVE) - OBLATE OPTICAL ELLIPSOID

 EPSILON=N**2=1+CHI(1)=1+ALPHA*4*PI/V,   4*PI/V=   0.00264 BOHR**(-3)
 ALPHA IN BOHR**3; EPSILON AND CHI(1) ARE DIMENSIONLESS.
 *******************************************************************************


  Pockels Effect beta(-omega;omega,0) with omega=   1.1653 eV


 SIZE OF GRID=    1909538
 TTTTTTTTTTTTTTTTTTTTTTTTTTTTTT MAKE_GRID2  TELAPSE   162015.20 TCPU   160945.36
 BECKE WEIGHT FUNCTION
 RADSAFE =     2.00
 TOLERANCES - DENSITY:10**- 6; POTENTIAL:10**- 9; GRID WGT:10**-14

 RADIAL INTEGRATION  - INTERVALS (POINTS,UPPER LIMIT):            1( 75,  4.0*R)

 ANGULAR INTEGRATION - INTERVALS (ACCURACY LEVEL [N. POINTS] UPPER LIMIT):
  1(  4[  86]   0.2)  2(  8[ 194]   0.5)  3( 12[ 350]   0.9)  4( 16[ 974]   3.5)
  5( 12[ 350]9999.0)

 SIZE OF GRID=    1909538
 TTTTTTTTTTTTTTTTTTTTTTTTTTTTTT MAKE_GRID2  TELAPSE   162018.66 TCPU   160948.14
 BECKE WEIGHT FUNCTION
 RADSAFE =     2.00
 TOLERANCES - DENSITY:10**- 6; POTENTIAL:10**- 9; GRID WGT:10**-14

 RADIAL INTEGRATION  - INTERVALS (POINTS,UPPER LIMIT):            1( 75,  4.0*R)

 ANGULAR INTEGRATION - INTERVALS (ACCURACY LEVEL [N. POINTS] UPPER LIMIT):
  1(  4[  86]   0.2)  2(  8[ 194]   0.5)  3( 12[ 350]   0.9)  4( 16[ 974]   3.5)
  5( 12[ 350]9999.0)
 *******************************************************************************

 DC-POCKELS AND SECOND ELECTRIC SUSCEPTIBILITY (CHI(2))
 TENSORS (INDEPENDENT COMPONENTS)

BETA                                         CHI(2)       d(MKS)       d(cgs)
 *******************************************************************************

     XXX          0.3716E-02   0.4908E-05   0.4773E-05   0.1139E-06
     XXY         -0.2066E-03  -0.2728E-06  -0.2653E-06  -0.6328E-08
     XXZ          0.5246E+02   0.6928E-01   0.6737E-01   0.1607E-02
     XYX          0.3459E-02   0.4568E-05   0.4442E-05   0.1060E-06
     XYY          0.2119E-02   0.2799E-05   0.2721E-05   0.6492E-07
     XYZ          0.1222E+03   0.1614E+00   0.1569E+00   0.3744E-02
     XZX          0.4855E+02   0.6412E-01   0.6235E-01   0.1487E-02
     XZY          0.1392E+03   0.1838E+00   0.1788E+00   0.4265E-02
     XZZ          0.2495E-02   0.3296E-05   0.3205E-05   0.7645E-07
     YXX          0.3469E-02   0.4582E-05   0.4456E-05   0.1063E-06
     YXY          0.2089E-02   0.2760E-05   0.2683E-05   0.6401E-07
     YXZ          0.1222E+03   0.1614E+00   0.1569E+00   0.3744E-02
     YYX          0.1445E-03   0.1908E-06   0.1856E-06   0.4427E-08
     YYY          0.7234E-02   0.9555E-05   0.9290E-05   0.2216E-06
     YYZ         -0.5246E+02  -0.6928E-01  -0.6737E-01  -0.1607E-02
     YZX          0.1392E+03   0.1838E+00   0.1788E+00   0.4264E-02
     YZY         -0.4861E+02  -0.6420E-01  -0.6243E-01  -0.1489E-02
     YZZ          0.4390E-02   0.5798E-05   0.5637E-05   0.1345E-06
     ZXX          0.4857E+02   0.6415E-01   0.6238E-01   0.1488E-02
     ZXY          0.1392E+03   0.1838E+00   0.1787E+00   0.4264E-02
     ZXZ          0.2501E-02   0.3303E-05   0.3212E-05   0.7662E-07
     ZYX          0.1392E+03   0.1838E+00   0.1787E+00   0.4264E-02
     ZYY         -0.4863E+02  -0.6423E-01  -0.6246E-01  -0.1490E-02
     ZYZ          0.4391E-02   0.5799E-05   0.5639E-05   0.1345E-06
     ZZX          0.2120E-04   0.2800E-07   0.2722E-07   0.6495E-09
     ZZY          0.5646E-05   0.7457E-08   0.7250E-08   0.1730E-09
     ZZZ         -0.7344E-01  -0.9699E-04  -0.9431E-04  -0.2250E-05
 *******************************************************************************
 CHI(2) = BETA*2PI/V

 BETA AND CHI(2) IN A.U.:    [BETA] = M**(-1/2) L**(7/2) T
                             [CHI(2)] = 1/F
                             (L=LENGTH, M=MASS, T=TIME, F=FIELD INTENSITY)

 ELECTRIC SUSCEPTIBILITY IN THE SECOND HARMONIC GENERATION (SHG) CONVENTION IS:
                   d(A.U.)= 1/2 CHI(2)
                   d(MKS) = d(A.U.)/0.514220632 pm/V
                   d(CGS) = d(A.U.)/(4PI*1.7152535)  10**(-7) esu

 FIELD INTENSITY: 1 A.U. = 0.514220632*10**(11) V/m = 1.7152535*10**7 esu
 BEWARE:                CHI(2)=P/(E0*F**2)   (MKS)
                        CHI(2)=P/F**2        (CGS)
 WHERE P IS THE POLARIZATION VECTOR AND F IS THE APPLIED ELECTRIC FIELD.
 CONSISTENCY IS  PRESERVED BY MULTIPLYING THE CGS VALUE TIMES THE PERMITTIVITY
 OF THE VACUUM, E0 (CONVERSION FACTORS FROM www.physics.nist.gov/constants).
 IN PARENTHESIS: BETA BEFORE SYMMETRIZATION.

  SHG Effect beta(-2omega;omega,omega) with omega=   1.1653 eV


 SIZE OF GRID=    1909538
 TTTTTTTTTTTTTTTTTTTTTTTTTTTTTT MAKE_GRID2  TELAPSE   162399.94 TCPU   161327.72
 BECKE WEIGHT FUNCTION
 RADSAFE =     2.00
 TOLERANCES - DENSITY:10**- 6; POTENTIAL:10**- 9; GRID WGT:10**-14

 RADIAL INTEGRATION  - INTERVALS (POINTS,UPPER LIMIT):            1( 75,  4.0*R)

 ANGULAR INTEGRATION - INTERVALS (ACCURACY LEVEL [N. POINTS] UPPER LIMIT):
  1(  4[  86]   0.2)  2(  8[ 194]   0.5)  3( 12[ 350]   0.9)  4( 16[ 974]   3.5)
  5( 12[ 350]9999.0)

 SIZE OF GRID=    1909538
 TTTTTTTTTTTTTTTTTTTTTTTTTTTTTT MAKE_GRID2  TELAPSE   162402.60 TCPU   161330.37
 BECKE WEIGHT FUNCTION
 RADSAFE =     2.00
 TOLERANCES - DENSITY:10**- 6; POTENTIAL:10**- 9; GRID WGT:10**-14

 RADIAL INTEGRATION  - INTERVALS (POINTS,UPPER LIMIT):            1( 75,  4.0*R)

 ANGULAR INTEGRATION - INTERVALS (ACCURACY LEVEL [N. POINTS] UPPER LIMIT):
  1(  4[  86]   0.2)  2(  8[ 194]   0.5)  3( 12[ 350]   0.9)  4( 16[ 974]   3.5)
  5( 12[ 350]9999.0)
 *******************************************************************************

 SECOND HARMONIC GENERATION (SHG)  AND SECOND ELECTRIC SUSCEPTIBILITY (CHI(2))
 TENSORS (INDEPENDENT COMPONENTS)

BETA                                         CHI(2)       d(MKS)       d(cgs)
 *******************************************************************************

     XXX          0.6637E-02   0.8767E-05   0.8524E-05   0.2034E-06
     XXY          0.3693E-02   0.4878E-05   0.4743E-05   0.1132E-06
     XXZ          0.7237E+01   0.9559E-02   0.9295E-02   0.2217E-03
     XYX          0.3693E-02   0.4878E-05   0.4743E-05   0.1132E-06
     XYY          0.2407E-02   0.3179E-05   0.3091E-05   0.7373E-07
     XYZ          0.1496E+03   0.1977E+00   0.1922E+00   0.4585E-02
     XZX          0.7237E+01   0.9559E-02   0.9295E-02   0.2217E-03
     XZY          0.1496E+03   0.1977E+00   0.1922E+00   0.4585E-02
     XZZ          0.2908E-02   0.3842E-05   0.3735E-05   0.8911E-07
     YXX          0.4309E-02   0.5691E-05   0.5534E-05   0.1320E-06
     YXY          0.2479E-02   0.3275E-05   0.3184E-05   0.7596E-07
     YXZ          0.1496E+03   0.1976E+00   0.1922E+00   0.4585E-02
     YYX          0.2479E-02   0.3275E-05   0.3184E-05   0.7596E-07
     YYY          0.1245E-01   0.1645E-04   0.1599E-04   0.3816E-06
     YYZ         -0.7304E+01  -0.9647E-02  -0.9381E-02  -0.2238E-03
     YZX          0.1496E+03   0.1976E+00   0.1922E+00   0.4585E-02
     YZY         -0.7304E+01  -0.9647E-02  -0.9381E-02  -0.2238E-03
     YZZ          0.5217E-02   0.6890E-05   0.6700E-05   0.1598E-06
     ZXX          0.1814E+02   0.2396E-01   0.2330E-01   0.5557E-03
     ZXY          0.2338E+03   0.3088E+00   0.3002E+00   0.7162E-02
     ZXZ          0.2652E-02   0.3503E-05   0.3406E-05   0.8126E-07
     ZYX          0.2338E+03   0.3088E+00   0.3002E+00   0.7162E-02
     ZYY         -0.1821E+02  -0.2406E-01  -0.2339E-01  -0.5580E-03
     ZYZ          0.4667E-02   0.6165E-05   0.5994E-05   0.1430E-06
     ZZX          0.2652E-02   0.3503E-05   0.3406E-05   0.8126E-07
     ZZY          0.4667E-02   0.6165E-05   0.5994E-05   0.1430E-06
     ZZZ         -0.1196E+00  -0.1580E-03  -0.1536E-03  -0.3665E-05
 *******************************************************************************
 CHI(2) = BETA*2PI/V

 BETA AND CHI(2) IN A.U.:    [BETA] = M**(-1/2) L**(7/2) T
                             [CHI(2)] = 1/F
                             (L=LENGTH, M=MASS, T=TIME, F=FIELD INTENSITY)

 ELECTRIC SUSCEPTIBILITY IN THE SECOND HARMONIC GENERATION (SHG) CONVENTION IS:
                   d(A.U.)= 1/2 CHI(2)
                   d(MKS) = d(A.U.)/0.514220632 pm/V
                   d(CGS) = d(A.U.)/(4PI*1.7152535)  10**(-7) esu

 FIELD INTENSITY: 1 A.U. = 0.514220632*10**(11) V/m = 1.7152535*10**7 esu
 BEWARE:                CHI(2)=P/(E0*F**2)   (MKS)
                        CHI(2)=P/F**2        (CGS)
 WHERE P IS THE POLARIZATION VECTOR AND F IS THE APPLIED ELECTRIC FIELD.
 CONSISTENCY IS  PRESERVED BY MULTIPLYING THE CGS VALUE TIMES THE PERMITTIVITY
 OF THE VACUUM, E0 (CONVERSION FACTORS FROM www.physics.nist.gov/constants).
 IN PARENTHESIS: BETA BEFORE SYMMETRIZATION.

 *******************************************************************************


 GCALCO - MAX INDICES DIRECT LATTICE VECTOR    14    14    16
 NO.OF VECTORS CREATED 6999 STARS  482 RMAX   200.15221 BOHR

 CAPPA:IS1  3;IS2  3;IS3  3; K PTS MONK NET   6; SYMMOPS:K SPACE   8;G SPACE   4

 TTTTTTTTTTTTTTTTTTTTTTTTTTTTTT END         TELAPSE   162402.98 TCPU   161330.75
 EEEEEEEEEE TERMINATION  DATE 01 12 2023 TIME 10:18:53.8
NODE    0 CPU TIME =    161330.745
NODE    1 CPU TIME =    161636.405
NODE    2 CPU TIME =    161610.117
NODE    3 CPU TIME =    161629.897
NODE    4 CPU TIME =    161487.538
NODE    5 CPU TIME =    161663.268
NODE    6 CPU TIME =    161594.985
NODE    7 CPU TIME =    161591.414
NODE    8 CPU TIME =    161483.909
NODE    9 CPU TIME =    161606.717
NODE   10 CPU TIME =    161346.405
NODE   11 CPU TIME =    161341.653
NODE   12 CPU TIME =    161174.578
NODE   13 CPU TIME =    161362.139
NODE   14 CPU TIME =    161350.482
NODE   15 CPU TIME =    161351.422
NODE   16 CPU TIME =    161207.757
NODE   17 CPU TIME =    161412.943
NODE   18 CPU TIME =    161311.202
NODE   19 CPU TIME =    161308.575
NODE   20 CPU TIME =    161206.414
NODE   21 CPU TIME =    161384.090
NODE   22 CPU TIME =    161355.571
NODE   23 CPU TIME =    161304.063
    TOTAL CPU TIME =   3874052.289
trying normal rsh (/usr/bin/rsh)
exec: No such file or directory
trying normal rsh (/usr/bin/rsh)
exec: No such file or directory
trying normal rsh (/usr/bin/rsh)
exec: No such file or directory
trying normal rsh (/usr/bin/rsh)
exec: No such file or directory
