Loading crystal17/1.0.2/intel/19.0
  Loading requirement: intel/19.0 ompi/4.0.1/intel/19.0
 PROCESS            3  OF           24  WORKING
 PROCESS            9  OF           24  WORKING
 PROCESS           11  OF           24  WORKING
 PROCESS            2  OF           24  WORKING
 PROCESS            4  OF           24  WORKING
 PROCESS            5  OF           24  WORKING
 PROCESS            6  OF           24  WORKING
 PROCESS           13  OF           24  WORKING
 PROCESS           15  OF           24  WORKING
 PROCESS            1  OF           24  WORKING
 PROCESS           23  OF           24  WORKING
 PROCESS           19  OF           24  WORKING
 PROCESS            0  OF           24  WORKING
 PROCESS           10  OF           24  WORKING
 PROCESS           14  OF           24  WORKING
 PROCESS            8  OF           24  WORKING
 PROCESS           12  OF           24  WORKING
 PROCESS           16  OF           24  WORKING
 PROCESS           18  OF           24  WORKING
 PROCESS           20  OF           24  WORKING
 PROCESS           22  OF           24  WORKING
 PROCESS           21  OF           24  WORKING
 PROCESS            7  OF           24  WORKING

         
 *******************************************************************************
 *                                                                             *
 *                               CRYSTAL17                                     *
 *                      public : 1.0.2 - March 1st, 2018                       *
 *                       HTTP://WWW.CRYSTAL.UNITO.IT                           *
 *                                                                             *
 *                              MAIN AUTHORS                                   *
 *                                                                             *
 *  R. DOVESI(1,11), V.R. SAUNDERS(2), C. ROETTI(1,11), R. ORLANDO(1,11),      *
 *  C.M. ZICOVICH-WILSON(1,3), F. PASCALE(4), B. CIVALLERI(1,11),              *
 *  K. DOLL(5), N.M. HARRISON(2,6), I.J. BUSH(7), Ph. D'ARCO(8),               *
 *  M. LLUNELL(9), M. CAUSA'(10), Y. NOEL(8), L. MASCHIO(1,11), A. ERBA(1,11)  *
 *  M. RE'RAT(14), S. CASASSA(1,11)                                            *
 *                                                                             *
 *        CONTRIBUTIONS TO THE CODE HAVE ALSO BEEN GIVEN BY                    *
 *                                                                             *
 *  M. FERRABONE(1,11), M. DE LA PIERRE(1,11), M. FERRERO(1,11),               *
 *  J. BAIMA(1,11), E. ALBANESE(1,11), M.F. PEINTINGER(12), R. BAST(13),       *
 *  B. KIRTMAN(15), V. LACIVITA(1,11), R. DEMICHELIS(1,16)                     *
 *  G. BRANDEBURG(17), S. SALUSTRO(1,11), G. SANSONE(1,11)                     *
 *  M.T. RUGGIERO(18)                                                          *
 *                                                                             *
 * (1) THEORETICAL CHEMISTRY GROUP - UNIVERSITA' DI TORINO - TORINO (ITALY)    *
 * (2) COMPUTATIONAL SCIENCE & ENGINEERING DEPARTMENT - STFC DARESBURY (UK)    *
 * (3) UNIVERSIDAD AUTONOMA DEL ESTADO DE MORELOS - CUERNAVACA (MEXICO)        *
 * (4) UNIVERSITE' DE LORRAINE - NANCY (FRANCE)                                *
 * (5) UNIVERSITAET STUTTGART- STUTTGART (GERMANY)                             *
 * (6) IMPERIAL COLLEGE - LONDON (UK)                                          *
 * (7) OXFORD E-RESEARCH CENTRE - OXFORD (UK)                                  *
 * (8) UPMC - SORBONNE UNIVERSITES - PARIS (FRANCE)                            *
 * (9) UNIVERSIDAD DE BARCELONA - BARCELONA (SPAIN)                            *
 *(10) UNIVERSITA' DI NAPOLI "FEDERICO II" - NAPOLI (ITALY)                    *
 *(11) NIS - NANOSTRUCTURED INTERFACES AND SURFACES - TORINO (ITALY)           *
 *(12) MPI FUER CHEMISCHE ENERGIEKONVERSION - MUELHEIM AN DER RUHR (GERMANY)   *
 *(13) UNIVERSITY OF TROMSO - TROMSO (NORWAY)                                  *
 *(14) UNIVERSITE' DE PAU ET DES PAYS DE L'ADOUR - PAU (FRANCE)                *
 *(15) UNIVERSITY OF CALIFORNIA SANTA BARBARA - SANTA BARBARA (USA)            *
 *(16) CURTIN UNIVERSITY - PERTH (AUSTRALIA)                                   *
 *(17) UNIVERSITY COLLEGE LONDON - LONDON (UK)                                 *
 *(18) CAMBRIDGE UNIVERSITY - CAMBRIDGE (UK)                                   *
 *                                                                             *
 *******************************************************************************
 EEEEEEEEEE STARTING  DATE 01 12 2023 TIME 03:39:38.9
 Z:\home\sanoj\Downloads\tmp_p\newconn.mol                                       

 CRYSTAL CALCULATION
 (INPUT ACCORDING TO THE INTERNATIONAL TABLES FOR X-RAY CRYSTALLOGRAPHY)
 CRYSTAL FAMILY                       :  TETRAGONAL  
 CRYSTAL CLASS  (GROTH - 1921)        :  TETRAGONAL DISPHENOIDAL              

 SPACE GROUP (NONCENTROSYMMETRIC)     :  I -4            

 LATTICE PARAMETERS  (ANGSTROMS AND DEGREES) - CONVENTIONAL CELL
        A           B           C        ALPHA        BETA       GAMMA
    10.56313    10.56313    12.55168    90.00000    90.00000    90.00000


 NUMBER OF IRREDUCIBLE ATOMS IN THE CONVENTIONAL CELL:   17

 INPUT COORDINATES

 ATOM AT. N.              COORDINATES
   1   1     5.374000000000E-02  7.791700000000E-01  3.528700000000E-01
   2   1     8.290000000000E-02  5.420900000000E-01  3.491700000000E-01
   3   6     2.530600000000E-01  8.152500000000E-01  3.828200000000E-01
   4   6     2.476200000000E-01 -4.740000000000E-02  3.755500000000E-01
   5   6     1.471000000000E-01  7.372600000000E-01  3.654600000000E-01
   6   6     2.845300000000E-01  5.586400000000E-01  3.747200000000E-01
   7   6     3.677500000000E-01  7.519200000000E-01  4.004200000000E-01
   8   6     8.380400000000E-01  3.935900000000E-01  3.619200000000E-01
   9   7     3.363200000000E-01  2.826000000000E-02  3.303700000000E-01
  10   7     2.904200000000E-01  1.502000000000E-01  3.346300000000E-01
  11   7     1.497200000000E-01  2.544000000000E-02  4.076100000000E-01
  12   7     1.781200000000E-01  1.487100000000E-01  3.801900000000E-01
  13   7     3.856400000000E-01  6.286900000000E-01  3.953700000000E-01
  14   9     4.707300000000E-01  8.220800000000E-01  4.246300000000E-01
  15   9     3.039800000000E-01  4.336200000000E-01  3.656700000000E-01
  16  30     0.000000000000E+00  5.000000000000E-01  7.500000000000E-01
  17  30     0.000000000000E+00  0.000000000000E+00  5.000000000000E-01

 *******************************************************************************

 << INFORMATION >>: FROM NOW ON, ALL COORDINATES REFER TO THE PRIMITIVE CELL

 *******************************************************************************

 LATTICE PARAMETERS  (ANGSTROMS AND DEGREES) - PRIMITIVE CELL
       A          B          C        ALPHA      BETA     GAMMA        VOLUME
    9.75582    9.75582    9.75582   114.44530 114.44530  99.92456    700.256175

 COORDINATES OF THE EQUIVALENT ATOMS (FRACTIONAL UNITS)

 N. ATOM EQUIV AT. N.          X                  Y                  Z

   1   1   1    1 H     1.32040000000E-01  4.06610000000E-01 -1.67090000000E-01
   2   1   2    1 H    -4.26300000000E-01  2.99130000000E-01  1.67090000000E-01
   3   1   3    1 H    -4.06610000000E-01  4.26300000000E-01 -2.74570000000E-01
   4   1   4    1 H    -2.99130000000E-01 -1.32040000000E-01  2.74570000000E-01

   5   2   1    1 H    -1.08740000000E-01  4.32070000000E-01 -3.75010000000E-01
   6   2   2    1 H    -1.92920000000E-01  2.66270000000E-01  3.75010000000E-01
   7   2   3    1 H    -4.32070000000E-01  1.92920000000E-01  4.59190000000E-01
   8   2   4    1 H    -2.66270000000E-01  1.08740000000E-01 -4.59190000000E-01

   9   3   1    6 C     1.98070000000E-01 -3.64120000000E-01  6.83100000000E-02
  10   3   2    6 C    -4.32430000000E-01  1.29760000000E-01 -6.83100000000E-02
  11   3   3    6 C     3.64120000000E-01  4.32430000000E-01 -4.37810000000E-01
  12   3   4    6 C    -1.29760000000E-01 -1.98070000000E-01  4.37810000000E-01

  13   4   1    6 C     3.28150000000E-01 -3.76830000000E-01  2.00220000000E-01
  14   4   2    6 C     4.22950000000E-01  1.27930000000E-01 -2.00220000000E-01
  15   4   3    6 C     3.76830000000E-01 -4.22950000000E-01 -2.95020000000E-01
  16   4   4    6 C    -1.27930000000E-01 -3.28150000000E-01  2.95020000000E-01

  17   5   1    6 C     1.02720000000E-01 -4.87440000000E-01 -1.15640000000E-01
  18   5   2    6 C    -3.71800000000E-01  2.18360000000E-01  1.15640000000E-01
  19   5   3    6 C     4.87440000000E-01  3.71800000000E-01 -4.09840000000E-01
  20   5   4    6 C    -2.18360000000E-01 -1.02720000000E-01  4.09840000000E-01

  21   6   1    6 C    -6.66400000000E-02 -3.40750000000E-01 -1.56830000000E-01
  22   6   2    6 C    -1.83920000000E-01  9.01900000000E-02  1.56830000000E-01
  23   6   3    6 C     3.40750000000E-01  1.83920000000E-01  2.74110000000E-01
  24   6   4    6 C    -9.01900000000E-02  6.66400000000E-02 -2.74110000000E-01

  25   7   1    6 C     1.52340000000E-01 -2.31830000000E-01  1.19670000000E-01
  26   7   2    6 C    -3.51500000000E-01  3.26700000000E-02 -1.19670000000E-01
  27   7   3    6 C     2.31830000000E-01  3.51500000000E-01  3.84170000000E-01
  28   7   4    6 C    -3.26700000000E-02 -1.52340000000E-01 -3.84170000000E-01

  29   8   1    6 C    -2.44490000000E-01  1.99960000000E-01  2.31630000000E-01
  30   8   2    6 C    -3.16700000000E-02 -4.76120000000E-01 -2.31630000000E-01
  31   8   3    6 C    -1.99960000000E-01  3.16700000000E-02 -4.44450000000E-01
  32   8   4    6 C     4.76120000000E-01  2.44490000000E-01  4.44450000000E-01

  33   9   1    7 N     3.58630000000E-01 -3.33310000000E-01  3.64580000000E-01
  34   9   2    7 N     3.02110000000E-01 -5.95000000000E-03 -3.64580000000E-01
  35   9   3    7 N     3.33310000000E-01 -3.02110000000E-01 -3.08060000000E-01
  36   9   4    7 N     5.95000000000E-03 -3.58630000000E-01  3.08060000000E-01

  37  10   1    7 N     4.84830000000E-01 -3.74950000000E-01  4.40620000000E-01
  38  10   2    7 N     1.84430000000E-01  4.42100000000E-02 -4.40620000000E-01
  39  10   3    7 N     3.74950000000E-01 -1.84430000000E-01 -1.40220000000E-01
  40  10   4    7 N    -4.42100000000E-02 -4.84830000000E-01  1.40220000000E-01

  41  11   1    7 N     4.33050000000E-01 -4.42670000000E-01  1.75160000000E-01
  42  11   2    7 N     3.82170000000E-01  2.57890000000E-01 -1.75160000000E-01
  43  11   3    7 N     4.42670000000E-01 -3.82170000000E-01 -1.24280000000E-01
  44  11   4    7 N    -2.57890000000E-01 -4.33050000000E-01  1.24280000000E-01

  45  12   1    7 N    -4.71100000000E-01 -4.41690000000E-01  3.26830000000E-01
  46  12   2    7 N     2.31480000000E-01  2.02070000000E-01 -3.26830000000E-01
  47  12   3    7 N     4.41690000000E-01 -2.31480000000E-01 -2.94100000000E-02
  48  12   4    7 N    -2.02070000000E-01  4.71100000000E-01  2.94100000000E-02

  49  13   1    7 N     2.40600000000E-02 -2.18990000000E-01  1.43300000000E-02
  50  13   2    7 N    -2.33320000000E-01  9.73000000000E-03 -1.43300000000E-02
  51  13   3    7 N     2.18990000000E-01  2.33320000000E-01  2.43050000000E-01
  52  13   4    7 N    -9.73000000000E-03 -2.40600000000E-02 -2.43050000000E-01

  53  14   1    9 F     2.46710000000E-01 -1.04640000000E-01  2.92810000000E-01
  54  14   2    9 F    -3.97450000000E-01 -4.61000000000E-02 -2.92810000000E-01
  55  14   3    9 F     1.04640000000E-01  3.97450000000E-01  3.51350000000E-01
  56  14   4    9 F     4.61000000000E-02 -2.46710000000E-01 -3.51350000000E-01

  57  15   1    9 F    -2.00710000000E-01 -3.30350000000E-01 -2.62400000000E-01
  58  15   2    9 F    -6.79500000000E-02  6.16900000000E-02  2.62400000000E-01
  59  15   3    9 F     3.30350000000E-01  6.79500000000E-02  1.29640000000E-01
  60  15   4    9 F    -6.16900000000E-02  2.00710000000E-01 -1.29640000000E-01

  61  16   1   30 ZN    2.50000000000E-01 -2.50000000000E-01 -5.00000000000E-01

  62  17   1   30 ZN   -5.00000000000E-01 -5.00000000000E-01  0.00000000000E+00

 NUMBER OF SYMMETRY OPERATORS         :    4
 *******************************************************************************
 * GEOMETRY EDITING - INPUT COORDINATES ARE GIVEN IN ANGSTROM         
 *******************************************************************************

 GEOMETRY NOW FULLY CONSISTENT WITH THE GROUP
 PROCESS           17  OF           24  WORKING

 GCALCO - MAX INDICES DIRECT LATTICE VECTOR    14    14    16
 NO.OF VECTORS CREATED 6999 STARS  487 RMAX   199.91208 BOHR

 GEOMETRY FOR WAVE FUNCTION - DIMENSIONALITY OF THE SYSTEM    3
 (NON PERIODIC DIRECTION: LATTICE PARAMETER FORMALLY SET TO 500)
 *******************************************************************************
 LATTICE PARAMETERS (ANGSTROMS AND DEGREES) - BOHR = 0.5291772083 ANGSTROM
 PRIMITIVE CELL - CENTRING CODE 6/0 VOLUME=   700.256175 - DENSITY  2.030 g/cm^3
         A              B              C           ALPHA      BETA       GAMMA 
     9.75581857     9.75581857     9.75581857   114.445299 114.445299  99.924563
 *******************************************************************************
 ATOMS IN THE ASYMMETRIC UNIT   17 - ATOMS IN THE UNIT CELL:   62
     ATOM                 X/A                 Y/B                 Z/C    
 *******************************************************************************
      1 T   1 H     1.320400000000E-01  4.066100000000E-01 -1.670900000000E-01
      2 F   1 H    -4.263000000000E-01  2.991300000000E-01  1.670900000000E-01
      3 F   1 H    -4.066100000000E-01  4.263000000000E-01 -2.745700000000E-01
      4 F   1 H    -2.991300000000E-01 -1.320400000000E-01  2.745700000000E-01
      5 T   1 H    -1.087400000000E-01  4.320700000000E-01 -3.750100000000E-01
      6 F   1 H    -1.929200000000E-01  2.662700000000E-01  3.750100000000E-01
      7 F   1 H    -4.320700000000E-01  1.929200000000E-01  4.591900000000E-01
      8 F   1 H    -2.662700000000E-01  1.087400000000E-01 -4.591900000000E-01
      9 T   6 C     1.980700000000E-01 -3.641200000000E-01  6.831000000000E-02
     10 F   6 C    -4.324300000000E-01  1.297600000000E-01 -6.831000000000E-02
     11 F   6 C     3.641200000000E-01  4.324300000000E-01 -4.378100000000E-01
     12 F   6 C    -1.297600000000E-01 -1.980700000000E-01  4.378100000000E-01
     13 T   6 C     3.281500000000E-01 -3.768300000000E-01  2.002200000000E-01
     14 F   6 C     4.229500000000E-01  1.279300000000E-01 -2.002200000000E-01
     15 F   6 C     3.768300000000E-01 -4.229500000000E-01 -2.950200000000E-01
     16 F   6 C    -1.279300000000E-01 -3.281500000000E-01  2.950200000000E-01
     17 T   6 C     1.027200000000E-01 -4.874400000000E-01 -1.156400000000E-01
     18 F   6 C    -3.718000000000E-01  2.183600000000E-01  1.156400000000E-01
     19 F   6 C     4.874400000000E-01  3.718000000000E-01 -4.098400000000E-01
     20 F   6 C    -2.183600000000E-01 -1.027200000000E-01  4.098400000000E-01
     21 T   6 C    -6.664000000000E-02 -3.407500000000E-01 -1.568300000000E-01
     22 F   6 C    -1.839200000000E-01  9.019000000000E-02  1.568300000000E-01
     23 F   6 C     3.407500000000E-01  1.839200000000E-01  2.741100000000E-01
     24 F   6 C    -9.019000000000E-02  6.664000000000E-02 -2.741100000000E-01
     25 T   6 C     1.523400000000E-01 -2.318300000000E-01  1.196700000000E-01
     26 F   6 C    -3.515000000000E-01  3.267000000000E-02 -1.196700000000E-01
     27 F   6 C     2.318300000000E-01  3.515000000000E-01  3.841700000000E-01
     28 F   6 C    -3.267000000000E-02 -1.523400000000E-01 -3.841700000000E-01
     29 T   6 C    -2.444900000000E-01  1.999600000000E-01  2.316300000000E-01
     30 F   6 C    -3.167000000000E-02 -4.761200000000E-01 -2.316300000000E-01
     31 F   6 C    -1.999600000000E-01  3.167000000000E-02 -4.444500000000E-01
     32 F   6 C     4.761200000000E-01  2.444900000000E-01  4.444500000000E-01
     33 T   7 N     3.586300000000E-01 -3.333100000000E-01  3.645800000000E-01
     34 F   7 N     3.021100000000E-01 -5.950000000000E-03 -3.645800000000E-01
     35 F   7 N     3.333100000000E-01 -3.021100000000E-01 -3.080600000000E-01
     36 F   7 N     5.950000000000E-03 -3.586300000000E-01  3.080600000000E-01
     37 T   7 N     4.848300000000E-01 -3.749500000000E-01  4.406200000000E-01
     38 F   7 N     1.844300000000E-01  4.421000000000E-02 -4.406200000000E-01
     39 F   7 N     3.749500000000E-01 -1.844300000000E-01 -1.402200000000E-01
     40 F   7 N    -4.421000000000E-02 -4.848300000000E-01  1.402200000000E-01
     41 T   7 N     4.330500000000E-01 -4.426700000000E-01  1.751600000000E-01
     42 F   7 N     3.821700000000E-01  2.578900000000E-01 -1.751600000000E-01
     43 F   7 N     4.426700000000E-01 -3.821700000000E-01 -1.242800000000E-01
     44 F   7 N    -2.578900000000E-01 -4.330500000000E-01  1.242800000000E-01
     45 T   7 N    -4.711000000000E-01 -4.416900000000E-01  3.268300000000E-01
     46 F   7 N     2.314800000000E-01  2.020700000000E-01 -3.268300000000E-01
     47 F   7 N     4.416900000000E-01 -2.314800000000E-01 -2.941000000000E-02
     48 F   7 N    -2.020700000000E-01  4.711000000000E-01  2.941000000000E-02
     49 T   7 N     2.406000000000E-02 -2.189900000000E-01  1.433000000000E-02
     50 F   7 N    -2.333200000000E-01  9.730000000000E-03 -1.433000000000E-02
     51 F   7 N     2.189900000000E-01  2.333200000000E-01  2.430500000000E-01
     52 F   7 N    -9.730000000000E-03 -2.406000000000E-02 -2.430500000000E-01
     53 T   9 F     2.467100000000E-01 -1.046400000000E-01  2.928100000000E-01
     54 F   9 F    -3.974500000000E-01 -4.610000000000E-02 -2.928100000000E-01
     55 F   9 F     1.046400000000E-01  3.974500000000E-01  3.513500000000E-01
     56 F   9 F     4.610000000000E-02 -2.467100000000E-01 -3.513500000000E-01
     57 T   9 F    -2.007100000000E-01 -3.303500000000E-01 -2.624000000000E-01
     58 F   9 F    -6.795000000000E-02  6.169000000000E-02  2.624000000000E-01
     59 F   9 F     3.303500000000E-01  6.795000000000E-02  1.296400000000E-01
     60 F   9 F    -6.169000000000E-02  2.007100000000E-01 -1.296400000000E-01
     61 T  30 ZN    2.500000000000E-01 -2.500000000000E-01 -5.000000000000E-01
     62 T  30 ZN   -5.000000000000E-01 -5.000000000000E-01  0.000000000000E+00

 TRANSFORMATION MATRIX PRIMITIVE-CRYSTALLOGRAPHIC CELL
  0.0000  1.0000  1.0000  1.0000  0.0000  1.0000  1.0000  1.0000  0.0000

 *******************************************************************************
 CRYSTALLOGRAPHIC CELL (VOLUME=       1400.51234910)
         A              B              C           ALPHA      BETA       GAMMA 
    10.56312986    10.56312986    12.55167556    90.000000  90.000000  90.000000

 COORDINATES IN THE CRYSTALLOGRAPHIC CELL
     ATOM                 X/A                 Y/B                 Z/C    
 *******************************************************************************
      1 T   1 H     5.374000000000E-02 -2.208300000000E-01  3.528700000000E-01
      2 F   1 H    -5.374000000000E-02  2.208300000000E-01  3.528700000000E-01
      3 F   1 H    -2.208300000000E-01 -5.374000000000E-02 -3.528700000000E-01
      4 F   1 H     2.208300000000E-01  5.374000000000E-02 -3.528700000000E-01
      5 T   1 H    -4.171000000000E-01  4.209000000000E-02 -1.508300000000E-01
      6 F   1 H     4.171000000000E-01 -4.209000000000E-02 -1.508300000000E-01
      7 F   1 H     4.209000000000E-02  4.171000000000E-01  1.508300000000E-01
      8 F   1 H    -4.209000000000E-02 -4.171000000000E-01  1.508300000000E-01
      9 T   6 C    -2.469400000000E-01  3.152500000000E-01 -1.171800000000E-01
     10 F   6 C     2.469400000000E-01 -3.152500000000E-01 -1.171800000000E-01
     11 F   6 C     3.152500000000E-01  2.469400000000E-01  1.171800000000E-01
     12 F   6 C    -3.152500000000E-01 -2.469400000000E-01  1.171800000000E-01
     13 T   6 C     2.476200000000E-01 -4.740000000000E-02  3.755500000000E-01
     14 F   6 C    -2.476200000000E-01  4.740000000000E-02  3.755500000000E-01
     15 F   6 C    -4.740000000000E-02 -2.476200000000E-01 -3.755500000000E-01
     16 F   6 C     4.740000000000E-02  2.476200000000E-01 -3.755500000000E-01
     17 T   6 C    -3.529000000000E-01  2.372600000000E-01 -1.345400000000E-01
     18 F   6 C     3.529000000000E-01 -2.372600000000E-01 -1.345400000000E-01
     19 F   6 C     2.372600000000E-01  3.529000000000E-01  1.345400000000E-01
     20 F   6 C    -2.372600000000E-01 -3.529000000000E-01  1.345400000000E-01
     21 T   6 C    -2.154700000000E-01  5.864000000000E-02 -1.252800000000E-01
     22 F   6 C     2.154700000000E-01 -5.864000000000E-02 -1.252800000000E-01
     23 F   6 C     5.864000000000E-02  2.154700000000E-01  1.252800000000E-01
     24 F   6 C    -5.864000000000E-02 -2.154700000000E-01  1.252800000000E-01
     25 T   6 C    -1.322500000000E-01  2.519200000000E-01 -9.958000000000E-02
     26 F   6 C     1.322500000000E-01 -2.519200000000E-01 -9.958000000000E-02
     27 F   6 C     2.519200000000E-01  1.322500000000E-01  9.958000000000E-02
     28 F   6 C    -2.519200000000E-01 -1.322500000000E-01  9.958000000000E-02
     29 T   6 C     3.380400000000E-01 -1.064100000000E-01 -1.380800000000E-01
     30 F   6 C    -3.380400000000E-01  1.064100000000E-01 -1.380800000000E-01
     31 F   6 C    -1.064100000000E-01 -3.380400000000E-01  1.380800000000E-01
     32 F   6 C     1.064100000000E-01  3.380400000000E-01  1.380800000000E-01
     33 T   7 N     3.363200000000E-01  2.826000000000E-02  3.303700000000E-01
     34 F   7 N    -3.363200000000E-01 -2.826000000000E-02  3.303700000000E-01
     35 F   7 N     2.826000000000E-02 -3.363200000000E-01 -3.303700000000E-01
     36 F   7 N    -2.826000000000E-02  3.363200000000E-01 -3.303700000000E-01
     37 T   7 N    -2.095800000000E-01 -3.498000000000E-01 -1.653700000000E-01
     38 F   7 N     2.095800000000E-01  3.498000000000E-01 -1.653700000000E-01
     39 F   7 N    -3.498000000000E-01  2.095800000000E-01  1.653700000000E-01
     40 F   7 N     3.498000000000E-01 -2.095800000000E-01  1.653700000000E-01
     41 T   7 N     1.497200000000E-01  2.544000000000E-02  4.076100000000E-01
     42 F   7 N    -1.497200000000E-01 -2.544000000000E-02  4.076100000000E-01
     43 F   7 N     2.544000000000E-02 -1.497200000000E-01 -4.076100000000E-01
     44 F   7 N    -2.544000000000E-02  1.497200000000E-01 -4.076100000000E-01
     45 T   7 N    -3.218800000000E-01 -3.512900000000E-01 -1.198100000000E-01
     46 F   7 N     3.218800000000E-01  3.512900000000E-01 -1.198100000000E-01
     47 F   7 N    -3.512900000000E-01  3.218800000000E-01  1.198100000000E-01
     48 F   7 N     3.512900000000E-01 -3.218800000000E-01  1.198100000000E-01
     49 T   7 N    -1.143600000000E-01  1.286900000000E-01 -1.046300000000E-01
     50 F   7 N     1.143600000000E-01 -1.286900000000E-01 -1.046300000000E-01
     51 F   7 N     1.286900000000E-01  1.143600000000E-01  1.046300000000E-01
     52 F   7 N    -1.286900000000E-01 -1.143600000000E-01  1.046300000000E-01
     53 T   9 F    -2.927000000000E-02  3.220800000000E-01 -7.537000000000E-02
     54 F   9 F     2.927000000000E-02 -3.220800000000E-01 -7.537000000000E-02
     55 F   9 F     3.220800000000E-01  2.927000000000E-02  7.537000000000E-02
     56 F   9 F    -3.220800000000E-01 -2.927000000000E-02  7.537000000000E-02
     57 T   9 F    -1.960200000000E-01 -6.638000000000E-02 -1.343300000000E-01
     58 F   9 F     1.960200000000E-01  6.638000000000E-02 -1.343300000000E-01
     59 F   9 F    -6.638000000000E-02  1.960200000000E-01  1.343300000000E-01
     60 F   9 F     6.638000000000E-02 -1.960200000000E-01  1.343300000000E-01
     61 T  30 ZN   -5.000000000000E-01 -4.449474568647E-17  2.500000000000E-01
     62 T  30 ZN    0.000000000000E+00  0.000000000000E+00 -5.000000000000E-01

 T = ATOM BELONGING TO THE ASYMMETRIC UNIT

 ****    4 SYMMOPS - TRANSLATORS IN FRACTIONAL UNITS
 **** MATRICES AND TRANSLATORS IN THE CRYSTALLOGRAPHIC REFERENCE FRAME
   V INV                    ROTATION MATRICES                   TRANSLATORS
   1   1  1.00  0.00  0.00  0.00  1.00  0.00  0.00  0.00  1.00  0.00  0.00  0.00
   2   2  0.00  1.00 -1.00  1.00 -0.00 -1.00  0.00  0.00 -1.00  0.00  0.00  0.00
   3   4  0.00 -1.00  0.00  0.00 -1.00  1.00  1.00 -1.00  0.00  0.00  0.00  0.00
   4   3 -1.00  0.00  1.00 -1.00  0.00 -0.00 -1.00  1.00  0.00  0.00  0.00  0.00

 DIRECT LATTICE VECTORS CARTESIAN COMPONENTS (ANGSTROM)
          X                    Y                    Z
  -0.528156492815E+01   0.528156492815E+01   0.627583778210E+01
   0.528156492815E+01  -0.528156492815E+01   0.627583778210E+01
   0.528156492815E+01   0.528156492815E+01  -0.627583778210E+01


 CARTESIAN COORDINATES - PRIMITIVE CELL
 *******************************************************************************
 *      ATOM          X(ANGSTROM)         Y(ANGSTROM)         Z(ANGSTROM)
 *******************************************************************************
    1     1 H     5.676625984776E-01 -2.332655966167E+00  4.429109756339E+00
    2     1 H    -5.676625984776E-01  2.332655966167E+00  4.429109756339E+00
    3     1 H    -2.332655966167E+00 -5.676625984776E-01 -4.429109756339E+00
    4     1 H     2.332655966167E+00  5.676625984776E-01 -4.429109756339E+00
    5     1 H    -4.405881463063E+00  4.446021356517E-01 -1.893169225348E+00
    6     1 H     4.405881463063E+00 -4.446021356517E-01 -1.893169225348E+00
    7     1 H     4.446021356517E-01  4.405881463063E+00  1.893169225348E+00
    8     1 H    -4.446021356517E-01 -4.405881463063E+00  1.893169225348E+00
    9     6 C    -2.608459286715E+00  3.330026687199E+00 -1.470805342613E+00
   10     6 C     2.608459286715E+00 -3.330026687199E+00 -1.470805342613E+00
   11     6 C     3.330026687199E+00  2.608459286715E+00  1.470805342613E+00
   12     6 C    -3.330026687199E+00 -2.608459286715E+00  1.470805342613E+00
   13     6 C     2.615642215017E+00 -5.006923551886E-01  4.713781758135E+00
   14     6 C    -2.615642215017E+00  5.006923551886E-01  4.713781758135E+00
   15     6 C    -5.006923551886E-01 -2.615642215017E+00 -4.713781758135E+00
   16     6 C     5.006923551886E-01  2.615642215017E+00 -4.713781758135E+00
   17     6 C    -3.727728526288E+00  2.506208189706E+00 -1.688702430407E+00
   18     6 C     3.727728526288E+00 -2.506208189706E+00 -1.688702430407E+00
   19     6 C     2.506208189706E+00  3.727728526288E+00  1.688702430407E+00
   20     6 C    -2.506208189706E+00 -3.727728526288E+00  1.688702430407E+00
   21     6 C    -2.276037590137E+00  6.194219347734E-01 -1.572473914683E+00
   22     6 C     2.276037590137E+00 -6.194219347734E-01 -1.572473914683E+00
   23     6 C     6.194219347734E-01  2.276037590137E+00  1.572473914683E+00
   24     6 C    -6.194219347734E-01 -2.276037590137E+00  1.572473914683E+00
   25     6 C    -1.396973923496E+00  2.661063673399E+00 -1.249895852683E+00
   26     6 C     1.396973923496E+00 -2.661063673399E+00 -1.249895852683E+00
   27     6 C     2.661063673399E+00  1.396973923496E+00  1.249895852683E+00
   28     6 C    -2.661063673399E+00 -1.396973923496E+00  1.249895852683E+00
   29     6 C     3.570760416624E+00 -1.124022648009E+00 -1.733135361905E+00
   30     6 C    -3.570760416624E+00  1.124022648009E+00 -1.733135361905E+00
   31     6 C    -1.124022648009E+00 -3.570760416624E+00  1.733135361905E+00
   32     6 C     1.124022648009E+00  3.570760416624E+00  1.733135361905E+00
   33     7 N     3.552591833271E+00  2.985140497390E-01  4.146697056145E+00
   34     7 N    -3.552591833271E+00 -2.985140497390E-01  4.146697056145E+00
   35     7 N     2.985140497390E-01 -3.552591833271E+00 -4.146697056145E+00
   36     7 N    -2.985140497390E-01  3.552591833271E+00 -4.146697056145E+00
   37     7 N    -2.213820755283E+00 -3.694982823734E+00 -2.075670588052E+00
   38     7 N     2.213820755283E+00  3.694982823734E+00 -2.075670588052E+00
   39     7 N    -3.694982823734E+00  2.213820755283E+00  2.075670588052E+00
   40     7 N     3.694982823734E+00 -2.213820755283E+00  2.075670588052E+00
   41     7 N     1.581511802085E+00  2.687260235443E-01  5.116188476724E+00
   42     7 N    -1.581511802085E+00 -2.687260235443E-01  5.116188476724E+00
   43     7 N     2.687260235443E-01 -1.581511802085E+00 -5.116188476724E+00
   44     7 N    -2.687260235443E-01  1.581511802085E+00 -5.116188476724E+00
   45     7 N    -3.400060238146E+00 -3.710721887220E+00 -1.503816249347E+00
   46     7 N     3.400060238146E+00  3.710721887220E+00 -1.503816249347E+00
   47     7 N    -3.710721887220E+00  3.400060238146E+00  1.503816249347E+00
   48     7 N     3.710721887220E+00 -3.400060238146E+00  1.503816249347E+00
   49     7 N    -1.207999530366E+00  1.359369181207E+00 -1.313281814282E+00
   50     7 N     1.207999530366E+00 -1.359369181207E+00 -1.313281814282E+00
   51     7 N     1.359369181207E+00  1.207999530366E+00  1.313281814282E+00
   52     7 N    -1.359369181207E+00 -1.207999530366E+00  1.313281814282E+00
   53     9 F    -3.091828108939E-01  3.402172864117E+00 -9.460197872738E-01
   54     9 F     3.091828108939E-01 -3.402172864117E+00 -9.460197872738E-01
   55     9 F     3.402172864117E+00  3.091828108939E-01  9.460197872738E-01
   56     9 F    -3.402172864117E+00 -3.091828108939E-01  9.460197872738E-01
   57     9 F    -2.070584714432E+00 -7.011805598612E-01 -1.686066578539E+00
   58     9 F     2.070584714432E+00  7.011805598612E-01 -1.686066578539E+00
   59     9 F    -7.011805598612E-01  2.070584714432E+00  1.686066578539E+00
   60     9 F     7.011805598612E-01 -2.070584714432E+00  1.686066578539E+00
   61    30 ZN    5.281564928150E+00 -4.700037766092E-16 -9.413756673150E+00
   62    30 ZN    0.000000000000E+00  0.000000000000E+00  6.275837782100E+00

 *******************************************************************************
 STARTING BASIS SET HANDLING 
 *******************************************************************************

 Loading internal basis set: POB-DZVPP           

 Please cite in your publication:
 Peintinger, M. F., Oliveira, D. V. and Bredow, T. (2013), Generally applicable 
 solid-state Gaussian basis sets, in preparation                                
                                                                                
                    

 *******************************************************************************
 LOCAL ATOMIC FUNCTIONS BASIS SET
 *******************************************************************************
   ATOM   X(AU)   Y(AU)   Z(AU)  N. TYPE  EXPONENT  S COEF   P COEF   D/F/G COEF
 *******************************************************************************
   1 H    1.073  -4.408   8.370
                                  1 S  
                                         2.263E+01 1.441E-02 0.000E+00 0.000E+00
                                         3.236E+00 1.072E-01 0.000E+00 0.000E+00
                                         7.304E-01 3.846E-01 0.000E+00 0.000E+00
                                  2 S  
                                         1.417E-01 1.000E+00 0.000E+00 0.000E+00
                           3-     5 P  
                                         3.944E-01 0.000E+00 1.000E+00 0.000E+00
                           6-     8 P  
                                         1.006E-01 0.000E+00 1.000E+00 0.000E+00
   2 H   -1.073   4.408   8.370
   3 H   -4.408  -1.073  -8.370
   4 H    4.408   1.073  -8.370
   5 H   -8.326   0.840  -3.578
   6 H    8.326  -0.840  -3.578
   7 H    0.840   8.326   3.578
   8 H   -0.840  -8.326   3.578
   9 C   -4.929   6.293  -2.779
                                 65 S  
                                         1.238E+03 5.457E-03 0.000E+00 0.000E+00
                                         1.863E+02 4.064E-02 0.000E+00 0.000E+00
                                         4.225E+01 1.803E-01 0.000E+00 0.000E+00
                                         1.168E+01 4.632E-01 0.000E+00 0.000E+00
                                         3.593E+00 4.409E-01 0.000E+00 0.000E+00
                                 66 S  
                                         5.281E+00 1.000E+00 0.000E+00 0.000E+00
                                 67 S  
                                         4.447E-01 1.000E+00 0.000E+00 0.000E+00
                          68-    70 P  
                                         9.468E+00 0.000E+00 3.839E-02 0.000E+00
                                         2.010E+00 0.000E+00 2.112E-01 0.000E+00
                                         5.477E-01 0.000E+00 5.133E-01 0.000E+00
                          71-    73 P  
                                         1.604E-01 0.000E+00 1.000E+00 0.000E+00
                          74-    78 D  
                                         6.070E-01 0.000E+00 0.000E+00 1.000E+00
                          79-    83 D  
                                         2.939E-01 0.000E+00 0.000E+00 1.000E+00
  10 C    4.929  -6.293  -2.779
  11 C    6.293   4.929   2.779
  12 C   -6.293  -4.929   2.779
  13 C    4.943  -0.946   8.908
  14 C   -4.943   0.946   8.908
  15 C   -0.946  -4.943  -8.908
  16 C    0.946   4.943  -8.908
  17 C   -7.044   4.736  -3.191
  18 C    7.044  -4.736  -3.191
  19 C    4.736   7.044   3.191
  20 C   -4.736  -7.044   3.191
  21 C   -4.301   1.171  -2.972
  22 C    4.301  -1.171  -2.972
  23 C    1.171   4.301   2.972
  24 C   -1.171  -4.301   2.972
  25 C   -2.640   5.029  -2.362
  26 C    2.640  -5.029  -2.362
  27 C    5.029   2.640   2.362
  28 C   -5.029  -2.640   2.362
  29 C    6.748  -2.124  -3.275
  30 C   -6.748   2.124  -3.275
  31 C   -2.124  -6.748   3.275
  32 C    2.124   6.748   3.275
  33 N    6.713   0.564   7.836
                                521 S  
                                         1.713E+03-5.393E-03 0.000E+00 0.000E+00
                                         2.576E+02-4.022E-02 0.000E+00 0.000E+00
                                         5.846E+01-1.793E-01 0.000E+00 0.000E+00
                                         1.620E+01-4.638E-01 0.000E+00 0.000E+00
                                         5.005E+00-4.417E-01 0.000E+00 0.000E+00
                                522 S  
                                         6.217E-01 1.000E+00 0.000E+00 0.000E+00
                                523 S  
                                         2.921E-01 1.000E+00 0.000E+00 0.000E+00
                         524-   526 P  
                                         1.357E+01 0.000E+00-4.007E-02 0.000E+00
                                         2.926E+00 0.000E+00-2.181E-01 0.000E+00
                                         7.993E-01 0.000E+00-5.129E-01 0.000E+00
                         527-   529 P  
                                         2.244E-01 0.000E+00 1.000E+00 0.000E+00
                         530-   534 D  
                                         3.118E-01 0.000E+00 0.000E+00 1.000E+00
  34 N   -6.713  -0.564   7.836
  35 N    0.564  -6.713  -7.836
  36 N   -0.564   6.713  -7.836
  37 N   -4.184  -6.983  -3.922
  38 N    4.184   6.983  -3.922
  39 N   -6.983   4.184   3.922
  40 N    6.983  -4.184   3.922
  41 N    2.989   0.508   9.668
  42 N   -2.989  -0.508   9.668
  43 N    0.508  -2.989  -9.668
  44 N   -0.508   2.989  -9.668
  45 N   -6.425  -7.012  -2.842
  46 N    6.425   7.012  -2.842
  47 N   -7.012   6.425   2.842
  48 N    7.012  -6.425   2.842
  49 N   -2.283   2.569  -2.482
  50 N    2.283  -2.569  -2.482
  51 N    2.569   2.283   2.482
  52 N   -2.569  -2.283   2.482
  53 F   -0.584   6.429  -1.788
                                801 S  
                                         2.895E+03-5.341E-03 0.000E+00 0.000E+00
                                         4.354E+02-3.990E-02 0.000E+00 0.000E+00
                                         9.884E+01-1.791E-01 0.000E+00 0.000E+00
                                         2.749E+01-4.676E-01 0.000E+00 0.000E+00
                                         8.541E+00-4.465E-01 0.000E+00 0.000E+00
                                802 S  
                                         1.123E+00 1.000E+00 0.000E+00 0.000E+00
                                803 S  
                                         3.743E-01 1.000E+00 0.000E+00 0.000E+00
                         804-   806 P  
                                         2.270E+01 0.000E+00-4.521E-02 0.000E+00
                                         4.987E+00 0.000E+00-2.375E-01 0.000E+00
                                         1.349E+00 0.000E+00-5.129E-01 0.000E+00
                         807-   809 P  
                                         3.474E-01 0.000E+00 1.000E+00 0.000E+00
                         810-   814 D  
                                         9.203E-01 0.000E+00 0.000E+00 1.000E+00
                         815-   819 D  
                                         3.977E-01 0.000E+00 0.000E+00 1.000E+00
  54 F    0.584  -6.429  -1.788
  55 F    6.429   0.584   1.788
  56 F   -6.429  -0.584   1.788
  57 F   -3.913  -1.325  -3.186
  58 F    3.913   1.325  -3.186
  59 F   -1.325   3.913   3.186
  60 F    1.325  -3.913   3.186
  61 ZN   9.981  -0.000 -17.789
                                953 S  
                                         8.200E+04 1.421E-03 0.000E+00 0.000E+00
                                         1.231E+04 1.089E-02 0.000E+00 0.000E+00
                                         2.801E+03 5.406E-02 0.000E+00 0.000E+00
                                         7.910E+02 1.885E-01 0.000E+00 0.000E+00
                                         2.576E+02 3.835E-01 0.000E+00 0.000E+00
                                         8.881E+01 2.972E-01 0.000E+00 0.000E+00
                                954 S  
                                         1.719E+02-1.105E-01 0.000E+00 0.000E+00
                                         2.030E+01 6.461E-01 0.000E+00 0.000E+00
                                         8.346E+00 4.422E-01 0.000E+00 0.000E+00
                                955 S  
                                         1.485E+01-2.271E-01 0.000E+00 0.000E+00
                                         2.450E+00 7.243E-01 0.000E+00 0.000E+00
                                         9.985E-01 4.484E-01 0.000E+00 0.000E+00
                                956 S  
                                         1.493E+00 1.000E+00 0.000E+00 0.000E+00
                                957 S  
                                         1.830E-01 1.000E+00 0.000E+00 0.000E+00
                         958-   960 P  
                                         1.072E+03 0.000E+00 9.277E-03 0.000E+00
                                         2.527E+02 0.000E+00 6.954E-02 0.000E+00
                                         8.010E+01 0.000E+00 2.716E-01 0.000E+00
                                         2.890E+01 0.000E+00 5.340E-01 0.000E+00
                                         1.077E+01 0.000E+00 3.450E-01 0.000E+00
                         961-   963 P  
                                         5.645E+00 0.000E+00 3.413E-01 0.000E+00
                                         2.168E+00 0.000E+00 5.639E-01 0.000E+00
                                         8.054E-01 0.000E+00 2.368E-01 0.000E+00
                         964-   966 P  
                                         2.721E-01 0.000E+00 1.000E+00 0.000E+00
                         967-   971 D  
                                         5.609E+01 0.000E+00 0.000E+00 2.959E-02
                                         1.575E+01 0.000E+00 0.000E+00 1.587E-01
                                         5.312E+00 0.000E+00 0.000E+00 3.798E-01
                                         1.774E+00 0.000E+00 0.000E+00 4.690E-01
                         972-   976 D  
                                         5.073E-01 0.000E+00 0.000E+00 1.000E+00
                         977-   983 F  
                                         2.814E+00 0.000E+00 0.000E+00 1.000E+00
                         984-   990 F  
                                         1.300E+00 0.000E+00 0.000E+00 1.000E+00
  62 ZN   0.000   0.000  11.860

 *******************************************************************************
 FINISHED BASIS SET HANDLING 
 *******************************************************************************

 INFORMATION **** SET_MPP **** PCRYSTAL CALCULATION
 INFORMATION **** READM2 **** NEW DEFAULT: FOCK/KS MATRIX MIXING SET TO 30 %
 INFORMATION **** READM2 **** NEW DEFAULT: FULL DIRECT SCF MODE
 INFORMATION **** READM2 **** NEW DEFAULT: COULOMB BIPOLAR BUFFER SET TO 32 Mb
 INFORMATION **** READM2 **** NEW DEFAULT: EXCHANGE BIPOLAR BUFFER SET TO 32 Mb

 *******************************************************************************
 NEW DEFAULT: DFT INTEGRATION GRID INCREASED TO XLGRID
 NEW DEFAULT: DIIS ACCELERATOR ACTIVE
 USE KEYWORD NODIIS TO TURN IT OFF
 *******************************************************************************

 INFORMATION **** DFTD3_INPUT **** PERFORM DISPERSION CORRECTION DFT-D3(BJ) IN THE BECKE-JOHNSON DAMPING SCHEME

 PLEASE CITE:
 (1) DFT-D3 Reference
  S. Grimme, J. Antony, S. Ehrlich, and H. Krieg, J. Chem. Phys. 132 (2010), 154104
 (2) BJ-Damping Reference
  S. Grimme, S. Ehrlich, and L. Goerigk, J. Comput. Chem. 32 (2011), 1456-1465
 (3) General DFT-D Review
  S. Grimme, A. Hansen, J. G. Brandenburg, and C. Bannwarth,
  Chem. Rev. 116 (2016), 5105-5154

 INFORMATION **** TOLINTEG **** COULOMB AND EXCHANGE SERIES TOLERANCES MODIFIED
 INFORMATION **** BIPOSIZE **** COULOMB BIPOLAR BUFFER SET TO   100000000
 INFORMATION **** MAXCYCLE **** MAX NUMBER OF SCF CYCLES SET TO          50
 *******************************************************************************
 N. OF ATOMS PER CELL        62  COULOMB OVERLAP TOL         (T1) 10**  -12
 NUMBER OF SHELLS           400  COULOMB PENETRATION TOL     (T2) 10**  -12
 NUMBER OF AO              1028  EXCHANGE OVERLAP TOL        (T3) 10**   20
 N. OF ELECTRONS PER CELL   424  EXCHANGE PSEUDO OVP (F(G))  (T4) 10**   20
 CORE ELECTRONS PER CELL    140  EXCHANGE PSEUDO OVP (P(G))  (T5) 10**   20
 N. OF SYMMETRY OPERATORS     4  POLE ORDER IN MONO ZONE                  4
 *******************************************************************************
 TYPE OF CALCULATION :  RESTRICTED CLOSED SHELL
 KOHN-SHAM HAMILTONIAN

 (EXCHANGE)[CORRELATION] FUNCTIONAL:(PERDEW-BURKE-ERNZERHOF)[PERDEW-BURKE-ERNZERHOF]


 CAPPA:IS1  3;IS2  3;IS3  3; K PTS MONK NET   6; SYMMOPS:K SPACE   8;G SPACE   4

 *******************************************************************************
 MAX NUMBER OF SCF CYCLES      50  CONVERGENCE ON DELTAP        10**-16
 WEIGHT OF F(I) IN F(I+1)      30% CONVERGENCE ON ENERGY        10**- 6
 SHRINK. FACT.(MONKH.)    3  3  3  NUMBER OF K POINTS IN THE IBZ      6
 SHRINKING FACTOR(GILAT NET)    3  NUMBER OF K POINTS(GILAT NET)      6
 *******************************************************************************
 *** K POINTS COORDINATES (OBLIQUE COORDINATES IN UNITS OF IS =  3)
   1-R(  0  0  0)   2-C(  1  0  0)   3-C(  1  1  0)   4-C(  2  1  0)
   5-C(  2  1  1)   6-C(  2  2  1)

 DIRECT LATTICE VECTORS COMPON. (A.U.)     RECIP. LATTICE VECTORS COMPON. (A.U.) 
        X            Y            Z              X            Y            Z
   -9.9807113    9.9807113   11.8596147      0.0000000    0.3147664    0.2648984
    9.9807113   -9.9807113   11.8596147      0.3147664    0.0000000    0.2648984
    9.9807113    9.9807113  -11.8596147      0.3147664    0.3147664    0.0000000

 DISK SPACE FOR EIGENVECTORS (FTN 10)    11624624 REALS

 SYMMETRY ADAPTION OF THE BLOCH FUNCTIONS ENABLED
 TTTTTTTTTTTTTTTTTTTTTTTTTTTTTT gordsh1     TELAPSE       13.79 TCPU        0.07

 MATRIX SIZE: P(G) 1804596, F(G)  903276, P(G) IRR  228424, F(G) IRR  228424
 MAX G-VECTOR INDEX FOR 1- AND 2-ELECTRON INTEGRALS  63

 TTTTTTTTTTTTTTTTTTTTTTTTTTTTTT INPUT       TELAPSE       14.07 TCPU        0.35

 NEIGHBORS OF THE NON-EQUIVALENT ATOMS

 N = NUMBER OF NEIGHBORS AT DISTANCE R
    ATOM  N     R/ANG      R/AU   NEIGHBORS (ATOM LABELS AND CELL INDICES)
   1 H    1     1.0925     2.0645   17 C    0 1 0
   1 H    1     2.1564     4.0749   30 C    0 1 0
   1 H    1     2.1724     4.1053    9 C    0 1 0
   1 H    1     2.5236     4.7689    5 H    0 1 0
   1 H    1     2.5877     4.8901   46 N    0 0-1
   1 H    1     2.7588     5.2133   60 F    0 0 0

   5 H    1     1.0884     2.0568   30 C    0 0 0
   5 H    1     1.9642     3.7117    6 H    0-1-1
   5 H    1     2.1609     4.0836   21 C    0 0 0
   5 H    1     2.1799     4.1194   17 C    0 0 0
   5 H    1     2.5236     4.7689    1 H    0-1 0
   5 H    1     2.6095     4.9312   57 F    0 0 0

   9 C    1     1.4014     2.6483   25 C    0 0 0
   9 C    1     1.4067     2.6584   17 C    0 0 0
   9 C    1     1.4548     2.7493   13 C    0-1 0
   9 C    1     2.1724     4.1053    1 H    0-1 0
   9 C    1     2.3595     4.4588   53 F    0 0 0
   9 C    1     2.4210     4.5750   30 C    0 0 0

  13 C    1     1.3503     2.5517   41 N    0 0 0
  13 C    1     1.3558     2.5621   33 N    0 0 0
  13 C    1     1.4548     2.7493    9 C    0 1 0
  13 C    1     2.1966     4.1509   37 N    1 1 1
  13 C    1     2.1985     4.1547   45 N    1 1 1
  13 C    1     2.4902     4.7059   25 C    0 1 0

  17 C    1     1.0925     2.0645    1 H    0-1 0
  17 C    1     1.3918     2.6301   30 C    0 0 0
  17 C    1     1.4067     2.6584    9 C    0 0 0
  17 C    1     2.1799     4.1194    5 H    0 0 0
  17 C    1     2.3768     4.4914   25 C    0 0 0
  17 C    1     2.3835     4.5041   21 C    0 0 0

  21 C    1     1.3249     2.5037   49 N    0 0 0
  21 C    1     1.3413     2.5347   57 F    0 0 0
  21 C    1     1.3988     2.6434   30 C    0 0 0
  21 C    1     2.1609     4.0836    5 H    0 0 0
  21 C    1     2.2461     4.2446   25 C    0 0 0
  21 C    1     2.3835     4.5041   17 C    0 0 0

  25 C    1     1.3169     2.4885   49 N    0 0 0
  25 C    1     1.3509     2.5528   53 F    0 0 0
  25 C    1     1.4014     2.6483    9 C    0 0 0
  25 C    1     2.2461     4.2446   21 C    0 0 0
  25 C    1     2.3768     4.4914   17 C    0 0 0
  25 C    1     2.4902     4.7059   13 C    0-1 0

  29 C    1     1.0884     2.0568    6 H    0 0 0
  29 C    1     1.3918     2.6301   18 C    0 0 0
  29 C    1     1.3988     2.6434   22 C    0 0 0
  29 C    1     2.1564     4.0749    2 H   -1 0 0
  29 C    1     2.3631     4.4656   58 F    0 0 0
  29 C    1     2.4113     4.5567   50 N    0 0 0

  33 N    1     1.3558     2.5621   13 C    0 0 0
  33 N    1     1.3773     2.6028   37 N    1 1 1
  33 N    1     2.0239     3.8246   61 ZN   1 1 0
  33 N    1     2.1914     4.1412   45 N    1 1 1
  33 N    1     2.1968     4.1514   41 N    0 0 0
  33 N    1     2.5039     4.7317    9 C    0 1 0

  37 N    1     1.3170     2.4887   45 N    0 0 0
  37 N    1     1.3773     2.6028   33 N   -1-1-1
  37 N    1     2.1874     4.1336   41 N   -1-1-1
  37 N    1     2.1966     4.1509   13 C   -1-1-1
  37 N    1     2.7798     5.2531   54 F    0 0 0
  37 N    1     2.9235     5.5245   61 ZN   0 0-1

  41 N    1     1.3503     2.5517   13 C    0 0 0
  41 N    1     1.3798     2.6075   45 N    1 1 1
  41 N    1     1.9794     3.7406   62 ZN   0 0 0
  41 N    1     2.1874     4.1336   37 N    1 1 1
  41 N    1     2.1968     4.1514   33 N    0 0 0
  41 N    1     2.4936     4.7122    9 C    0 1 0

  45 N    1     1.3170     2.4887   37 N    0 0 0
  45 N    1     1.3798     2.6075   41 N   -1-1-1
  45 N    1     2.1914     4.1412   33 N   -1-1-1
  45 N    1     2.1985     4.1547   13 C   -1-1-1
  45 N    1     2.5877     4.8901    2 H   -1-1-1
  45 N    1     2.8756     5.4341   62 ZN  -1-1-1

  49 N    1     1.3169     2.4885   25 C    0 0 0
  49 N    1     1.3249     2.5037   21 C    0 0 0
  49 N    1     2.2618     4.2742   53 F    0 0 0
  49 N    1     2.2647     4.2797   57 F    0 0 0
  49 N    1     2.4113     4.5567   30 C    0 0 0
  49 N    1     2.4227     4.5783    9 C    0 0 0

  53 F    1     1.3509     2.5528   25 C    0 0 0
  53 F    1     2.2618     4.2742   49 N    0 0 0
  53 F    1     2.3595     4.4588    9 C    0 0 0
  53 F    1     2.7798     5.2531   38 N    0 0 0
  53 F    1     2.7990     5.2894   13 C    0-1 0
  53 F    1     2.8378     5.3626   34 N    0 0 1

  57 F    1     1.3413     2.5347   21 C    0 0 0
  57 F    1     2.2647     4.2797   49 N    0 0 0
  57 F    1     2.3631     4.4656   30 C    0 0 0
  57 F    1     2.6095     4.9312    5 H    0 0 0
  57 F    1     2.7588     5.2133    3 H    0 0 0
  57 F    1     2.9757     5.6232   56 F    0 0 0

  61 ZN   4     2.0239     3.8246   33 N   -1-1 0   34 N   -1 0 1   35 N    0 0 1
                                    36 N   -1 0 0
  61 ZN   4     2.9038     5.4874   53 F   -1 0 0   54 F    0 0 1   55 F   -1-1 0
                                    56 F   -1 0 1
  61 ZN   4     2.9235     5.5245   37 N    0 0 1   38 N   -1 0 0   39 N   -1 0 1
                                    40 N   -1-1 0
  61 ZN   4     3.1371     5.9282   13 C   -1-1 0   14 C   -1 0 1   15 C    0 0 1
                                    16 C   -1 0 0
  61 ZN   4     3.5190     6.6499   25 C   -1 0 0   26 C    0 0 1   27 C   -1-1 0
                                    28 C   -1 0 1
  61 ZN   4     3.6595     6.9154    9 C   -1 0 0   10 C    0 0 1   11 C   -1-1 0
                                    12 C   -1 0 1

  62 ZN   4     1.9794     3.7406   41 N    0 0 0   42 N    0 0 0   43 N    1 1 0
                                    44 N    1 1 0
  62 ZN   4     2.8756     5.4341   45 N    1 1 1   46 N    0 0-1   47 N    0 1 0
                                    48 N    1 0 0
  62 ZN   4     3.0288     5.7237    1 H    0 0 0    2 H    0 0 0    3 H    1 1 0
                                     4 H    1 1 0
  62 ZN   4     3.0874     5.8344   13 C    0 0 0   14 C    0 0 0   15 C    1 1 0
                                    16 C    1 1 0
  62 ZN   4     3.6012     6.8053   17 C    0 1 0   18 C    1 0 0   19 C    0 0-1
                                    20 C    1 1 1
  62 ZN   4     3.6218     6.8442    9 C    0 1 0   10 C    1 0 0   11 C    0 0-1
                                    12 C    1 1 1


 SYMMETRY ALLOWED INTERNAL DEGREE(S) OF FREEDOM:  45
 TTTTTTTTTTTTTTTTTTTTTTTTTTTTTT SYMM        TELAPSE       17.08 TCPU        3.32
 TTTTTTTTTTTTTTTTTTTTTTTTTTTTTT INT_SCREEN  TELAPSE       17.12 TCPU        3.36
 INFORMATION **** EXCBUF **** EXCH. BIPO BUFFER: WORDS USED =           0

 DFT PARAMETERS

     ATOM       ELECTRONS   NET CHARGE   R(ANGSTROM)
   1   1  H       1.0000      0.0000     1.11000000
   9   6  C       6.0000      0.0000     0.77000000
  33   7  N       7.0000      0.0000     0.74000000
  53   9  F       9.0000      0.0000     0.72000000
  61  30  ZN     30.0000      0.0000     1.37000000

 SIZE OF GRID=     476029
 TTTTTTTTTTTTTTTTTTTTTTTTTTTTTT MAKE_GRID2  TELAPSE       18.09 TCPU        4.33
 BECKE WEIGHT FUNCTION
 RADSAFE =     2.00
 TOLERANCES - DENSITY:10**- 6; POTENTIAL:10**- 9; GRID WGT:10**-14

 RADIAL INTEGRATION  - INTERVALS (POINTS,UPPER LIMIT):            1( 75,  4.0*R)

 ANGULAR INTEGRATION - INTERVALS (ACCURACY LEVEL [N. POINTS] UPPER LIMIT):
  1(  4[  86]   0.2)  2(  8[ 194]   0.5)  3( 12[ 350]   0.9)  4( 16[ 974]   3.5)
  5( 12[ 350]9999.0)
 TTTTTTTTTTTTTTTTTTTTTTTTTTTTTT INT_CALC    TELAPSE       18.14 TCPU        4.38
 EEEEEEEEEE INT_CALC TERMINATION  DATE 01 12 2023 TIME 03:39:56.9

 *******************************************************************************
 Z:\home\sanoj\Downloads\tmp_p\newconn.mol                                       
 CRYSTAL - SCF - TYPE OF CALCULATION :  RESTRICTED CLOSED SHELL
 *******************************************************************************

 CAPPA:IS1  3;IS2  3;IS3  3; K PTS MONK NET   6; SYMMOPS:K SPACE   8;G SPACE   4

 TTTTTTTTTTTTTTTTTTTTTTTTTTTTTT SDIK        TELAPSE       18.37 TCPU        4.61

 AAAAAAAAAAAAAAAAAAAAAAAAAAAAAAAAAAAAAAAAAAAAAAAAAAAAAAAAAAAAAAAAAAAAAAAAAAAAAAA
         ATOMIC WAVEFUNCTION(S)


 NUCLEAR CHARGE  1.0  SYMMETRY SPECIES            S
 N. ELECTRONS    1.0  NUMBER OF PRIMITIVE GTOS    4
                      NUMBER OF CONTRACTED GTOS   2
                      NUMBER OF CLOSED SHELLS     0
                      OPEN SHELL OCCUPATION       1

  ZNUC SCFIT  TOTAL HF ENERGY   KINETIC ENERGY   VIRIAL THEOREM ACCURACY
   1.0   1   -4.946643675E-01  4.917913167E-01 -2.005842012E+00  9.4E-17

 NUCLEAR CHARGE  6.0  SYMMETRY SPECIES            S    P
 N. ELECTRONS    6.0  NUMBER OF PRIMITIVE GTOS    7    4
                      NUMBER OF CONTRACTED GTOS   3    2
                      NUMBER OF CLOSED SHELLS     2    0
                      OPEN SHELL OCCUPATION       0    2

  ZNUC SCFIT  TOTAL HF ENERGY   KINETIC ENERGY   VIRIAL THEOREM ACCURACY
   6.0   6   -3.750912652E+01  3.905246519E+01 -1.960480378E+00  3.7E-06

 NUCLEAR CHARGE  7.0  SYMMETRY SPECIES            S    P
 N. ELECTRONS    7.0  NUMBER OF PRIMITIVE GTOS    7    4
                      NUMBER OF CONTRACTED GTOS   3    2
                      NUMBER OF CLOSED SHELLS     2    0
                      OPEN SHELL OCCUPATION       0    3

  ZNUC SCFIT  TOTAL HF ENERGY   KINETIC ENERGY   VIRIAL THEOREM ACCURACY
   7.0   9   -5.432196661E+01  5.425066284E+01 -2.001314339E+00  1.2E-06

 NUCLEAR CHARGE  9.0  SYMMETRY SPECIES            S    P
 N. ELECTRONS    9.0  NUMBER OF PRIMITIVE GTOS    7    4
                      NUMBER OF CONTRACTED GTOS   3    2
                      NUMBER OF CLOSED SHELLS     2    0
                      OPEN SHELL OCCUPATION       0    5

  ZNUC SCFIT  TOTAL HF ENERGY   KINETIC ENERGY   VIRIAL THEOREM ACCURACY
   9.0  14   -9.927886620E+01  9.927374065E+01 -2.000051630E+00  4.0E-06

 NUCLEAR CHARGE 30.0  SYMMETRY SPECIES            S    P    D
 N. ELECTRONS   30.0  NUMBER OF PRIMITIVE GTOS   14    9    5
                      NUMBER OF CONTRACTED GTOS   5    3    2
                      NUMBER OF CLOSED SHELLS     4    2    1
                      OPEN SHELL OCCUPATION       0    0    0

  ZNUC SCFIT  TOTAL HF ENERGY   KINETIC ENERGY   VIRIAL THEOREM ACCURACY
  30.0  10   -1.777404290E+03  1.777325716E+03 -2.000044209E+00  2.5E-06

 AAAAAAAAAAAAAAAAAAAAAAAAAAAAAAAAAAAAAAAAAAAAAAAAAAAAAAAAAAAAAAAAAAAAAAAAAAAAAAA

 TOTAL ATOMIC CHARGES:
   1.0000000   1.0000000   1.0000000   1.0000000   1.0000000   1.0000000
   1.0000000   1.0000000   6.0000000   6.0000000   6.0000000   6.0000000
   6.0000000   6.0000000   6.0000000   6.0000000   6.0000000   6.0000000
   6.0000000   6.0000000   6.0000000   6.0000000   6.0000000   6.0000000
   6.0000000   6.0000000   6.0000000   6.0000000   6.0000000   6.0000000
   6.0000000   6.0000000   7.0000000   7.0000000   7.0000000   7.0000000
   7.0000000   7.0000000   7.0000000   7.0000000   7.0000000   7.0000000
   7.0000000   7.0000000   7.0000000   7.0000000   7.0000000   7.0000000
   7.0000000   7.0000000   7.0000000   7.0000000   9.0000000   9.0000000
   9.0000000   9.0000000   9.0000000   9.0000000   9.0000000   9.0000000
  30.0000000  30.0000000
 TTTTTTTTTTTTTTTTTTTTTTTTTTTTTT MOQGAD      TELAPSE       20.07 TCPU        6.29
 TTTTTTTTTTTTTTTTTTTTTTTTTTTTTT SHELLXN     TELAPSE       86.65 TCPU       72.41
 TTTTTTTTTTTTTTTTTTTTTTTTTTTTTT MONMO3      TELAPSE       90.83 TCPU       76.58
 NUMERICALLY INTEGRATED DENSITY    423.9999798817
 TTTTTTTTTTTTTTTTTTTTTTTTTTTTTT NUMDFT      TELAPSE       93.10 TCPU       78.84
 CYC   0 ETOT(AU) -6.370117441912E+03 DETOT -6.37E+03 tst  0.00E+00 PX  1.00E+00
 TTTTTTTTTTTTTTTTTTTTTTTTTTTTTT DIIS        TELAPSE       93.18 TCPU       78.92
 TTTTTTTTTTTTTTTTTTTTTTTTTTTTTT FDIK        TELAPSE      126.84 TCPU      112.03
 INSULATING STATE
 TOP OF VALENCE BANDS -    BAND    212; K    3; EIG -1.2961599E-01 AU
 TOP OF VALENCE BANDS -    BAND    212; K    1; EIG -1.3169545E-01 AU
 BOTTOM OF VIRTUAL BANDS - BAND    213; K    1; EIG -8.8008594E-02 AU
 INDIRECT ENERGY BAND GAP:   1.1322 eV
 TTTTTTTTTTTTTTTTTTTTTTTTTTTTTT PDIG        TELAPSE      127.44 TCPU      112.63
 TOTAL ATOMIC CHARGES:
   1.2512412   1.2512412   1.2512412   1.2512412   1.1770148   1.1770148
   1.1770148   1.1770148   6.2442582   6.2442582   6.2442582   6.2442582
   5.5156799   5.5156799   5.5156799   5.5156799   6.1928511   6.1928511
   6.1928511   6.1928511   5.0234301   5.0234301   5.0234301   5.0234301
   5.0564680   5.0564680   5.0564680   5.0564680   6.1566470   6.1566470
   6.1566470   6.1566470   7.4233155   7.4233155   7.4233155   7.4233155
   7.2035214   7.2035214   7.2035214   7.2035214   7.3895882   7.3895882
   7.3895882   7.3895882   7.1846323   7.1846323   7.1846323   7.1846323
   7.6572310   7.6572310   7.6572310   7.6572310   9.2980911   9.2980911
   9.2980911   9.2980911   9.2779177   9.2779177   9.2779177   9.2779177
  27.9574329  27.8350175
 TTTTTTTTTTTTTTTTTTTTTTTTTTTTTT MOQGAD      TELAPSE      127.49 TCPU      112.68
 TTTTTTTTTTTTTTTTTTTTTTTTTTTTTT SHELLXN     TELAPSE      207.58 TCPU      189.66
 TTTTTTTTTTTTTTTTTTTTTTTTTTTTTT MONMO3      TELAPSE      211.58 TCPU      193.64
 NUMERICALLY INTEGRATED DENSITY    423.9999552417
 TTTTTTTTTTTTTTTTTTTTTTTTTTTTTT NUMDFT      TELAPSE      218.22 TCPU      200.26
 CYC   1 ETOT(AU) -6.364240718985E+03 DETOT  5.88E+00 tst  0.00E+00 PX  1.00E+00
 TTTTTTTTTTTTTTTTTTTTTTTTTTTTTT DIIS        TELAPSE      218.53 TCPU      200.56
 DIIS TEST: 0.12658E+02 AT SCF   CYCLE   1 - MIX   30 %
 TTTTTTTTTTTTTTTTTTTTTTTTTTTTTT FDIK        TELAPSE      232.93 TCPU      212.68
 INSULATING STATE
 TOP OF VALENCE BANDS -    BAND    212; K    2; EIG -1.9953748E-01 AU
 TOP OF VALENCE BANDS -    BAND    212; K    1; EIG -1.9990625E-01 AU
 BOTTOM OF VIRTUAL BANDS - BAND    213; K    6; EIG -1.1538920E-01 AU
 INDIRECT ENERGY BAND GAP:   2.2898 eV
 BOTTOM OF VIRTUAL BANDS - BAND    213; K    1; EIG -1.1531406E-01 AU
 TTTTTTTTTTTTTTTTTTTTTTTTTTTTTT PDIG        TELAPSE      233.52 TCPU      213.27
 TOTAL ATOMIC CHARGES:
   1.2103080   1.2103080   1.2103080   1.2103080   1.1249337   1.1249337
   1.1249337   1.1249337   6.1141960   6.1141960   6.1141960   6.1141960
   6.2591662   6.2591662   6.2591662   6.2591662   6.2839463   6.2839463
   6.2839463   6.2839463   6.2049873   6.2049873   6.2049873   6.2049873
   6.3566845   6.3566845   6.3566845   6.3566845   5.7089923   5.7089923
   5.7089923   5.7089923   6.9221048   6.9221048   6.9221048   6.9221048
   6.8377564   6.8377564   6.8377564   6.8377564   6.9286583   6.9286583
   6.9286583   6.9286583   6.8590765   6.8590765   6.8590765   6.8590765
   6.2610578   6.2610578   6.2610578   6.2610578   9.0665282   9.0665282
   9.0665282   9.0665282   8.9983774   8.9983774   8.9983774   8.9983774
  29.6542695  29.7986358
 TTTTTTTTTTTTTTTTTTTTTTTTTTTTTT MOQGAD      TELAPSE      233.57 TCPU      213.32
 TTTTTTTTTTTTTTTTTTTTTTTTTTTTTT SHELLXN     TELAPSE      310.90 TCPU      290.28
 TTTTTTTTTTTTTTTTTTTTTTTTTTTTTT MONMO3      TELAPSE      315.31 TCPU      294.68
 NUMERICALLY INTEGRATED DENSITY    423.9999484090
 TTTTTTTTTTTTTTTTTTTTTTTTTTTTTT NUMDFT      TELAPSE      321.84 TCPU      301.19
 CYC   2 ETOT(AU) -6.363560300541E+03 DETOT  6.80E-01 tst  5.16E-02 PX  7.41E-01
 TTTTTTTTTTTTTTTTTTTTTTTTTTTTTT DIIS        TELAPSE      322.36 TCPU      301.71
 DIIS TEST: 0.14418E+02 AT SCF   CYCLE   2 - DIIS ACTIVE - HISTORY:     2 CYCLES
 TTTTTTTTTTTTTTTTTTTTTTTTTTTTTT FDIK        TELAPSE      336.28 TCPU      313.04
 INSULATING STATE
 TOP OF VALENCE BANDS -    BAND    212; K    1; EIG -2.3765595E-01 AU
 BOTTOM OF VIRTUAL BANDS - BAND    213; K    5; EIG -1.0770621E-01 AU
 INDIRECT ENERGY BAND GAP:   3.5361 eV
 BOTTOM OF VIRTUAL BANDS - BAND    213; K    1; EIG -1.0676224E-01 AU
 TTTTTTTTTTTTTTTTTTTTTTTTTTTTTT PDIG        TELAPSE      336.87 TCPU      313.62
 TOTAL ATOMIC CHARGES:
   1.1806993   1.1806993   1.1806993   1.1806993   1.1064662   1.1064662
   1.1064662   1.1064662   5.9629295   5.9629295   5.9629295   5.9629295
   5.7461122   5.7461122   5.7461122   5.7461122   6.2042580   6.2042580
   6.2042580   6.2042580   5.6155662   5.6155662   5.6155662   5.6155662
   5.5073318   5.5073318   5.5073318   5.5073318   6.0117779   6.0117779
   6.0117779   6.0117779   7.1008976   7.1008976   7.1008976   7.1008976
   7.1718523   7.1718523   7.1718523   7.1718523   7.0658486   7.0658486
   7.0658486   7.0658486   7.1622564   7.1622564   7.1622564   7.1622564
   7.3728287   7.3728287   7.3728287   7.3728287   9.1455072   9.1455072
   9.1455072   9.1455072   9.1394487   9.1394487   9.1394487   9.1394487
  28.9894181  29.0354588
 TTTTTTTTTTTTTTTTTTTTTTTTTTTTTT MOQGAD      TELAPSE      336.92 TCPU      313.67
 TTTTTTTTTTTTTTTTTTTTTTTTTTTTTT SHELLXN     TELAPSE      416.60 TCPU      390.91
 TTTTTTTTTTTTTTTTTTTTTTTTTTTTTT MONMO3      TELAPSE      420.91 TCPU      395.20
 NUMERICALLY INTEGRATED DENSITY    423.9999448165
 TTTTTTTTTTTTTTTTTTTTTTTTTTTTTT NUMDFT      TELAPSE      427.48 TCPU      401.75
 CYC   3 ETOT(AU) -6.366175374055E+03 DETOT -2.62E+00 tst  8.75E-03 PX  6.81E-01
 TTTTTTTTTTTTTTTTTTTTTTTTTTTTTT DIIS        TELAPSE      427.78 TCPU      402.05
 DIIS TEST: 0.14622E+01 AT SCF   CYCLE   3 - DIIS ACTIVE - HISTORY:     3 CYCLES
 TTTTTTTTTTTTTTTTTTTTTTTTTTTTTT FDIK        TELAPSE      442.40 TCPU      413.85
 INSULATING STATE
 TOP OF VALENCE BANDS -    BAND    212; K    2; EIG -2.4676475E-01 AU
 TOP OF VALENCE BANDS -    BAND    212; K    1; EIG -2.4713362E-01 AU
 BOTTOM OF VIRTUAL BANDS - BAND    213; K    6; EIG -1.1364364E-01 AU
 INDIRECT ENERGY BAND GAP:   3.6224 eV
 BOTTOM OF VIRTUAL BANDS - BAND    213; K    1; EIG -1.1357460E-01 AU
 TTTTTTTTTTTTTTTTTTTTTTTTTTTTTT PDIG        TELAPSE      442.99 TCPU      414.43
 TOTAL ATOMIC CHARGES:
   1.1685157   1.1685157   1.1685157   1.1685157   1.1207079   1.1207079
   1.1207079   1.1207079   6.2381493   6.2381493   6.2381493   6.2381493
   5.8463061   5.8463061   5.8463061   5.8463061   6.3461792   6.3461792
   6.3461792   6.3461792   5.4405739   5.4405739   5.4405739   5.4405739
   5.5921258   5.5921258   5.5921258   5.5921258   5.9786157   5.9786157
   5.9786157   5.9786157   7.2260167   7.2260167   7.2260167   7.2260167
   7.0141758   7.0141758   7.0141758   7.0141758   7.2118722   7.2118722
   7.2118722   7.2118722   7.0244392   7.0244392   7.0244392   7.0244392
   7.0178793   7.0178793   7.0178793   7.0178793   9.1996058   9.1996058
   9.1996058   9.1996058   9.1604576   9.1604576   9.1604576   9.1604576
  28.8283124  28.8292061
 TTTTTTTTTTTTTTTTTTTTTTTTTTTTTT MOQGAD      TELAPSE      443.04 TCPU      414.48
 TTTTTTTTTTTTTTTTTTTTTTTTTTTTTT SHELLXN     TELAPSE      522.60 TCPU      491.66
 TTTTTTTTTTTTTTTTTTTTTTTTTTTTTT MONMO3      TELAPSE      527.13 TCPU      496.18
 NUMERICALLY INTEGRATED DENSITY    423.9999470383
 TTTTTTTTTTTTTTTTTTTTTTTTTTTTTT NUMDFT      TELAPSE      533.77 TCPU      502.79
 CYC   4 ETOT(AU) -6.366264260098E+03 DETOT -8.89E-02 tst  1.56E-03 PX  1.04E-01
 TTTTTTTTTTTTTTTTTTTTTTTTTTTTTT DIIS        TELAPSE      534.23 TCPU      503.26
 DIIS TEST: 0.84619E+00 AT SCF   CYCLE   4 - DIIS ACTIVE - HISTORY:     4 CYCLES
 TTTTTTTTTTTTTTTTTTTTTTTTTTTTTT FDIK        TELAPSE      547.69 TCPU      514.50
 INSULATING STATE
 TOP OF VALENCE BANDS -    BAND    212; K    1; EIG -2.4771765E-01 AU
 BOTTOM OF VIRTUAL BANDS - BAND    213; K    3; EIG -1.1136877E-01 AU
 INDIRECT ENERGY BAND GAP:   3.7102 eV
 BOTTOM OF VIRTUAL BANDS - BAND    213; K    1; EIG -1.1101952E-01 AU
 TTTTTTTTTTTTTTTTTTTTTTTTTTTTTT PDIG        TELAPSE      548.28 TCPU      515.09
 TOTAL ATOMIC CHARGES:
   1.1789694   1.1789694   1.1789694   1.1789694   1.1121714   1.1121714
   1.1121714   1.1121714   6.1272622   6.1272622   6.1272622   6.1272622
   5.8364563   5.8364563   5.8364563   5.8364563   6.2652876   6.2652876
   6.2652876   6.2652876   5.5794586   5.5794586   5.5794586   5.5794586
   5.6354939   5.6354939   5.6354939   5.6354939   5.9711143   5.9711143
   5.9711143   5.9711143   7.1475207   7.1475207   7.1475207   7.1475207
   7.0799356   7.0799356   7.0799356   7.0799356   7.1193472   7.1193472
   7.1193472   7.1193472   7.0744155   7.0744155   7.0744155   7.0744155
   7.1194064   7.1194064   7.1194064   7.1194064   9.1756028   9.1756028
   9.1756028   9.1756028   9.1428614   9.1428614   9.1428614   9.1428614
  28.8658865  28.8729002
 TTTTTTTTTTTTTTTTTTTTTTTTTTTTTT MOQGAD      TELAPSE      548.33 TCPU      515.14
 TTTTTTTTTTTTTTTTTTTTTTTTTTTTTT SHELLXN     TELAPSE      628.19 TCPU      592.40
 TTTTTTTTTTTTTTTTTTTTTTTTTTTTTT MONMO3      TELAPSE      632.72 TCPU      596.92
 NUMERICALLY INTEGRATED DENSITY    423.9999490400
 TTTTTTTTTTTTTTTTTTTTTTTTTTTTTT NUMDFT      TELAPSE      639.33 TCPU      603.50
 CYC   5 ETOT(AU) -6.366388742331E+03 DETOT -1.24E-01 tst  5.74E-04 PX  8.76E-02
 TTTTTTTTTTTTTTTTTTTTTTTTTTTTTT DIIS        TELAPSE      639.76 TCPU      603.93
 DIIS TEST: 0.24377E-01 AT SCF   CYCLE   5 - DIIS ACTIVE - HISTORY:     5 CYCLES
 TTTTTTTTTTTTTTTTTTTTTTTTTTTTTT FDIK        TELAPSE      652.73 TCPU      614.43
 INSULATING STATE
 TOP OF VALENCE BANDS -    BAND    212; K    1; EIG -2.4555419E-01 AU
 BOTTOM OF VIRTUAL BANDS - BAND    213; K    6; EIG -1.1183013E-01 AU
 INDIRECT ENERGY BAND GAP:   3.6388 eV
 BOTTOM OF VIRTUAL BANDS - BAND    213; K    1; EIG -1.1150932E-01 AU
 TTTTTTTTTTTTTTTTTTTTTTTTTTTTTT PDIG        TELAPSE      653.32 TCPU      615.02
 TOTAL ATOMIC CHARGES:
   1.1786909   1.1786909   1.1786909   1.1786909   1.1118808   1.1118808
   1.1118808   1.1118808   6.1177014   6.1177014   6.1177014   6.1177014
   5.8266809   5.8266809   5.8266809   5.8266809   6.2923139   6.2923139
   6.2923139   6.2923139   5.5767417   5.5767417   5.5767417   5.5767417
   5.6053193   5.6053193   5.6053193   5.6053193   5.9729700   5.9729700
   5.9729700   5.9729700   7.1576305   7.1576305   7.1576305   7.1576305
   7.0569370   7.0569370   7.0569370   7.0569370   7.1549513   7.1549513
   7.1549513   7.1549513   7.0786061   7.0786061   7.0786061   7.0786061
   7.1208954   7.1208954   7.1208954   7.1208954   9.1651630   9.1651630
   9.1651630   9.1651630   9.1366840   9.1366840   9.1366840   9.1366840
  28.8842934  28.9030425
 TTTTTTTTTTTTTTTTTTTTTTTTTTTTTT MOQGAD      TELAPSE      653.37 TCPU      615.07
 TTTTTTTTTTTTTTTTTTTTTTTTTTTTTT SHELLXN     TELAPSE      732.93 TCPU      692.14
 TTTTTTTTTTTTTTTTTTTTTTTTTTTTTT MONMO3      TELAPSE      737.58 TCPU      696.77
 NUMERICALLY INTEGRATED DENSITY    423.9999475295
 TTTTTTTTTTTTTTTTTTTTTTTTTTTTTT NUMDFT      TELAPSE      744.23 TCPU      703.39
 CYC   6 ETOT(AU) -6.366390407831E+03 DETOT -1.67E-03 tst  2.42E-05 PX  1.44E-02
 TTTTTTTTTTTTTTTTTTTTTTTTTTTTTT DIIS        TELAPSE      744.52 TCPU      703.68
 DIIS TEST: 0.14185E-01 AT SCF   CYCLE   6 - DIIS ACTIVE - HISTORY:     6 CYCLES
 TTTTTTTTTTTTTTTTTTTTTTTTTTTTTT FDIK        TELAPSE      757.33 TCPU      714.17
 INSULATING STATE
 TOP OF VALENCE BANDS -    BAND    212; K    1; EIG -2.4637677E-01 AU
 BOTTOM OF VIRTUAL BANDS - BAND    213; K    3; EIG -1.1123438E-01 AU
 INDIRECT ENERGY BAND GAP:   3.6774 eV
 BOTTOM OF VIRTUAL BANDS - BAND    213; K    1; EIG -1.1101636E-01 AU
 TTTTTTTTTTTTTTTTTTTTTTTTTTTTTT PDIG        TELAPSE      757.91 TCPU      714.75
 TOTAL ATOMIC CHARGES:
   1.1784917   1.1784917   1.1784917   1.1784917   1.1105393   1.1105393
   1.1105393   1.1105393   6.1185102   6.1185102   6.1185102   6.1185102
   5.8373986   5.8373986   5.8373986   5.8373986   6.2779471   6.2779471
   6.2779471   6.2779471   5.5773586   5.5773586   5.5773586   5.5773586
   5.6250849   5.6250849   5.6250849   5.6250849   5.9656241   5.9656241
   5.9656241   5.9656241   7.1660566   7.1660566   7.1660566   7.1660566
   7.0845285   7.0845285   7.0845285   7.0845285   7.1187498   7.1187498
   7.1187498   7.1187498   7.0650015   7.0650015   7.0650015   7.0650015
   7.1162632   7.1162632   7.1162632   7.1162632   9.1719182   9.1719182
   9.1719182   9.1719182   9.1397760   9.1397760   9.1397760   9.1397760
  28.8881476  28.8988598
 TTTTTTTTTTTTTTTTTTTTTTTTTTTTTT MOQGAD      TELAPSE      757.96 TCPU      714.80
 TTTTTTTTTTTTTTTTTTTTTTTTTTTTTT SHELLXN     TELAPSE      837.63 TCPU      792.02
 TTTTTTTTTTTTTTTTTTTTTTTTTTTTTT MONMO3      TELAPSE      842.09 TCPU      796.45
 NUMERICALLY INTEGRATED DENSITY    423.9999477838
 TTTTTTTTTTTTTTTTTTTTTTTTTTTTTT NUMDFT      TELAPSE      848.70 TCPU      803.05
 CYC   7 ETOT(AU) -6.366391306686E+03 DETOT -8.99E-04 tst  2.01E-05 PX  1.05E-02
 TTTTTTTTTTTTTTTTTTTTTTTTTTTTTT DIIS        TELAPSE      848.99 TCPU      803.34
 DIIS TEST: 0.84521E-02 AT SCF   CYCLE   7 - DIIS ACTIVE - HISTORY:     7 CYCLES
 TTTTTTTTTTTTTTTTTTTTTTTTTTTTTT FDIK        TELAPSE      859.93 TCPU      812.07
 INSULATING STATE
 TOP OF VALENCE BANDS -    BAND    212; K    1; EIG -2.4663386E-01 AU
 BOTTOM OF VIRTUAL BANDS - BAND    213; K    6; EIG -1.1156214E-01 AU
 INDIRECT ENERGY BAND GAP:   3.6755 eV
 BOTTOM OF VIRTUAL BANDS - BAND    213; K    1; EIG -1.1135416E-01 AU
 TTTTTTTTTTTTTTTTTTTTTTTTTTTTTT PDIG        TELAPSE      860.52 TCPU      812.65
 TOTAL ATOMIC CHARGES:
   1.1784807   1.1784807   1.1784807   1.1784807   1.1096798   1.1096798
   1.1096798   1.1096798   6.1190061   6.1190061   6.1190061   6.1190061
   5.8366166   5.8366166   5.8366166   5.8366166   6.2787785   6.2787785
   6.2787785   6.2787785   5.5802632   5.5802632   5.5802632   5.5802632
   5.6230523   5.6230523   5.6230523   5.6230523   5.9694564   5.9694564
   5.9694564   5.9694564   7.1464953   7.1464953   7.1464953   7.1464953
   7.0670208   7.0670208   7.0670208   7.0670208   7.1364071   7.1364071
   7.1364071   7.1364071   7.0803691   7.0803691   7.0803691   7.0803691
   7.1152872   7.1152872   7.1152872   7.1152872   9.1716496   9.1716496
   9.1716496   9.1716496   9.1400836   9.1400836   9.1400836   9.1400836
  28.8877021  28.9017124
 TTTTTTTTTTTTTTTTTTTTTTTTTTTTTT MOQGAD      TELAPSE      860.57 TCPU      812.70
 TTTTTTTTTTTTTTTTTTTTTTTTTTTTTT SHELLXN     TELAPSE      940.00 TCPU      889.67
 TTTTTTTTTTTTTTTTTTTTTTTTTTTTTT MONMO3      TELAPSE      944.83 TCPU      894.48
 NUMERICALLY INTEGRATED DENSITY    423.9999479436
 TTTTTTTTTTTTTTTTTTTTTTTTTTTTTT NUMDFT      TELAPSE      951.37 TCPU      901.00
 CYC   8 ETOT(AU) -6.366392277447E+03 DETOT -9.71E-04 tst  4.53E-06 PX  6.07E-03
 TTTTTTTTTTTTTTTTTTTTTTTTTTTTTT DIIS        TELAPSE      951.54 TCPU      901.17
 DIIS TEST: 0.14851E-02 AT SCF   CYCLE   8 - DIIS ACTIVE - HISTORY:     8 CYCLES
 TTTTTTTTTTTTTTTTTTTTTTTTTTTTTT FDIK        TELAPSE      964.33 TCPU      913.87
 INSULATING STATE
 TOP OF VALENCE BANDS -    BAND    212; K    1; EIG -2.4655418E-01 AU
 BOTTOM OF VIRTUAL BANDS - BAND    213; K    6; EIG -1.1162948E-01 AU
 INDIRECT ENERGY BAND GAP:   3.6715 eV
 BOTTOM OF VIRTUAL BANDS - BAND    213; K    1; EIG -1.1140078E-01 AU
 TTTTTTTTTTTTTTTTTTTTTTTTTTTTTT PDIG        TELAPSE      964.92 TCPU      914.45
 TOTAL ATOMIC CHARGES:
   1.1777933   1.1777933   1.1777933   1.1777933   1.1102437   1.1102437
   1.1102437   1.1102437   6.1199327   6.1199327   6.1199327   6.1199327
   5.8311836   5.8311836   5.8311836   5.8311836   6.2813774   6.2813774
   6.2813774   6.2813774   5.5789940   5.5789940   5.5789940   5.5789940
   5.6193163   5.6193163   5.6193163   5.6193163   5.9708066   5.9708066
   5.9708066   5.9708066   7.1591550   7.1591550   7.1591550   7.1591550
   7.0693345   7.0693345   7.0693345   7.0693345   7.1355706   7.1355706
   7.1355706   7.1355706   7.0706268   7.0706268   7.0706268   7.0706268
   7.1181554   7.1181554   7.1181554   7.1181554   9.1704053   9.1704053
   9.1704053   9.1704053   9.1390087   9.1390087   9.1390087   9.1390087
  28.8887538  28.9036306
 TTTTTTTTTTTTTTTTTTTTTTTTTTTTTT MOQGAD      TELAPSE      964.97 TCPU      914.50
 TTTTTTTTTTTTTTTTTTTTTTTTTTTTTT SHELLXN     TELAPSE     1043.88 TCPU      991.50
 TTTTTTTTTTTTTTTTTTTTTTTTTTTTTT MONMO3      TELAPSE     1048.75 TCPU      996.35
 NUMERICALLY INTEGRATED DENSITY    423.9999479497
 TTTTTTTTTTTTTTTTTTTTTTTTTTTTTT NUMDFT      TELAPSE     1055.26 TCPU     1002.84
 CYC   9 ETOT(AU) -6.366392519215E+03 DETOT -2.42E-04 tst  1.35E-06 PX  3.43E-03
 TTTTTTTTTTTTTTTTTTTTTTTTTTTTTT DIIS        TELAPSE     1055.78 TCPU     1003.35
 DIIS TEST: 0.18426E-03 AT SCF   CYCLE   9 - DIIS ACTIVE - HISTORY:     9 CYCLES
 TTTTTTTTTTTTTTTTTTTTTTTTTTTTTT FDIK        TELAPSE     1066.16 TCPU     1013.02
 INSULATING STATE
 TOP OF VALENCE BANDS -    BAND    212; K    1; EIG -2.4648735E-01 AU
 BOTTOM OF VIRTUAL BANDS - BAND    213; K    6; EIG -1.1160525E-01 AU
 INDIRECT ENERGY BAND GAP:   3.6703 eV
 BOTTOM OF VIRTUAL BANDS - BAND    213; K    1; EIG -1.1137813E-01 AU
 TTTTTTTTTTTTTTTTTTTTTTTTTTTTTT PDIG        TELAPSE     1066.75 TCPU     1013.61
 TOTAL ATOMIC CHARGES:
   1.1779587   1.1779587   1.1779587   1.1779587   1.1107100   1.1107100
   1.1107100   1.1107100   6.1195827   6.1195827   6.1195827   6.1195827
   5.8337403   5.8337403   5.8337403   5.8337403   6.2821108   6.2821108
   6.2821108   6.2821108   5.5787513   5.5787513   5.5787513   5.5787513
   5.6207241   5.6207241   5.6207241   5.6207241   5.9680511   5.9680511
   5.9680511   5.9680511   7.1548237   7.1548237   7.1548237   7.1548237
   7.0709482   7.0709482   7.0709482   7.0709482   7.1332578   7.1332578
   7.1332578   7.1332578   7.0755317   7.0755317   7.0755317   7.0755317
   7.1172627   7.1172627   7.1172627   7.1172627   9.1697668   9.1697668
   9.1697668   9.1697668   9.1391196   9.1391196   9.1391196   9.1391196
  28.8885013  28.9021405
 TTTTTTTTTTTTTTTTTTTTTTTTTTTTTT MOQGAD      TELAPSE     1066.80 TCPU     1013.66
 TTTTTTTTTTTTTTTTTTTTTTTTTTTTTT SHELLXN     TELAPSE     1146.00 TCPU     1090.48
 TTTTTTTTTTTTTTTTTTTTTTTTTTTTTT MONMO3      TELAPSE     1150.91 TCPU     1095.37
 NUMERICALLY INTEGRATED DENSITY    423.9999478079
 TTTTTTTTTTTTTTTTTTTTTTTTTTTTTT NUMDFT      TELAPSE     1157.46 TCPU     1101.90
 CYC  10 ETOT(AU) -6.366392542371E+03 DETOT -2.32E-05 tst  2.63E-07 PX  1.45E-03
 TTTTTTTTTTTTTTTTTTTTTTTTTTTTTT DIIS        TELAPSE     1157.78 TCPU     1102.22
 DIIS TEST: 0.64162E-04 AT SCF   CYCLE  10 - DIIS ACTIVE - HISTORY:    10 CYCLES
 TTTTTTTTTTTTTTTTTTTTTTTTTTTTTT FDIK        TELAPSE     1170.87 TCPU     1112.78
 INSULATING STATE
 TOP OF VALENCE BANDS -    BAND    212; K    1; EIG -2.4648464E-01 AU
 BOTTOM OF VIRTUAL BANDS - BAND    213; K    6; EIG -1.1159462E-01 AU
 INDIRECT ENERGY BAND GAP:   3.6705 eV
 BOTTOM OF VIRTUAL BANDS - BAND    213; K    1; EIG -1.1137176E-01 AU
 TTTTTTTTTTTTTTTTTTTTTTTTTTTTTT PDIG        TELAPSE     1171.46 TCPU     1113.36
 TOTAL ATOMIC CHARGES:
   1.1781316   1.1781316   1.1781316   1.1781316   1.1103740   1.1103740
   1.1103740   1.1103740   6.1186751   6.1186751   6.1186751   6.1186751
   5.8335498   5.8335498   5.8335498   5.8335498   6.2808448   6.2808448
   6.2808448   6.2808448   5.5795349   5.5795349   5.5795349   5.5795349
   5.6205882   5.6205882   5.6205882   5.6205882   5.9692775   5.9692775
   5.9692775   5.9692775   7.1563358   7.1563358   7.1563358   7.1563358
   7.0697040   7.0697040   7.0697040   7.0697040   7.1351113   7.1351113
   7.1351113   7.1351113   7.0735973   7.0735973   7.0735973   7.0735973
   7.1173344   7.1173344   7.1173344   7.1173344   9.1703222   9.1703222
   9.1703222   9.1703222   9.1390916   9.1390916   9.1390916   9.1390916
  28.8879344  28.9021761
 TTTTTTTTTTTTTTTTTTTTTTTTTTTTTT MOQGAD      TELAPSE     1171.51 TCPU     1113.41
 TTTTTTTTTTTTTTTTTTTTTTTTTTTTTT SHELLXN     TELAPSE     1249.02 TCPU     1190.52
 TTTTTTTTTTTTTTTTTTTTTTTTTTTTTT MONMO3      TELAPSE     1253.76 TCPU     1195.24
 NUMERICALLY INTEGRATED DENSITY    423.9999478624
 TTTTTTTTTTTTTTTTTTTTTTTTTTTTTT NUMDFT      TELAPSE     1260.28 TCPU     1201.75
 CYC  11 ETOT(AU) -6.366392552171E+03 DETOT -9.80E-06 tst  4.86E-08 PX  6.39E-04
 TTTTTTTTTTTTTTTTTTTTTTTTTTTTTT DIIS        TELAPSE     1260.51 TCPU     1201.97
 DIIS TEST: 0.13307E-04 AT SCF   CYCLE  11 - DIIS ACTIVE - HISTORY:    11 CYCLES
 TTTTTTTTTTTTTTTTTTTTTTTTTTTTTT FDIK        TELAPSE     1271.16 TCPU     1212.17
 INSULATING STATE
 TOP OF VALENCE BANDS -    BAND    212; K    1; EIG -2.4649949E-01 AU
 BOTTOM OF VIRTUAL BANDS - BAND    213; K    6; EIG -1.1159575E-01 AU
 INDIRECT ENERGY BAND GAP:   3.6709 eV
 BOTTOM OF VIRTUAL BANDS - BAND    213; K    1; EIG -1.1136882E-01 AU
 TTTTTTTTTTTTTTTTTTTTTTTTTTTTTT PDIG        TELAPSE     1271.75 TCPU     1212.75
 TOTAL ATOMIC CHARGES:
   1.1779881   1.1779881   1.1779881   1.1779881   1.1103036   1.1103036
   1.1103036   1.1103036   6.1192520   6.1192520   6.1192520   6.1192520
   5.8331691   5.8331691   5.8331691   5.8331691   6.2815550   6.2815550
   6.2815550   6.2815550   5.5790935   5.5790935   5.5790935   5.5790935
   5.6203484   5.6203484   5.6203484   5.6203484   5.9694055   5.9694055
   5.9694055   5.9694055   7.1560545   7.1560545   7.1560545   7.1560545
   7.0700960   7.0700960   7.0700960   7.0700960   7.1343460   7.1343460
   7.1343460   7.1343460   7.0739381   7.0739381   7.0739381   7.0739381
   7.1173915   7.1173915   7.1173915   7.1173915   9.1701833   9.1701833
   9.1701833   9.1701833   9.1391194   9.1391194   9.1391194   9.1391194
  28.8883439  28.9026805
 TTTTTTTTTTTTTTTTTTTTTTTTTTTTTT MOQGAD      TELAPSE     1271.80 TCPU     1212.80
 TTTTTTTTTTTTTTTTTTTTTTTTTTTTTT SHELLXN     TELAPSE     1351.52 TCPU     1289.75
 TTTTTTTTTTTTTTTTTTTTTTTTTTTTTT MONMO3      TELAPSE     1356.26 TCPU     1294.47
 NUMERICALLY INTEGRATED DENSITY    423.9999478655
 TTTTTTTTTTTTTTTTTTTTTTTTTTTTTT NUMDFT      TELAPSE     1362.89 TCPU     1301.08
 CYC  12 ETOT(AU) -6.366392553761E+03 DETOT -1.59E-06 tst  4.52E-09 PX  2.18E-04
 TTTTTTTTTTTTTTTTTTTTTTTTTTTTTT DIIS        TELAPSE     1363.27 TCPU     1301.47
 DIIS TEST: 0.14188E-05 AT SCF   CYCLE  12 - DIIS ACTIVE - HISTORY:    12 CYCLES
 TTTTTTTTTTTTTTTTTTTTTTTTTTTTTT FDIK        TELAPSE     1376.75 TCPU     1312.10
 INSULATING STATE
 TOP OF VALENCE BANDS -    BAND    212; K    1; EIG -2.4649764E-01 AU
 BOTTOM OF VIRTUAL BANDS - BAND    213; K    6; EIG -1.1159907E-01 AU
 INDIRECT ENERGY BAND GAP:   3.6708 eV
 BOTTOM OF VIRTUAL BANDS - BAND    213; K    1; EIG -1.1137368E-01 AU
 TTTTTTTTTTTTTTTTTTTTTTTTTTTTTT PDIG        TELAPSE     1377.34 TCPU     1312.69
 TOTAL ATOMIC CHARGES:
   1.1780016   1.1780016   1.1780016   1.1780016   1.1103783   1.1103783
   1.1103783   1.1103783   6.1193120   6.1193120   6.1193120   6.1193120
   5.8331206   5.8331206   5.8331206   5.8331206   6.2814427   6.2814427
   6.2814427   6.2814427   5.5791279   5.5791279   5.5791279   5.5791279
   5.6204109   5.6204109   5.6204109   5.6204109   5.9690615   5.9690615
   5.9690615   5.9690615   7.1562102   7.1562102   7.1562102   7.1562102
   7.0699232   7.0699232   7.0699232   7.0699232   7.1345933   7.1345933
   7.1345933   7.1345933   7.0738660   7.0738660   7.0738660   7.0738660
   7.1175319   7.1175319   7.1175319   7.1175319   9.1701774   9.1701774
   9.1701774   9.1701774   9.1391281   9.1391281   9.1391281   9.1391281
  28.8883330  28.9025244
 TTTTTTTTTTTTTTTTTTTTTTTTTTTTTT MOQGAD      TELAPSE     1377.39 TCPU     1312.74
 TTTTTTTTTTTTTTTTTTTTTTTTTTTTTT SHELLXN     TELAPSE     1456.98 TCPU     1389.76
 TTTTTTTTTTTTTTTTTTTTTTTTTTTTTT MONMO3      TELAPSE     1461.63 TCPU     1394.38
 NUMERICALLY INTEGRATED DENSITY    423.9999478650
 TTTTTTTTTTTTTTTTTTTTTTTTTTTTTT NUMDFT      TELAPSE     1468.16 TCPU     1400.89
 CYC  13 ETOT(AU) -6.366392553892E+03 DETOT -1.31E-07 tst  9.44E-10 PX  9.87E-05
 TTTTTTTTTTTTTTTTTTTTTTTTTTTTTT DIIS        TELAPSE     1468.45 TCPU     1401.17
 DIIS TEST: 0.59135E-06 AT SCF   CYCLE  13 - DIIS ACTIVE - HISTORY:    13 CYCLES
 TTTTTTTTTTTTTTTTTTTTTTTTTTTTTT FDIK        TELAPSE     1478.43 TCPU     1410.98
 INSULATING STATE
 TOP OF VALENCE BANDS -    BAND    212; K    1; EIG -2.4649671E-01 AU
 BOTTOM OF VIRTUAL BANDS - BAND    213; K    6; EIG -1.1159665E-01 AU
 INDIRECT ENERGY BAND GAP:   3.6708 eV
 BOTTOM OF VIRTUAL BANDS - BAND    213; K    1; EIG -1.1137069E-01 AU
 TTTTTTTTTTTTTTTTTTTTTTTTTTTTTT PDIG        TELAPSE     1479.01 TCPU     1411.56
 TOTAL ATOMIC CHARGES:
   1.1780008   1.1780008   1.1780008   1.1780008   1.1103734   1.1103734
[...]
 DIIS TEST: 0.65070E-02 AT CPHF  CYCLE   9 - DIIS ACTIVE - HISTORY:     9 CYCLES
 CYCLE   9   ALPHA  903.634341  EPSILON    3.402974  DELTA    2.3401E-02
 TTTTTTTTTTTTTTTTTTTTTTTTTTTTTT MOQGAD      TELAPSE   146392.83 TCPU   145023.05
 TTTTTTTTTTTTTTTTTTTTTTTTTTTTTT CP_MONMON   TELAPSE   146424.04 TCPU   145054.10
 DIIS TEST: 0.85839E-03 AT CPHF  CYCLE  10 - DIIS ACTIVE - HISTORY:    10 CYCLES
 CYCLE  10   ALPHA  903.636222  EPSILON    3.402979  DELTA    1.8811E-03
 TTTTTTTTTTTTTTTTTTTTTTTTTTTTTT MOQGAD      TELAPSE   147870.87 TCPU   146491.86
 TTTTTTTTTTTTTTTTTTTTTTTTTTTTTT CP_MONMON   TELAPSE   147902.04 TCPU   146522.95
 DIIS TEST: 0.47802E-04 AT CPHF  CYCLE  11 - DIIS ACTIVE - HISTORY:    11 CYCLES
 CYCLE  11   ALPHA  903.612198  EPSILON    3.402915  DELTA   -2.4024E-02
 TTTTTTTTTTTTTTTTTTTTTTTTTTTTTT MOQGAD      TELAPSE   149356.45 TCPU   147967.37
 TTTTTTTTTTTTTTTTTTTTTTTTTTTTTT CP_MONMON   TELAPSE   149387.90 TCPU   147998.73
 DIIS TEST: 0.11468E-04 AT CPHF  CYCLE  12 - DIIS ACTIVE - HISTORY:    12 CYCLES
 CYCLE  12   ALPHA  903.594073  EPSILON    3.402867  DELTA   -1.8126E-02
 TTTTTTTTTTTTTTTTTTTTTTTTTTTTTT MOQGAD      TELAPSE   150849.75 TCPU   149421.57
 TTTTTTTTTTTTTTTTTTTTTTTTTTTTTT CP_MONMON   TELAPSE   150880.92 TCPU   149452.64
 DIIS TEST: 0.12298E-05 AT CPHF  CYCLE  13 - DIIS ACTIVE - HISTORY:    13 CYCLES
 CYCLE  13   ALPHA  903.590709  EPSILON    3.402858  DELTA   -3.3635E-03
 TTTTTTTTTTTTTTTTTTTTTTTTTTTTTT MOQGAD      TELAPSE   152326.13 TCPU   150889.86
 TTTTTTTTTTTTTTTTTTTTTTTTTTTTTT CP_MONMON   TELAPSE   152357.31 TCPU   150920.96
 DIIS TEST: 0.12200E-06 AT CPHF  CYCLE  14 - DIIS ACTIVE - HISTORY:    14 CYCLES
 CYCLE  14   ALPHA  903.588551  EPSILON    3.402852  DELTA   -2.1579E-03
 TTTTTTTTTTTTTTTTTTTTTTTTTTTTTT MOQGAD      TELAPSE   153807.37 TCPU   152363.25
 TTTTTTTTTTTTTTTTTTTTTTTTTTTTTT CP_MONMON   TELAPSE   153838.55 TCPU   152394.31
 DIIS TEST: 0.18397E-07 AT CPHF  CYCLE  15 - DIIS ACTIVE - HISTORY:    15 CYCLES
 CYCLE  15   ALPHA  903.588528  EPSILON    3.402852  DELTA   -2.3080E-05
 TTTTTTTTTTTTTTTTTTTTTTTTTTTTTT CP_SC       TELAPSE   153970.01 TCPU   152518.12

 *******************************************************************************

 ELECTRIC FIELD APPLIED ALONG CARTESIAN DIRECTION Z

 *******************************************************************************
 THE NUMBER OF SYMMETRY OPERATORS HAS BEEN REDUCED FROM  4 TO  1

 NEW GRID IN RECIPROCAL SPACE
 *******************************************************************************
 POINTS IN THE IBZ                  14 SHRINKING FACTORS               3  3  3
 *******************************************************************************
 *** K POINTS COORDINATES (OBLIQUE COORDINATES IN UNITS OF SHRINK FAC. )
   1-R(  0  0  0)   2-C(  1  0  0)   3-C(  0  1  2)   4-C(  2  0  1)
   5-C(  0  2  0)   6-C(  1  1  0)   7-C(  1  1  1)   8-C(  1  0  1)
   9-C(  0  1  1)  10-C(  2  1  0)  11-C(  0  0  2)  12-C(  2  1  1)
  13-C(  2  1  2)  14-C(  2  2  1)

 GCALCO - MAX INDICES DIRECT LATTICE VECTOR    14    14    16
 NO.OF VECTORS CREATED 6999 STARS  487 RMAX   199.91208 BOHR
 TTTTTTTTTTTTTTTTTTTTTTTTTTTTTT gordsh1     TELAPSE   154021.21 TCPU   152567.54

 MATRIX SIZE: P(G) 1804596, F(G)  903276, P(G) IRR  905482, F(G) IRR  905482
 MAX G-VECTOR INDEX FOR 1- AND 2-ELECTRON INTEGRALS  63

 TTTTTTTTTTTTTTTTTTTTTTTTTTTTTT INPUT       TELAPSE   154047.06 TCPU   152593.21
 TTTTTTTTTTTTTTTTTTTTTTTTTTTTTT SYMM        TELAPSE   154047.06 TCPU   152593.21

 ***** NEW REFERENCE GEOMETRY *****
 TTTTTTTTTTTTTTTTTTTTTTTTTTTTTT INT_SCREEN  TELAPSE   154047.08 TCPU   152593.23
 INFORMATION **** EXCBUF **** EXCH. BIPO BUFFER: WORDS USED =           0

 DFT PARAMETERS

     ATOM       ELECTRONS   NET CHARGE   R(ANGSTROM)
   1   1  H       1.0000      0.0000     1.11000000
   9   6  C       6.0000      0.0000     0.77000000
  33   7  N       7.0000      0.0000     0.74000000
  53   9  F       9.0000      0.0000     0.72000000
  61  30  ZN     30.0000      0.0000     1.37000000

 SIZE OF GRID=    1903882
 TTTTTTTTTTTTTTTTTTTTTTTTTTTTTT MAKE_GRID2  TELAPSE   154049.37 TCPU   152595.51
 BECKE WEIGHT FUNCTION
 RADSAFE =     2.00
 TOLERANCES - DENSITY:10**- 6; POTENTIAL:10**- 9; GRID WGT:10**-14

 RADIAL INTEGRATION  - INTERVALS (POINTS,UPPER LIMIT):            1( 75,  4.0*R)

 ANGULAR INTEGRATION - INTERVALS (ACCURACY LEVEL [N. POINTS] UPPER LIMIT):
  1(  4[  86]   0.2)  2(  8[ 194]   0.5)  3( 12[ 350]   0.9)  4( 16[ 974]   3.5)
  5( 12[ 350]9999.0)
 TTTTTTTTTTTTTTTTTTTTTTTTTTTTTT INT_CALC    TELAPSE   154049.48 TCPU   152595.61
 CYCLE   0   ALPHA  567.384498  EPSILON    2.508807  DELTA    5.6738E+02
 TTTTTTTTTTTTTTTTTTTTTTTTTTTTTT MOQGAD      TELAPSE   155488.73 TCPU   154027.01
 TTTTTTTTTTTTTTTTTTTTTTTTTTTTTT CP_MONMON   TELAPSE   155520.03 TCPU   154058.22
 DIIS TEST: 0.83351E+02 AT CPHF  CYCLE   1 - MIX    0 %
 CYCLE   1   ALPHA  251.314299  EPSILON    1.668303  DELTA   -3.1607E+02
 TTTTTTTTTTTTTTTTTTTTTTTTTTTTTT MOQGAD      TELAPSE   156979.58 TCPU   155510.33
 TTTTTTTTTTTTTTTTTTTTTTTTTTTTTT CP_MONMON   TELAPSE   157010.59 TCPU   155541.27
 DIIS TEST: 0.67913E+03 AT CPHF  CYCLE   2 - DIIS ACTIVE - HISTORY:     2 CYCLES
 CYCLE   2   ALPHA  411.790433  EPSILON    2.095047  DELTA    1.6048E+02
 TTTTTTTTTTTTTTTTTTTTTTTTTTTTTT MOQGAD      TELAPSE   158497.49 TCPU   156997.42
 TTTTTTTTTTTTTTTTTTTTTTTTTTTTTT CP_MONMON   TELAPSE   158528.71 TCPU   157028.57
 DIIS TEST: 0.21085E+02 AT CPHF  CYCLE   3 - DIIS ACTIVE - HISTORY:     3 CYCLES
 CYCLE   3   ALPHA  439.332725  EPSILON    2.168288  DELTA    2.7542E+01
 TTTTTTTTTTTTTTTTTTTTTTTTTTTTTT MOQGAD      TELAPSE   159999.82 TCPU   158488.05
 TTTTTTTTTTTTTTTTTTTTTTTTTTTTTT CP_MONMON   TELAPSE   160030.79 TCPU   158518.93
 DIIS TEST: 0.61903E+01 AT CPHF  CYCLE   4 - DIIS ACTIVE - HISTORY:     4 CYCLES
 CYCLE   4   ALPHA  441.096338  EPSILON    2.172978  DELTA    1.7636E+00
 TTTTTTTTTTTTTTTTTTTTTTTTTTTTTT MOQGAD      TELAPSE   161500.49 TCPU   159978.91
 TTTTTTTTTTTTTTTTTTTTTTTTTTTTTT CP_MONMON   TELAPSE   161531.70 TCPU   160010.05
 DIIS TEST: 0.15783E+00 AT CPHF  CYCLE   5 - DIIS ACTIVE - HISTORY:     5 CYCLES
 CYCLE   5   ALPHA  441.606474  EPSILON    2.174334  DELTA    5.1014E-01
 TTTTTTTTTTTTTTTTTTTTTTTTTTTTTT MOQGAD      TELAPSE   162992.24 TCPU   161460.43
 TTTTTTTTTTTTTTTTTTTTTTTTTTTTTT CP_MONMON   TELAPSE   163023.30 TCPU   161491.40
 DIIS TEST: 0.22431E-01 AT CPHF  CYCLE   6 - DIIS ACTIVE - HISTORY:     6 CYCLES
 CYCLE   6   ALPHA  441.785030  EPSILON    2.174809  DELTA    1.7856E-01
 TTTTTTTTTTTTTTTTTTTTTTTTTTTTTT MOQGAD      TELAPSE   164488.12 TCPU   162940.95
 TTTTTTTTTTTTTTTTTTTTTTTTTTTTTT CP_MONMON   TELAPSE   164519.40 TCPU   162972.13
 DIIS TEST: 0.59139E-02 AT CPHF  CYCLE   7 - DIIS ACTIVE - HISTORY:     7 CYCLES
 CYCLE   7   ALPHA  441.795208  EPSILON    2.174836  DELTA    1.0178E-02
 TTTTTTTTTTTTTTTTTTTTTTTTTTTTTT MOQGAD      TELAPSE   166013.23 TCPU   164448.30
 TTTTTTTTTTTTTTTTTTTTTTTTTTTTTT CP_MONMON   TELAPSE   166044.35 TCPU   164479.24
 DIIS TEST: 0.16915E-02 AT CPHF  CYCLE   8 - DIIS ACTIVE - HISTORY:     8 CYCLES
 CYCLE   8   ALPHA  441.808623  EPSILON    2.174872  DELTA    1.3415E-02
 TTTTTTTTTTTTTTTTTTTTTTTTTTTTTT MOQGAD      TELAPSE   167506.62 TCPU   165932.82
 TTTTTTTTTTTTTTTTTTTTTTTTTTTTTT CP_MONMON   TELAPSE   167537.63 TCPU   165963.70
 DIIS TEST: 0.30105E-02 AT CPHF  CYCLE   9 - DIIS ACTIVE - HISTORY:     9 CYCLES
 CYCLE   9   ALPHA  441.815806  EPSILON    2.174891  DELTA    7.1827E-03
 TTTTTTTTTTTTTTTTTTTTTTTTTTTTTT MOQGAD      TELAPSE   169000.32 TCPU   167412.34
 TTTTTTTTTTTTTTTTTTTTTTTTTTTTTT CP_MONMON   TELAPSE   169031.57 TCPU   167443.50
 DIIS TEST: 0.28955E-03 AT CPHF  CYCLE  10 - DIIS ACTIVE - HISTORY:    10 CYCLES
 CYCLE  10   ALPHA  441.807353  EPSILON    2.174868  DELTA   -8.4530E-03
 TTTTTTTTTTTTTTTTTTTTTTTTTTTTTT MOQGAD      TELAPSE   170493.63 TCPU   168895.93
 TTTTTTTTTTTTTTTTTTTTTTTTTTTTTT CP_MONMON   TELAPSE   170524.88 TCPU   168927.10
 DIIS TEST: 0.27863E-04 AT CPHF  CYCLE  11 - DIIS ACTIVE - HISTORY:    11 CYCLES
 CYCLE  11   ALPHA  441.799204  EPSILON    2.174847  DELTA   -8.1487E-03
 TTTTTTTTTTTTTTTTTTTTTTTTTTTTTT MOQGAD      TELAPSE   171985.98 TCPU   170373.87
 TTTTTTTTTTTTTTTTTTTTTTTTTTTTTT CP_MONMON   TELAPSE   172017.01 TCPU   170404.78
 DIIS TEST: 0.17283E-05 AT CPHF  CYCLE  12 - DIIS ACTIVE - HISTORY:    12 CYCLES
 CYCLE  12   ALPHA  441.797564  EPSILON    2.174842  DELTA   -1.6402E-03
 TTTTTTTTTTTTTTTTTTTTTTTTTTTTTT MOQGAD      TELAPSE   173484.73 TCPU   171861.20
 TTTTTTTTTTTTTTTTTTTTTTTTTTTTTT CP_MONMON   TELAPSE   173515.96 TCPU   171892.34
 DIIS TEST: 0.47075E-06 AT CPHF  CYCLE  13 - DIIS ACTIVE - HISTORY:    13 CYCLES
 CYCLE  13   ALPHA  441.797258  EPSILON    2.174842  DELTA   -3.0614E-04
 TTTTTTTTTTTTTTTTTTTTTTTTTTTTTT CP_SC       TELAPSE   173645.82 TCPU   172000.79

 *******************************************************************************

 POLARIZABILITY (ALPHA), DIELECTRIC (EPSILON) AND FIRST-ORDER ELECTRIC
 SUSCEPTIBILITY (CHI(1)) TENSORS (INDEPENDENT COMPONENTS)

  FR.(eV) COMP.   ALPHA(Re,Im)           EPSILON(Re,Im)                CHI(1)
  2.331   XX     903.5877       0.0000       3.4028       0.0000       2.4028
  2.331   XY      -0.0008       0.0000      -0.0000       0.0000      -0.0000
  2.331   XZ      -0.0000       0.0000      -0.0000       0.0000      -0.0000
  2.331   YY     903.5885       0.0000       3.4029       0.0000       2.4029
  2.331   YZ      -0.0000       0.0000      -0.0000       0.0000      -0.0000
  2.331   ZZ     441.7973       0.0000       2.1748       0.0000       1.1748

 DIELECTRIC TENSOR

 TENSOR IN PRINCIPAL AXES SYSTEM
 AA  3.402848E+00 BB  3.402853E+00 CC  2.174842E+00

 REFRACTIVE INDICES 
 AA  1.474734E+00 BB  1.844681E+00 CC  1.844682E+00

 OPTICALLY ANISOTROPIC - UNIAXIAL CRYSTAL

 BIREFRINGENCE =  0.3699 (NEGATIVE) - OBLATE OPTICAL ELLIPSOID

 EPSILON=N**2=1+CHI(1)=1+ALPHA*4*PI/V,   4*PI/V=   0.00266 BOHR**(-3)
 ALPHA IN BOHR**3; EPSILON AND CHI(1) ARE DIMENSIONLESS.
 *******************************************************************************


  Pockels Effect beta(-omega;omega,0) with omega=   1.1653 eV


 SIZE OF GRID=    1903882
 TTTTTTTTTTTTTTTTTTTTTTTTTTTTTT MAKE_GRID2  TELAPSE   174098.01 TCPU   172448.60
 BECKE WEIGHT FUNCTION
 RADSAFE =     2.00
 TOLERANCES - DENSITY:10**- 6; POTENTIAL:10**- 9; GRID WGT:10**-14

 RADIAL INTEGRATION  - INTERVALS (POINTS,UPPER LIMIT):            1( 75,  4.0*R)

 ANGULAR INTEGRATION - INTERVALS (ACCURACY LEVEL [N. POINTS] UPPER LIMIT):
  1(  4[  86]   0.2)  2(  8[ 194]   0.5)  3( 12[ 350]   0.9)  4( 16[ 974]   3.5)
  5( 12[ 350]9999.0)

 SIZE OF GRID=    1903882
 TTTTTTTTTTTTTTTTTTTTTTTTTTTTTT MAKE_GRID2  TELAPSE   174101.38 TCPU   172451.27
 BECKE WEIGHT FUNCTION
 RADSAFE =     2.00
 TOLERANCES - DENSITY:10**- 6; POTENTIAL:10**- 9; GRID WGT:10**-14

 RADIAL INTEGRATION  - INTERVALS (POINTS,UPPER LIMIT):            1( 75,  4.0*R)

 ANGULAR INTEGRATION - INTERVALS (ACCURACY LEVEL [N. POINTS] UPPER LIMIT):
  1(  4[  86]   0.2)  2(  8[ 194]   0.5)  3( 12[ 350]   0.9)  4( 16[ 974]   3.5)
  5( 12[ 350]9999.0)
 *******************************************************************************

 DC-POCKELS AND SECOND ELECTRIC SUSCEPTIBILITY (CHI(2))
 TENSORS (INDEPENDENT COMPONENTS)

BETA                                         CHI(2)       d(MKS)       d(cgs)
 *******************************************************************************

     XXX          0.2045E-03   0.2719E-06   0.2644E-06   0.6308E-08
     XXY          0.2476E-03   0.3292E-06   0.3201E-06   0.7636E-08
     XXZ         -0.2008E+03  -0.2669E+00  -0.2595E+00  -0.6192E-02
     XYX         -0.4260E-04  -0.5664E-07  -0.5507E-07  -0.1314E-08
     XYY         -0.1279E-03  -0.1701E-06  -0.1654E-06  -0.3946E-08
     XYZ         -0.1174E+03  -0.1561E+00  -0.1518E+00  -0.3621E-02
     XZX         -0.1979E+03  -0.2631E+00  -0.2559E+00  -0.6104E-02
     XZY         -0.1105E+03  -0.1469E+00  -0.1429E+00  -0.3408E-02
     XZZ          0.7784E-04   0.1035E-06   0.1006E-06   0.2401E-08
     YXX         -0.1034E-03  -0.1375E-06  -0.1337E-06  -0.3190E-08
     YXY         -0.1073E-03  -0.1427E-06  -0.1387E-06  -0.3309E-08
     YXZ         -0.1174E+03  -0.1561E+00  -0.1518E+00  -0.3621E-02
     YYX         -0.8284E-04  -0.1102E-06  -0.1071E-06  -0.2555E-08
     YYY         -0.6269E-03  -0.8336E-06  -0.8105E-06  -0.1934E-07
     YYZ          0.2008E+03   0.2669E+00   0.2595E+00   0.6192E-02
     YZX         -0.1105E+03  -0.1469E+00  -0.1429E+00  -0.3408E-02
     YZY          0.1979E+03   0.2631E+00   0.2559E+00   0.6104E-02
     YZZ         -0.3341E-03  -0.4442E-06  -0.4319E-06  -0.1030E-07
     ZXX         -0.1979E+03  -0.2631E+00  -0.2558E+00  -0.6103E-02
     ZXY         -0.1105E+03  -0.1469E+00  -0.1429E+00  -0.3408E-02
     ZXZ          0.5026E-04   0.6682E-07   0.6497E-07   0.1550E-08
     ZYX         -0.1105E+03  -0.1469E+00  -0.1429E+00  -0.3408E-02
     ZYY          0.1979E+03   0.2631E+00   0.2558E+00   0.6103E-02
     ZYZ         -0.3397E-03  -0.4517E-06  -0.4392E-06  -0.1048E-07
     ZZX          0.9801E-04   0.1303E-06   0.1267E-06   0.3023E-08
     ZZY         -0.1881E-04  -0.2501E-07  -0.2432E-07  -0.5802E-09
     ZZZ          0.1441E-02   0.1916E-05   0.1863E-05   0.4445E-07
 *******************************************************************************
 CHI(2) = BETA*2PI/V

 BETA AND CHI(2) IN A.U.:    [BETA] = M**(-1/2) L**(7/2) T
                             [CHI(2)] = 1/F
                             (L=LENGTH, M=MASS, T=TIME, F=FIELD INTENSITY)

 ELECTRIC SUSCEPTIBILITY IN THE SECOND HARMONIC GENERATION (SHG) CONVENTION IS:
                   d(A.U.)= 1/2 CHI(2)
                   d(MKS) = d(A.U.)/0.514220632 pm/V
                   d(CGS) = d(A.U.)/(4PI*1.7152535)  10**(-7) esu

 FIELD INTENSITY: 1 A.U. = 0.514220632*10**(11) V/m = 1.7152535*10**7 esu
 BEWARE:                CHI(2)=P/(E0*F**2)   (MKS)
                        CHI(2)=P/F**2        (CGS)
 WHERE P IS THE POLARIZATION VECTOR AND F IS THE APPLIED ELECTRIC FIELD.
 CONSISTENCY IS  PRESERVED BY MULTIPLYING THE CGS VALUE TIMES THE PERMITTIVITY
 OF THE VACUUM, E0 (CONVERSION FACTORS FROM www.physics.nist.gov/constants).
 IN PARENTHESIS: BETA BEFORE SYMMETRIZATION.

  SHG Effect beta(-2omega;omega,omega) with omega=   1.1653 eV


 SIZE OF GRID=    1903882
 TTTTTTTTTTTTTTTTTTTTTTTTTTTTTT MAKE_GRID2  TELAPSE   174483.23 TCPU   172831.45
 BECKE WEIGHT FUNCTION
 RADSAFE =     2.00
 TOLERANCES - DENSITY:10**- 6; POTENTIAL:10**- 9; GRID WGT:10**-14

 RADIAL INTEGRATION  - INTERVALS (POINTS,UPPER LIMIT):            1( 75,  4.0*R)

 ANGULAR INTEGRATION - INTERVALS (ACCURACY LEVEL [N. POINTS] UPPER LIMIT):
  1(  4[  86]   0.2)  2(  8[ 194]   0.5)  3( 12[ 350]   0.9)  4( 16[ 974]   3.5)
  5( 12[ 350]9999.0)

 SIZE OF GRID=    1903882
 TTTTTTTTTTTTTTTTTTTTTTTTTTTTTT MAKE_GRID2  TELAPSE   174485.88 TCPU   172834.09
 BECKE WEIGHT FUNCTION
 RADSAFE =     2.00
 TOLERANCES - DENSITY:10**- 6; POTENTIAL:10**- 9; GRID WGT:10**-14

 RADIAL INTEGRATION  - INTERVALS (POINTS,UPPER LIMIT):            1( 75,  4.0*R)

 ANGULAR INTEGRATION - INTERVALS (ACCURACY LEVEL [N. POINTS] UPPER LIMIT):
  1(  4[  86]   0.2)  2(  8[ 194]   0.5)  3( 12[ 350]   0.9)  4( 16[ 974]   3.5)
  5( 12[ 350]9999.0)
 *******************************************************************************

 SECOND HARMONIC GENERATION (SHG)  AND SECOND ELECTRIC SUSCEPTIBILITY (CHI(2))
 TENSORS (INDEPENDENT COMPONENTS)

BETA                                         CHI(2)       d(MKS)       d(cgs)
 *******************************************************************************

     XXX          0.1454E-03   0.1933E-06   0.1880E-06   0.4485E-08
     XXY          0.1187E-04   0.1578E-07   0.1534E-07   0.3661E-09
     XXZ         -0.2920E+03  -0.3882E+00  -0.3775E+00  -0.9006E-02
     XYX          0.1187E-04   0.1578E-07   0.1534E-07   0.3661E-09
     XYY         -0.1279E-03  -0.1700E-06  -0.1653E-06  -0.3944E-08
     XYZ         -0.9428E+02  -0.1254E+00  -0.1219E+00  -0.2908E-02
     XZX         -0.2920E+03  -0.3882E+00  -0.3775E+00  -0.9006E-02
     XZY         -0.9428E+02  -0.1254E+00  -0.1219E+00  -0.2908E-02
     XZZ          0.1275E-03   0.1695E-06   0.1648E-06   0.3931E-08
     YXX         -0.1486E-03  -0.1976E-06  -0.1921E-06  -0.4584E-08
     YXY         -0.1557E-03  -0.2070E-06  -0.2013E-06  -0.4801E-08
     YXZ         -0.9428E+02  -0.1254E+00  -0.1219E+00  -0.2908E-02
     YYX         -0.1557E-03  -0.2070E-06  -0.2013E-06  -0.4801E-08
     YYY         -0.1155E-02  -0.1536E-05  -0.1494E-05  -0.3563E-07
     YYZ          0.2920E+03   0.3882E+00   0.3775E+00   0.9006E-02
     YZX         -0.9428E+02  -0.1254E+00  -0.1219E+00  -0.2908E-02
     YZY          0.2920E+03   0.3882E+00   0.3775E+00   0.9006E-02
     YZZ         -0.3480E-03  -0.4628E-06  -0.4500E-06  -0.1073E-07
     ZXX         -0.2615E+03  -0.3477E+00  -0.3381E+00  -0.8066E-02
     ZXY         -0.8513E+02  -0.1132E+00  -0.1101E+00  -0.2626E-02
     ZXZ          0.4948E-04   0.6579E-07   0.6397E-07   0.1526E-08
     ZYX         -0.8513E+02  -0.1132E+00  -0.1101E+00  -0.2626E-02
     ZYY          0.2615E+03   0.3477E+00   0.3381E+00   0.8066E-02
     ZYZ         -0.4132E-03  -0.5494E-06  -0.5342E-06  -0.1274E-07
     ZZX          0.4948E-04   0.6579E-07   0.6397E-07   0.1526E-08
     ZZY         -0.4132E-03  -0.5494E-06  -0.5342E-06  -0.1274E-07
     ZZZ          0.1024E-02   0.1361E-05   0.1324E-05   0.3158E-07
 *******************************************************************************
 CHI(2) = BETA*2PI/V

 BETA AND CHI(2) IN A.U.:    [BETA] = M**(-1/2) L**(7/2) T
                             [CHI(2)] = 1/F
                             (L=LENGTH, M=MASS, T=TIME, F=FIELD INTENSITY)

 ELECTRIC SUSCEPTIBILITY IN THE SECOND HARMONIC GENERATION (SHG) CONVENTION IS:
                   d(A.U.)= 1/2 CHI(2)
                   d(MKS) = d(A.U.)/0.514220632 pm/V
                   d(CGS) = d(A.U.)/(4PI*1.7152535)  10**(-7) esu

 FIELD INTENSITY: 1 A.U. = 0.514220632*10**(11) V/m = 1.7152535*10**7 esu
 BEWARE:                CHI(2)=P/(E0*F**2)   (MKS)
                        CHI(2)=P/F**2        (CGS)
 WHERE P IS THE POLARIZATION VECTOR AND F IS THE APPLIED ELECTRIC FIELD.
 CONSISTENCY IS  PRESERVED BY MULTIPLYING THE CGS VALUE TIMES THE PERMITTIVITY
 OF THE VACUUM, E0 (CONVERSION FACTORS FROM www.physics.nist.gov/constants).
 IN PARENTHESIS: BETA BEFORE SYMMETRIZATION.

 *******************************************************************************


 GCALCO - MAX INDICES DIRECT LATTICE VECTOR    14    14    16
 NO.OF VECTORS CREATED 6999 STARS  487 RMAX   199.91208 BOHR

 CAPPA:IS1  3;IS2  3;IS3  3; K PTS MONK NET   6; SYMMOPS:K SPACE   8;G SPACE   4

 TTTTTTTTTTTTTTTTTTTTTTTTTTTTTT END         TELAPSE   174486.27 TCPU   172834.46
 EEEEEEEEEE TERMINATION  DATE 03 12 2023 TIME 04:07:45.1
NODE    0 CPU TIME =    172834.463
NODE    1 CPU TIME =    173252.215
NODE    2 CPU TIME =    173399.210
NODE    3 CPU TIME =    173283.695
NODE    4 CPU TIME =    173190.860
NODE    5 CPU TIME =    173256.120
NODE    6 CPU TIME =    173265.784
NODE    7 CPU TIME =    173340.407
NODE    8 CPU TIME =    173070.997
NODE    9 CPU TIME =    173224.399
NODE   10 CPU TIME =    172330.872
NODE   11 CPU TIME =    172343.954
NODE   12 CPU TIME =    172290.514
NODE   13 CPU TIME =    172268.002
NODE   14 CPU TIME =    172496.774
NODE   15 CPU TIME =    172272.520
NODE   16 CPU TIME =    172116.469
NODE   17 CPU TIME =    172245.826
NODE   18 CPU TIME =    172358.632
NODE   19 CPU TIME =    172271.038
NODE   20 CPU TIME =    171965.128
NODE   21 CPU TIME =    172242.088
NODE   22 CPU TIME =    172370.302
NODE   23 CPU TIME =    171963.232
    TOTAL CPU TIME =   4143653.498
trying normal rsh (/usr/bin/rsh)
exec: No such file or directory
trying normal rsh (/usr/bin/rsh)
exec: No such file or directory
trying normal rsh (/usr/bin/rsh)
exec: No such file or directory
trying normal rsh (/usr/bin/rsh)
exec: No such file or directory
