Loading crystal17/1.0.2/intel/19.0
  Loading requirement: intel/19.0 ompi/4.0.1/intel/19.0
          64 PROCESSORS WORKING

         
 *******************************************************************************
 *                                                                             *
 *                               CRYSTAL17                                     *
 *                      public : 1.0.2 - March 1st, 2018                       *
 *                       HTTP://WWW.CRYSTAL.UNITO.IT                           *
 *                                                                             *
 *                              MAIN AUTHORS                                   *
 *                                                                             *
 *  R. DOVESI(1,11), V.R. SAUNDERS(2), C. ROETTI(1,11), R. ORLANDO(1,11),      *
 *  C.M. ZICOVICH-WILSON(1,3), F. PASCALE(4), B. CIVALLERI(1,11),              *
 *  K. DOLL(5), N.M. HARRISON(2,6), I.J. BUSH(7), Ph. D'ARCO(8),               *
 *  M. LLUNELL(9), M. CAUSA'(10), Y. NOEL(8), L. MASCHIO(1,11), A. ERBA(1,11)  *
 *  M. RE'RAT(14), S. CASASSA(1,11)                                            *
 *                                                                             *
 *        CONTRIBUTIONS TO THE CODE HAVE ALSO BEEN GIVEN BY                    *
 *                                                                             *
 *  M. FERRABONE(1,11), M. DE LA PIERRE(1,11), M. FERRERO(1,11),               *
 *  J. BAIMA(1,11), E. ALBANESE(1,11), M.F. PEINTINGER(12), R. BAST(13),       *
 *  B. KIRTMAN(15), V. LACIVITA(1,11), R. DEMICHELIS(1,16)                     *
 *  G. BRANDEBURG(17), S. SALUSTRO(1,11), G. SANSONE(1,11)                     *
 *  M.T. RUGGIERO(18)                                                          *
 *                                                                             *
 * (1) THEORETICAL CHEMISTRY GROUP - UNIVERSITA' DI TORINO - TORINO (ITALY)    *
 * (2) COMPUTATIONAL SCIENCE & ENGINEERING DEPARTMENT - STFC DARESBURY (UK)    *
 * (3) UNIVERSIDAD AUTONOMA DEL ESTADO DE MORELOS - CUERNAVACA (MEXICO)        *
 * (4) UNIVERSITE' DE LORRAINE - NANCY (FRANCE)                                *
 * (5) UNIVERSITAET STUTTGART- STUTTGART (GERMANY)                             *
 * (6) IMPERIAL COLLEGE - LONDON (UK)                                          *
 * (7) OXFORD E-RESEARCH CENTRE - OXFORD (UK)                                  *
 * (8) UPMC - SORBONNE UNIVERSITES - PARIS (FRANCE)                            *
 * (9) UNIVERSIDAD DE BARCELONA - BARCELONA (SPAIN)                            *
 *(10) UNIVERSITA' DI NAPOLI "FEDERICO II" - NAPOLI (ITALY)                    *
 *(11) NIS - NANOSTRUCTURED INTERFACES AND SURFACES - TORINO (ITALY)           *
 *(12) MPI FUER CHEMISCHE ENERGIEKONVERSION - MUELHEIM AN DER RUHR (GERMANY)   *
 *(13) UNIVERSITY OF TROMSO - TROMSO (NORWAY)                                  *
 *(14) UNIVERSITE' DE PAU ET DES PAYS DE L'ADOUR - PAU (FRANCE)                *
 *(15) UNIVERSITY OF CALIFORNIA SANTA BARBARA - SANTA BARBARA (USA)            *
 *(16) CURTIN UNIVERSITY - PERTH (AUSTRALIA)                                   *
 *(17) UNIVERSITY COLLEGE LONDON - LONDON (UK)                                 *
 *(18) CAMBRIDGE UNIVERSITY - CAMBRIDGE (UK)                                   *
 *                                                                             *
 *******************************************************************************
 EEEEEEEEEE STARTING  DATE 09 03 2024 TIME 10:32:04.3
 Z:\home\sanoj\Downloads\tmp_p\newconn.mol                                       

 CRYSTAL CALCULATION
 (INPUT ACCORDING TO THE INTERNATIONAL TABLES FOR X-RAY CRYSTALLOGRAPHY)
 CRYSTAL FAMILY                       :  TETRAGONAL  
 CRYSTAL CLASS  (GROTH - 1921)        :  TETRAGONAL DISPHENOIDAL              

 SPACE GROUP (NONCENTROSYMMETRIC)     :  I -4            

 LATTICE PARAMETERS  (ANGSTROMS AND DEGREES) - CONVENTIONAL CELL
        A           B           C        ALPHA        BETA       GAMMA
    11.76632    11.76632    11.81253    90.00000    90.00000    90.00000


 NUMBER OF IRREDUCIBLE ATOMS IN THE CONVENTIONAL CELL:   17

 INPUT COORDINATES

 ATOM AT. N.              COORDINATES
   1   1     1.078200000000E-01  7.870300000000E-01  3.778200000000E-01
   2   1     4.689400000000E-01  8.547500000000E-01  4.065100000000E-01
   3   6     2.848100000000E-01  8.393200000000E-01  3.893700000000E-01
   4   6     2.635000000000E-01 -3.968000000000E-02  3.857700000000E-01
   5   6     1.964500000000E-01  7.603200000000E-01  3.816200000000E-01
   6   6     3.391200000000E-01  6.130300000000E-01  3.684000000000E-01
   7   6     3.969100000000E-01  7.979400000000E-01  3.923400000000E-01
   8   6     7.750600000000E-01  3.536500000000E-01  3.752900000000E-01
   9   7     3.434300000000E-01  3.353000000000E-02  3.451300000000E-01
  10   7     2.954200000000E-01  1.407600000000E-01  3.515100000000E-01
  11   7     1.669900000000E-01  1.851000000000E-02  4.149300000000E-01
  12   7     1.909500000000E-01  1.316900000000E-01  3.911700000000E-01
  13   7     4.227900000000E-01  6.879100000000E-01  3.789500000000E-01
  14  30     0.000000000000E+00  5.000000000000E-01  7.500000000000E-01
  15  30     0.000000000000E+00  0.000000000000E+00  5.000000000000E-01
  16  35     1.129000000000E-01  5.350600000000E-01  3.751200000000E-01
  17  35     3.706500000000E-01  4.567800000000E-01  3.443800000000E-01

 *******************************************************************************

 << INFORMATION >>: FROM NOW ON, ALL COORDINATES REFER TO THE PRIMITIVE CELL

 *******************************************************************************

 LATTICE PARAMETERS  (ANGSTROMS AND DEGREES) - PRIMITIVE CELL
       A          B          C        ALPHA      BETA     GAMMA        VOLUME
   10.20329   10.20329   10.20329   109.57725 109.57725 109.25937    817.700776

 COORDINATES OF THE EQUIVALENT ATOMS (FRACTIONAL UNITS)

 N. ATOM EQUIV AT. N.          X                  Y                  Z

   1   1   1    1 H     1.64850000000E-01  4.85640000000E-01 -1.05150000000E-01
   2   1   2    1 H    -4.09210000000E-01  2.70000000000E-01  1.05150000000E-01
   3   1   3    1 H    -4.85640000000E-01  4.09210000000E-01 -3.20790000000E-01
   4   1   4    1 H    -2.70000000000E-01 -1.64850000000E-01  3.20790000000E-01

   5   2   1    1 H     2.61260000000E-01 -1.24550000000E-01  3.23690000000E-01
   6   2   2    1 H    -4.48240000000E-01 -6.24300000000E-02 -3.23690000000E-01
   7   2   3    1 H     1.24550000000E-01  4.48240000000E-01  3.85810000000E-01
   8   2   4    1 H     6.24300000000E-02 -2.61260000000E-01 -3.85810000000E-01

   9   3   1    6 C     2.28690000000E-01 -3.25820000000E-01  1.24130000000E-01
  10   3   2    6 C    -4.49950000000E-01  1.04560000000E-01 -1.24130000000E-01
  11   3   3    6 C     3.25820000000E-01  4.49950000000E-01 -4.45490000000E-01
  12   3   4    6 C    -1.04560000000E-01 -2.28690000000E-01  4.45490000000E-01

  13   4   1    6 C     3.46090000000E-01 -3.50730000000E-01  2.23820000000E-01
  14   4   2    6 C     4.25450000000E-01  1.22270000000E-01 -2.23820000000E-01
  15   4   3    6 C     3.50730000000E-01 -4.25450000000E-01 -3.03180000000E-01
  16   4   4    6 C    -1.22270000000E-01 -3.46090000000E-01  3.03180000000E-01

  17   5   1    6 C     1.41940000000E-01 -4.21930000000E-01 -4.32300000000E-02
  18   5   2    6 C    -3.78700000000E-01  1.85170000000E-01  4.32300000000E-02
  19   5   3    6 C     4.21930000000E-01  3.78700000000E-01 -4.36130000000E-01
  20   5   4    6 C    -1.85170000000E-01 -1.41940000000E-01  4.36130000000E-01

  21   6   1    6 C    -1.85700000000E-02 -2.92480000000E-01 -4.78500000000E-02
  22   6   2    6 C    -2.44630000000E-01  2.92800000000E-02  4.78500000000E-02
  23   6   3    6 C     2.92480000000E-01  2.44630000000E-01  2.73910000000E-01
  24   6   4    6 C    -2.92800000000E-02  1.85700000000E-02 -2.73910000000E-01

  25   7   1    6 C     1.90280000000E-01 -2.10750000000E-01  1.94850000000E-01
  26   7   2    6 C    -4.05600000000E-01 -4.57000000000E-03 -1.94850000000E-01
  27   7   3    6 C     2.10750000000E-01  4.05600000000E-01  4.01030000000E-01
  28   7   4    6 C     4.57000000000E-03 -1.90280000000E-01 -4.01030000000E-01

  29   8   1    6 C    -2.71060000000E-01  1.50350000000E-01  1.28710000000E-01
  30   8   2    6 C     2.16400000000E-02 -3.99770000000E-01 -1.28710000000E-01
  31   8   3    6 C    -1.50350000000E-01 -2.16400000000E-02 -4.21410000000E-01
  32   8   4    6 C     3.99770000000E-01  2.71060000000E-01  4.21410000000E-01

  33   9   1    7 N     3.78660000000E-01 -3.11440000000E-01  3.76960000000E-01
  34   9   2    7 N     3.11600000000E-01  1.70000000000E-03 -3.76960000000E-01
  35   9   3    7 N     3.11440000000E-01 -3.11600000000E-01 -3.09900000000E-01
  36   9   4    7 N    -1.70000000000E-03 -3.78660000000E-01  3.09900000000E-01

  37  10   1    7 N     4.92270000000E-01 -3.53070000000E-01  4.36180000000E-01
  38  10   2    7 N     2.10750000000E-01  5.60900000000E-02 -4.36180000000E-01
  39  10   3    7 N     3.53070000000E-01 -2.10750000000E-01 -1.54660000000E-01
  40  10   4    7 N    -5.60900000000E-02 -4.92270000000E-01  1.54660000000E-01

  41  11   1    7 N     4.33440000000E-01 -4.18080000000E-01  1.85500000000E-01
  42  11   2    7 N     3.96420000000E-01  2.47940000000E-01 -1.85500000000E-01
  43  11   3    7 N     4.18080000000E-01 -3.96420000000E-01 -1.48480000000E-01
  44  11   4    7 N    -2.47940000000E-01 -4.33440000000E-01  1.48480000000E-01

  45  12   1    7 N    -4.77140000000E-01 -4.17880000000E-01  3.22640000000E-01
  46  12   2    7 N     2.59480000000E-01  2.00220000000E-01 -3.22640000000E-01
  47  12   3    7 N     4.17880000000E-01 -2.59480000000E-01 -5.92600000000E-02
  48  12   4    7 N    -2.00220000000E-01  4.77140000000E-01  5.92600000000E-02

  49  13   1    7 N     6.68600000000E-02 -1.98260000000E-01  1.10700000000E-01
  50  13   2    7 N    -3.08960000000E-01 -4.38400000000E-02 -1.10700000000E-01
  51  13   3    7 N     1.98260000000E-01  3.08960000000E-01  2.65120000000E-01
  52  13   4    7 N     4.38400000000E-02 -6.68600000000E-02 -2.65120000000E-01

  53  14   1   30 ZN    2.50000000000E-01 -2.50000000000E-01 -5.00000000000E-01

  54  15   1   30 ZN   -5.00000000000E-01 -5.00000000000E-01  0.00000000000E+00

  55  16   1   35 BR   -8.98200000000E-02  4.88020000000E-01 -3.52040000000E-01
  56  16   2   35 BR   -1.59940000000E-01  2.62220000000E-01  3.52040000000E-01
  57  16   3   35 BR   -4.88020000000E-01  1.59940000000E-01  4.22160000000E-01
  58  16   4   35 BR   -2.62220000000E-01  8.98200000000E-02 -4.22160000000E-01

  59  17   1   35 BR   -1.98840000000E-01 -2.84970000000E-01 -1.72570000000E-01
  60  17   2   35 BR   -1.12400000000E-01 -2.62700000000E-02  1.72570000000E-01
  61  17   3   35 BR    2.84970000000E-01  1.12400000000E-01  8.61300000000E-02
  62  17   4   35 BR    2.62700000000E-02  1.98840000000E-01 -8.61300000000E-02

 NUMBER OF SYMMETRY OPERATORS         :    4
 *******************************************************************************
 * GEOMETRY EDITING - INPUT COORDINATES ARE GIVEN IN ANGSTROM         
 *******************************************************************************

 GEOMETRY NOW FULLY CONSISTENT WITH THE GROUP

 GCALCO - MAX INDICES DIRECT LATTICE VECTOR    14    14    15
 NO.OF VECTORS CREATED 6999 STARS  490 RMAX   209.84922 BOHR

 GEOMETRY FOR WAVE FUNCTION - DIMENSIONALITY OF THE SYSTEM    3
 (NON PERIODIC DIRECTION: LATTICE PARAMETER FORMALLY SET TO 500)
 *******************************************************************************
 LATTICE PARAMETERS (ANGSTROMS AND DEGREES) - BOHR = 0.5291772083 ANGSTROM
 PRIMITIVE CELL - CENTRING CODE 6/0 VOLUME=   817.700776 - DENSITY  2.712 g/cm^3
         A              B              C           ALPHA      BETA       GAMMA 
    10.20329047    10.20329047    10.20329047   109.577252 109.577252 109.259366
 *******************************************************************************
 ATOMS IN THE ASYMMETRIC UNIT   17 - ATOMS IN THE UNIT CELL:   62
     ATOM                 X/A                 Y/B                 Z/C    
 *******************************************************************************
      1 T   1 H     1.648500000000E-01  4.856400000000E-01 -1.051500000000E-01
      2 F   1 H    -4.092100000000E-01  2.700000000000E-01  1.051500000000E-01
      3 F   1 H    -4.856400000000E-01  4.092100000000E-01 -3.207900000000E-01
      4 F   1 H    -2.700000000000E-01 -1.648500000000E-01  3.207900000000E-01
      5 T   1 H     2.612600000000E-01 -1.245500000000E-01  3.236900000000E-01
      6 F   1 H    -4.482400000000E-01 -6.243000000000E-02 -3.236900000000E-01
      7 F   1 H     1.245500000000E-01  4.482400000000E-01  3.858100000000E-01
      8 F   1 H     6.243000000000E-02 -2.612600000000E-01 -3.858100000000E-01
      9 T   6 C     2.286900000000E-01 -3.258200000000E-01  1.241300000000E-01
     10 F   6 C    -4.499500000000E-01  1.045600000000E-01 -1.241300000000E-01
     11 F   6 C     3.258200000000E-01  4.499500000000E-01 -4.454900000000E-01
     12 F   6 C    -1.045600000000E-01 -2.286900000000E-01  4.454900000000E-01
     13 T   6 C     3.460900000000E-01 -3.507300000000E-01  2.238200000000E-01
     14 F   6 C     4.254500000000E-01  1.222700000000E-01 -2.238200000000E-01
     15 F   6 C     3.507300000000E-01 -4.254500000000E-01 -3.031800000000E-01
     16 F   6 C    -1.222700000000E-01 -3.460900000000E-01  3.031800000000E-01
     17 T   6 C     1.419400000000E-01 -4.219300000000E-01 -4.323000000000E-02
     18 F   6 C    -3.787000000000E-01  1.851700000000E-01  4.323000000000E-02
     19 F   6 C     4.219300000000E-01  3.787000000000E-01 -4.361300000000E-01
     20 F   6 C    -1.851700000000E-01 -1.419400000000E-01  4.361300000000E-01
     21 T   6 C    -1.857000000000E-02 -2.924800000000E-01 -4.785000000000E-02
     22 F   6 C    -2.446300000000E-01  2.928000000000E-02  4.785000000000E-02
     23 F   6 C     2.924800000000E-01  2.446300000000E-01  2.739100000000E-01
     24 F   6 C    -2.928000000000E-02  1.857000000000E-02 -2.739100000000E-01
     25 T   6 C     1.902800000000E-01 -2.107500000000E-01  1.948500000000E-01
     26 F   6 C    -4.056000000000E-01 -4.570000000000E-03 -1.948500000000E-01
     27 F   6 C     2.107500000000E-01  4.056000000000E-01  4.010300000000E-01
     28 F   6 C     4.570000000000E-03 -1.902800000000E-01 -4.010300000000E-01
     29 T   6 C    -2.710600000000E-01  1.503500000000E-01  1.287100000000E-01
     30 F   6 C     2.164000000000E-02 -3.997700000000E-01 -1.287100000000E-01
     31 F   6 C    -1.503500000000E-01 -2.164000000000E-02 -4.214100000000E-01
     32 F   6 C     3.997700000000E-01  2.710600000000E-01  4.214100000000E-01
     33 T   7 N     3.786600000000E-01 -3.114400000000E-01  3.769600000000E-01
     34 F   7 N     3.116000000000E-01  1.700000000000E-03 -3.769600000000E-01
     35 F   7 N     3.114400000000E-01 -3.116000000000E-01 -3.099000000000E-01
     36 F   7 N    -1.700000000000E-03 -3.786600000000E-01  3.099000000000E-01
     37 T   7 N     4.922700000000E-01 -3.530700000000E-01  4.361800000000E-01
     38 F   7 N     2.107500000000E-01  5.609000000000E-02 -4.361800000000E-01
     39 F   7 N     3.530700000000E-01 -2.107500000000E-01 -1.546600000000E-01
     40 F   7 N    -5.609000000000E-02 -4.922700000000E-01  1.546600000000E-01
     41 T   7 N     4.334400000000E-01 -4.180800000000E-01  1.855000000000E-01
     42 F   7 N     3.964200000000E-01  2.479400000000E-01 -1.855000000000E-01
     43 F   7 N     4.180800000000E-01 -3.964200000000E-01 -1.484800000000E-01
     44 F   7 N    -2.479400000000E-01 -4.334400000000E-01  1.484800000000E-01
     45 T   7 N    -4.771400000000E-01 -4.178800000000E-01  3.226400000000E-01
     46 F   7 N     2.594800000000E-01  2.002200000000E-01 -3.226400000000E-01
     47 F   7 N     4.178800000000E-01 -2.594800000000E-01 -5.926000000000E-02
     48 F   7 N    -2.002200000000E-01  4.771400000000E-01  5.926000000000E-02
     49 T   7 N     6.686000000000E-02 -1.982600000000E-01  1.107000000000E-01
     50 F   7 N    -3.089600000000E-01 -4.384000000000E-02 -1.107000000000E-01
     51 F   7 N     1.982600000000E-01  3.089600000000E-01  2.651200000000E-01
     52 F   7 N     4.384000000000E-02 -6.686000000000E-02 -2.651200000000E-01
     53 T  30 ZN    2.500000000000E-01 -2.500000000000E-01 -5.000000000000E-01
     54 T  30 ZN   -5.000000000000E-01 -5.000000000000E-01  0.000000000000E+00
     55 T  35 BR   -8.982000000000E-02  4.880200000000E-01 -3.520400000000E-01
     56 F  35 BR   -1.599400000000E-01  2.622200000000E-01  3.520400000000E-01
     57 F  35 BR   -4.880200000000E-01  1.599400000000E-01  4.221600000000E-01
     58 F  35 BR   -2.622200000000E-01  8.982000000000E-02 -4.221600000000E-01
     59 T  35 BR   -1.988400000000E-01 -2.849700000000E-01 -1.725700000000E-01
     60 F  35 BR   -1.124000000000E-01 -2.627000000000E-02  1.725700000000E-01
     61 F  35 BR    2.849700000000E-01  1.124000000000E-01  8.613000000000E-02
     62 F  35 BR    2.627000000000E-02  1.988400000000E-01 -8.613000000000E-02

 TRANSFORMATION MATRIX PRIMITIVE-CRYSTALLOGRAPHIC CELL
  0.0000  1.0000  1.0000  1.0000  0.0000  1.0000  1.0000  1.0000  0.0000

 *******************************************************************************
 CRYSTALLOGRAPHIC CELL (VOLUME=       1635.40155172)
         A              B              C           ALPHA      BETA       GAMMA 
    11.76632276    11.76632276    11.81252908    90.000000  90.000000  90.000000

 COORDINATES IN THE CRYSTALLOGRAPHIC CELL
     ATOM                 X/A                 Y/B                 Z/C    
 *******************************************************************************
      1 T   1 H     1.078200000000E-01 -2.129700000000E-01  3.778200000000E-01
      2 F   1 H    -1.078200000000E-01  2.129700000000E-01  3.778200000000E-01
      3 F   1 H    -2.129700000000E-01 -1.078200000000E-01 -3.778200000000E-01
      4 F   1 H     2.129700000000E-01  1.078200000000E-01 -3.778200000000E-01
      5 T   1 H    -3.106000000000E-02  3.547500000000E-01 -9.349000000000E-02
      6 F   1 H     3.106000000000E-02 -3.547500000000E-01 -9.349000000000E-02
      7 F   1 H     3.547500000000E-01  3.106000000000E-02  9.349000000000E-02
      8 F   1 H    -3.547500000000E-01 -3.106000000000E-02  9.349000000000E-02
      9 T   6 C    -2.151900000000E-01  3.393200000000E-01 -1.106300000000E-01
     10 F   6 C     2.151900000000E-01 -3.393200000000E-01 -1.106300000000E-01
     11 F   6 C     3.393200000000E-01  2.151900000000E-01  1.106300000000E-01
     12 F   6 C    -3.393200000000E-01 -2.151900000000E-01  1.106300000000E-01
     13 T   6 C     2.635000000000E-01 -3.968000000000E-02  3.857700000000E-01
     14 F   6 C    -2.635000000000E-01  3.968000000000E-02  3.857700000000E-01
     15 F   6 C    -3.968000000000E-02 -2.635000000000E-01 -3.857700000000E-01
     16 F   6 C     3.968000000000E-02  2.635000000000E-01 -3.857700000000E-01
     17 T   6 C    -3.035500000000E-01  2.603200000000E-01 -1.183800000000E-01
     18 F   6 C     3.035500000000E-01 -2.603200000000E-01 -1.183800000000E-01
     19 F   6 C     2.603200000000E-01  3.035500000000E-01  1.183800000000E-01
     20 F   6 C    -2.603200000000E-01 -3.035500000000E-01  1.183800000000E-01
     21 T   6 C    -1.608800000000E-01  1.130300000000E-01 -1.316000000000E-01
     22 F   6 C     1.608800000000E-01 -1.130300000000E-01 -1.316000000000E-01
     23 F   6 C     1.130300000000E-01  1.608800000000E-01  1.316000000000E-01
     24 F   6 C    -1.130300000000E-01 -1.608800000000E-01  1.316000000000E-01
     25 T   6 C    -1.030900000000E-01  2.979400000000E-01 -1.076600000000E-01
     26 F   6 C     1.030900000000E-01 -2.979400000000E-01 -1.076600000000E-01
     27 F   6 C     2.979400000000E-01  1.030900000000E-01  1.076600000000E-01
     28 F   6 C    -2.979400000000E-01 -1.030900000000E-01  1.076600000000E-01
     29 T   6 C     2.750600000000E-01 -1.463500000000E-01 -1.247100000000E-01
     30 F   6 C    -2.750600000000E-01  1.463500000000E-01 -1.247100000000E-01
     31 F   6 C    -1.463500000000E-01 -2.750600000000E-01  1.247100000000E-01
     32 F   6 C     1.463500000000E-01  2.750600000000E-01  1.247100000000E-01
     33 T   7 N     3.434300000000E-01  3.353000000000E-02  3.451300000000E-01
     34 F   7 N    -3.434300000000E-01 -3.353000000000E-02  3.451300000000E-01
     35 F   7 N     3.353000000000E-02 -3.434300000000E-01 -3.451300000000E-01
     36 F   7 N    -3.353000000000E-02  3.434300000000E-01 -3.451300000000E-01
     37 T   7 N    -2.045800000000E-01 -3.592400000000E-01 -1.484900000000E-01
     38 F   7 N     2.045800000000E-01  3.592400000000E-01 -1.484900000000E-01
     39 F   7 N    -3.592400000000E-01  2.045800000000E-01  1.484900000000E-01
     40 F   7 N     3.592400000000E-01 -2.045800000000E-01  1.484900000000E-01
     41 T   7 N     1.669900000000E-01  1.851000000000E-02  4.149300000000E-01
     42 F   7 N    -1.669900000000E-01 -1.851000000000E-02  4.149300000000E-01
     43 F   7 N     1.851000000000E-02 -1.669900000000E-01 -4.149300000000E-01
     44 F   7 N    -1.851000000000E-02  1.669900000000E-01 -4.149300000000E-01
     45 T   7 N     1.909500000000E-01  1.316900000000E-01  3.911700000000E-01
     46 F   7 N    -1.909500000000E-01 -1.316900000000E-01  3.911700000000E-01
     47 F   7 N     1.316900000000E-01 -1.909500000000E-01 -3.911700000000E-01
     48 F   7 N    -1.316900000000E-01  1.909500000000E-01 -3.911700000000E-01
     49 T   7 N    -7.721000000000E-02  1.879100000000E-01 -1.210500000000E-01
     50 F   7 N     7.721000000000E-02 -1.879100000000E-01 -1.210500000000E-01
     51 F   7 N     1.879100000000E-01  7.721000000000E-02  1.210500000000E-01
     52 F   7 N    -1.879100000000E-01 -7.721000000000E-02  1.210500000000E-01
     53 T  30 ZN   -5.000000000000E-01  0.000000000000E+00  2.500000000000E-01
     54 T  30 ZN    0.000000000000E+00  0.000000000000E+00 -5.000000000000E-01
     55 T  35 BR   -3.871000000000E-01  3.506000000000E-02 -1.248800000000E-01
     56 F  35 BR    3.871000000000E-01 -3.506000000000E-02 -1.248800000000E-01
     57 F  35 BR    3.506000000000E-02  3.871000000000E-01  1.248800000000E-01
     58 F  35 BR   -3.506000000000E-02 -3.871000000000E-01  1.248800000000E-01
     59 T  35 BR   -1.293500000000E-01 -4.322000000000E-02 -1.556200000000E-01
     60 F  35 BR    1.293500000000E-01  4.322000000000E-02 -1.556200000000E-01
     61 F  35 BR   -4.322000000000E-02  1.293500000000E-01  1.556200000000E-01
     62 F  35 BR    4.322000000000E-02 -1.293500000000E-01  1.556200000000E-01

 T = ATOM BELONGING TO THE ASYMMETRIC UNIT

 ****    4 SYMMOPS - TRANSLATORS IN FRACTIONAL UNITS
 **** MATRICES AND TRANSLATORS IN THE CRYSTALLOGRAPHIC REFERENCE FRAME
   V INV                    ROTATION MATRICES                   TRANSLATORS
   1   1  1.00  0.00  0.00  0.00  1.00  0.00  0.00  0.00  1.00  0.00  0.00  0.00
   2   2 -0.00  1.00 -1.00  1.00 -0.00 -1.00  0.00  0.00 -1.00  0.00  0.00  0.00
   3   4  0.00 -1.00 -0.00  0.00 -1.00  1.00  1.00 -1.00  0.00  0.00  0.00  0.00
   4   3 -1.00  0.00  1.00 -1.00  0.00 -0.00 -1.00  1.00  0.00  0.00  0.00  0.00

 DIRECT LATTICE VECTORS CARTESIAN COMPONENTS (ANGSTROM)
          X                    Y                    Z
  -0.588316138120E+01   0.588316138120E+01   0.590626454140E+01
   0.588316138120E+01  -0.588316138120E+01   0.590626454140E+01
   0.588316138120E+01   0.588316138120E+01  -0.590626454140E+01


 CARTESIAN COORDINATES - PRIMITIVE CELL
 *******************************************************************************
 *      ATOM          X(ANGSTROM)         Y(ANGSTROM)         Z(ANGSTROM)
 *******************************************************************************
    1     1 H     1.268644920242E+00 -2.505873758708E+00  4.463009738063E+00
    2     1 H    -1.268644920242E+00  2.505873758708E+00  4.463009738063E+00
    3     1 H    -2.505873758708E+00 -1.268644920242E+00 -4.463009738063E+00
    4     1 H     2.505873758708E+00  1.268644920242E+00 -4.463009738063E+00
    5     1 H    -3.654619850001E-01  4.174102999961E+00 -1.104353343951E+00
    6     1 H     3.654619850001E-01 -4.174102999961E+00 -1.104353343951E+00
    7     1 H     4.174102999961E+00  3.654619850001E-01  1.104353343951E+00
    8     1 H    -4.174102999961E+00 -3.654619850001E-01  1.104353343951E+00
    9     6 C    -2.531994995241E+00  3.992548639738E+00 -1.306820092430E+00
   10     6 C     2.531994995241E+00 -3.992548639738E+00 -1.306820092430E+00
   11     6 C     3.992548639738E+00  2.531994995241E+00  1.306820092430E+00
   12     6 C    -3.992548639738E+00 -2.531994995241E+00  1.306820092430E+00
   13     6 C     3.100426047892E+00 -4.668876872120E-01  4.556919344272E+00
   14     6 C    -3.100426047892E+00  4.668876872120E-01  4.556919344272E+00
   15     6 C    -4.668876872120E-01 -3.100426047892E+00 -4.556919344272E+00
   16     6 C     4.668876872120E-01  3.100426047892E+00 -4.556919344272E+00
   17     6 C    -3.571667274527E+00  3.063009141508E+00 -1.398367192822E+00
   18     6 C     3.571667274527E+00 -3.063009141508E+00 -1.398367192822E+00
   19     6 C     3.063009141508E+00  3.571667274527E+00  1.398367192822E+00
   20     6 C    -3.063009141508E+00 -3.571667274527E+00  1.398367192822E+00
   21     6 C    -1.892966006015E+00  1.329947461834E+00 -1.554528827296E+00
   22     6 C     1.892966006015E+00 -1.329947461834E+00 -1.554528827296E+00
   23     6 C     1.329947461834E+00  1.892966006015E+00  1.554528827296E+00
   24     6 C    -1.329947461834E+00 -1.892966006015E+00  1.554528827296E+00
   25     6 C    -1.212990213576E+00  3.505658203829E+00 -1.271736881054E+00
   26     6 C     1.212990213576E+00 -3.505658203829E+00 -1.271736881054E+00
   27     6 C     3.505658203829E+00  1.212990213576E+00  1.271736881054E+00
   28     6 C    -3.505658203829E+00 -1.212990213576E+00  1.271736881054E+00
   29     6 C     3.236444739026E+00 -1.722001336277E+00 -1.473140501916E+00
   30     6 C    -3.236444739026E+00  1.722001336277E+00 -1.473140501916E+00
   31     6 C    -1.722001336277E+00 -3.236444739026E+00  1.473140501916E+00
   32     6 C     1.722001336277E+00  3.236444739026E+00  1.473140501916E+00
   33     7 N     4.040908226291E+00  3.945248022233E-01  4.076858162347E+00
   34     7 N    -4.040908226291E+00 -3.945248022233E-01  4.076858162347E+00
   35     7 N     3.945248022233E-01 -4.040908226291E+00 -4.076858162347E+00
   36     7 N    -3.945248022233E-01  4.040908226291E+00 -4.076858162347E+00
   37     7 N    -2.407154310732E+00 -4.226933789165E+00 -1.754042443505E+00
   38     7 N     2.407154310732E+00  4.226933789165E+00 -1.754042443505E+00
   39     7 N    -4.226933789165E+00  2.407154310732E+00  1.754042443505E+00
   40     7 N     4.226933789165E+00 -2.407154310732E+00  1.754042443505E+00
   41     7 N     1.964858238093E+00  2.177946343320E-01  4.901372692326E+00
   42     7 N    -1.964858238093E+00 -2.177946343320E-01  4.901372692326E+00
   43     7 N     2.177946343320E-01 -1.964858238093E+00 -4.901372692326E+00
   44     7 N    -2.177946343320E-01  1.964858238093E+00 -4.901372692326E+00
   45     7 N     2.246779331480E+00  1.549507044580E+00  4.620707001319E+00
   46     7 N    -2.246779331480E+00 -1.549507044580E+00  4.620707001319E+00
   47     7 N     1.549507044580E+00 -2.246779331480E+00 -4.620707001319E+00
   48     7 N    -1.549507044580E+00  2.246779331480E+00 -4.620707001319E+00
   49     7 N    -9.084777804849E-01  2.211009710283E+00 -1.429906645473E+00
   50     7 N     9.084777804849E-01 -2.211009710283E+00 -1.429906645473E+00
   51     7 N     2.211009710283E+00  9.084777804849E-01  1.429906645473E+00
   52     7 N    -2.211009710283E+00 -9.084777804849E-01  1.429906645473E+00
   53    30 ZN    5.883161381200E+00  0.000000000000E+00 -8.859396812100E+00
   54    30 ZN    0.000000000000E+00  0.000000000000E+00  5.906264541400E+00
   55    35 BR   -4.554743541325E+00  4.125272760497E-01 -1.475148631860E+00
   56    35 BR    4.554743541325E+00 -4.125272760497E-01 -1.475148631860E+00
   57    35 BR    4.125272760497E-01  4.554743541325E+00  1.475148631860E+00
   58    35 BR   -4.125272760497E-01 -4.554743541325E+00  1.475148631860E+00
   59    35 BR   -1.521973849316E+00 -5.085404697909E-01 -1.838265775865E+00
   60    35 BR    1.521973849316E+00  5.085404697909E-01 -1.838265775865E+00
   61    35 BR   -5.085404697909E-01  1.521973849316E+00  1.838265775865E+00
   62    35 BR    5.085404697909E-01 -1.521973849316E+00  1.838265775865E+00

 *******************************************************************************
 STARTING BASIS SET HANDLING 
 *******************************************************************************

 Loading internal basis set: POB-DZVPP           

 Please cite in your publication:
 Peintinger, M. F., Oliveira, D. V. and Bredow, T. (2013), Generally applicable 
 solid-state Gaussian basis sets, in preparation                                
                                                                                
                    

 *******************************************************************************
 LOCAL ATOMIC FUNCTIONS BASIS SET
 *******************************************************************************
   ATOM   X(AU)   Y(AU)   Z(AU)  N. TYPE  EXPONENT  S COEF   P COEF   D/F/G COEF
 *******************************************************************************
   1 H    2.397  -4.735   8.434
                                  1 S  
                                         2.263E+01 1.441E-02 0.000E+00 0.000E+00
                                         3.236E+00 1.072E-01 0.000E+00 0.000E+00
                                         7.304E-01 3.846E-01 0.000E+00 0.000E+00
                                  2 S  
                                         1.417E-01 1.000E+00 0.000E+00 0.000E+00
                           3-     5 P  
                                         3.944E-01 0.000E+00 1.000E+00 0.000E+00
                           6-     8 P  
                                         1.006E-01 0.000E+00 1.000E+00 0.000E+00
   2 H   -2.397   4.735   8.434
   3 H   -4.735  -2.397  -8.434
   4 H    4.735   2.397  -8.434
   5 H   -0.691   7.888  -2.087
   6 H    0.691  -7.888  -2.087
   7 H    7.888   0.691   2.087
   8 H   -7.888  -0.691   2.087
   9 C   -4.785   7.545  -2.470
                                 65 S  
                                         1.238E+03 5.457E-03 0.000E+00 0.000E+00
                                         1.863E+02 4.064E-02 0.000E+00 0.000E+00
                                         4.225E+01 1.803E-01 0.000E+00 0.000E+00
                                         1.168E+01 4.632E-01 0.000E+00 0.000E+00
                                         3.593E+00 4.409E-01 0.000E+00 0.000E+00
                                 66 S  
                                         5.281E+00 1.000E+00 0.000E+00 0.000E+00
                                 67 S  
                                         4.447E-01 1.000E+00 0.000E+00 0.000E+00
                          68-    70 P  
                                         9.468E+00 0.000E+00 3.839E-02 0.000E+00
                                         2.010E+00 0.000E+00 2.112E-01 0.000E+00
                                         5.477E-01 0.000E+00 5.133E-01 0.000E+00
                          71-    73 P  
                                         1.604E-01 0.000E+00 1.000E+00 0.000E+00
                          74-    78 D  
                                         6.070E-01 0.000E+00 0.000E+00 1.000E+00
                          79-    83 D  
                                         2.939E-01 0.000E+00 0.000E+00 1.000E+00
  10 C    4.785  -7.545  -2.470
  11 C    7.545   4.785   2.470
  12 C   -7.545  -4.785   2.470
  13 C    5.859  -0.882   8.611
  14 C   -5.859   0.882   8.611
  15 C   -0.882  -5.859  -8.611
  16 C    0.882   5.859  -8.611
  17 C   -6.749   5.788  -2.643
  18 C    6.749  -5.788  -2.643
  19 C    5.788   6.749   2.643
  20 C   -5.788  -6.749   2.643
  21 C   -3.577   2.513  -2.938
  22 C    3.577  -2.513  -2.938
  23 C    2.513   3.577   2.938
  24 C   -2.513  -3.577   2.938
  25 C   -2.292   6.625  -2.403
  26 C    2.292  -6.625  -2.403
  27 C    6.625   2.292   2.403
  28 C   -6.625  -2.292   2.403
  29 C    6.116  -3.254  -2.784
  30 C   -6.116   3.254  -2.784
  31 C   -3.254  -6.116   2.784
  32 C    3.254   6.116   2.784
  33 N    7.636   0.746   7.704
                                521 S  
                                         1.713E+03-5.393E-03 0.000E+00 0.000E+00
                                         2.576E+02-4.022E-02 0.000E+00 0.000E+00
                                         5.846E+01-1.793E-01 0.000E+00 0.000E+00
                                         1.620E+01-4.638E-01 0.000E+00 0.000E+00
                                         5.005E+00-4.417E-01 0.000E+00 0.000E+00
                                522 S  
                                         6.217E-01 1.000E+00 0.000E+00 0.000E+00
                                523 S  
                                         2.921E-01 1.000E+00 0.000E+00 0.000E+00
                         524-   526 P  
                                         1.357E+01 0.000E+00-4.007E-02 0.000E+00
                                         2.926E+00 0.000E+00-2.181E-01 0.000E+00
                                         7.993E-01 0.000E+00-5.129E-01 0.000E+00
                         527-   529 P  
                                         2.244E-01 0.000E+00 1.000E+00 0.000E+00
                         530-   534 D  
                                         3.118E-01 0.000E+00 0.000E+00 1.000E+00
  34 N   -7.636  -0.746   7.704
  35 N    0.746  -7.636  -7.704
  36 N   -0.746   7.636  -7.704
  37 N   -4.549  -7.988  -3.315
  38 N    4.549   7.988  -3.315
  39 N   -7.988   4.549   3.315
  40 N    7.988  -4.549   3.315
  41 N    3.713   0.412   9.262
  42 N   -3.713  -0.412   9.262
  43 N    0.412  -3.713  -9.262
  44 N   -0.412   3.713  -9.262
  45 N    4.246   2.928   8.732
  46 N   -4.246  -2.928   8.732
  47 N    2.928  -4.246  -8.732
  48 N   -2.928   4.246  -8.732
  49 N   -1.717   4.178  -2.702
  50 N    1.717  -4.178  -2.702
  51 N    4.178   1.717   2.702
  52 N   -4.178  -1.717   2.702
  53 ZN  11.118   0.000 -16.742
                                801 S  
                                         8.200E+04 1.421E-03 0.000E+00 0.000E+00
                                         1.231E+04 1.089E-02 0.000E+00 0.000E+00
                                         2.801E+03 5.406E-02 0.000E+00 0.000E+00
                                         7.910E+02 1.885E-01 0.000E+00 0.000E+00
                                         2.576E+02 3.835E-01 0.000E+00 0.000E+00
                                         8.881E+01 2.972E-01 0.000E+00 0.000E+00
                                802 S  
                                         1.719E+02-1.105E-01 0.000E+00 0.000E+00
                                         2.030E+01 6.461E-01 0.000E+00 0.000E+00
                                         8.346E+00 4.422E-01 0.000E+00 0.000E+00
                                803 S  
                                         1.485E+01-2.271E-01 0.000E+00 0.000E+00
                                         2.450E+00 7.243E-01 0.000E+00 0.000E+00
                                         9.985E-01 4.484E-01 0.000E+00 0.000E+00
                                804 S  
                                         1.493E+00 1.000E+00 0.000E+00 0.000E+00
                                805 S  
                                         1.830E-01 1.000E+00 0.000E+00 0.000E+00
                         806-   808 P  
                                         1.072E+03 0.000E+00 9.277E-03 0.000E+00
                                         2.527E+02 0.000E+00 6.954E-02 0.000E+00
                                         8.010E+01 0.000E+00 2.716E-01 0.000E+00
                                         2.890E+01 0.000E+00 5.340E-01 0.000E+00
                                         1.077E+01 0.000E+00 3.450E-01 0.000E+00
                         809-   811 P  
                                         5.645E+00 0.000E+00 3.413E-01 0.000E+00
                                         2.168E+00 0.000E+00 5.639E-01 0.000E+00
                                         8.054E-01 0.000E+00 2.368E-01 0.000E+00
                         812-   814 P  
                                         2.721E-01 0.000E+00 1.000E+00 0.000E+00
                         815-   819 D  
                                         5.609E+01 0.000E+00 0.000E+00 2.959E-02
                                         1.575E+01 0.000E+00 0.000E+00 1.587E-01
                                         5.312E+00 0.000E+00 0.000E+00 3.798E-01
                                         1.774E+00 0.000E+00 0.000E+00 4.690E-01
                         820-   824 D  
                                         5.073E-01 0.000E+00 0.000E+00 1.000E+00
                         825-   831 F  
                                         2.814E+00 0.000E+00 0.000E+00 1.000E+00
                         832-   838 F  
                                         1.300E+00 0.000E+00 0.000E+00 1.000E+00
  54 ZN   0.000   0.000  11.161
  55 BR  -8.607   0.780  -2.788
                                877 S  
                                         1.133E+05 1.428E-03 0.000E+00 0.000E+00
                                         1.701E+04 1.095E-02 0.000E+00 0.000E+00
                                         3.870E+03 5.442E-02 0.000E+00 0.000E+00
                                         1.093E+03 1.905E-01 0.000E+00 0.000E+00
                                         3.564E+02 3.902E-01 0.000E+00 0.000E+00
                                         1.231E+02 3.081E-01 0.000E+00 0.000E+00
                                878 S  
                                         2.367E+02-1.123E-01 0.000E+00 0.000E+00
                                         2.847E+01 6.478E-01 0.000E+00 0.000E+00
                                         1.188E+01 4.424E-01 0.000E+00 0.000E+00
                                879 S  
                                         2.127E+01-2.264E-01 0.000E+00 0.000E+00
                                         3.613E+00 7.382E-01 0.000E+00 0.000E+00
                                         1.663E+00 4.268E-01 0.000E+00 0.000E+00
                                880 S  
                                         3.641E-01 1.000E+00 0.000E+00 0.000E+00
                                881 S  
                                         1.243E-01 1.000E+00 0.000E+00 0.000E+00
                         882-   884 P  
                                         1.560E+03 0.000E+00 8.717E-03 0.000E+00
                                         3.685E+02 0.000E+00 6.624E-02 0.000E+00
                                         1.172E+02 0.000E+00 2.650E-01 0.000E+00
                                         4.265E+01 0.000E+00 5.384E-01 0.000E+00
                                         1.609E+01 0.000E+00 3.658E-01 0.000E+00
                         885-   887 P  
                                         8.635E+00 0.000E+00 3.425E-01 0.000E+00
                                         3.561E+00 0.000E+00 5.750E-01 0.000E+00
                                         1.529E+00 0.000E+00 2.433E-01 0.000E+00
                         888-   890 P  
                                         6.447E-01 0.000E+00 1.000E+00 0.000E+00
                         891-   893 P  
                                         2.103E-01 0.000E+00 1.000E+00 0.000E+00
                         894-   898 D  
                                         1.049E+02 0.000E+00 0.000E+00 2.265E-02
                                         3.028E+01 0.000E+00 0.000E+00 1.346E-01
                                         1.065E+01 0.000E+00 0.000E+00 3.647E-01
                                         3.870E+00 0.000E+00 0.000E+00 4.904E-01
                         899-   903 D  
                                         1.342E+00 0.000E+00 0.000E+00 1.000E+00
                         904-   908 D  
                                         4.101E-01 0.000E+00 0.000E+00 1.000E+00
                         909-   913 D  
                                         1.985E-01 0.000E+00 0.000E+00 1.000E+00
  56 BR   8.607  -0.780  -2.788
  57 BR   0.780   8.607   2.788
  58 BR  -0.780  -8.607   2.788
  59 BR  -2.876  -0.961  -3.474
  60 BR   2.876   0.961  -3.474
  61 BR  -0.961   2.876   3.474
  62 BR   0.961  -2.876   3.474

 *******************************************************************************
 FINISHED BASIS SET HANDLING 
 *******************************************************************************

 INFORMATION **** SET_MPP **** PCRYSTAL CALCULATION
 INFORMATION **** READM2 **** NEW DEFAULT: FOCK/KS MATRIX MIXING SET TO 30 %
 INFORMATION **** READM2 **** NEW DEFAULT: FULL DIRECT SCF MODE
 INFORMATION **** READM2 **** NEW DEFAULT: COULOMB BIPOLAR BUFFER SET TO 32 Mb
 INFORMATION **** READM2 **** NEW DEFAULT: EXCHANGE BIPOLAR BUFFER SET TO 32 Mb

 *******************************************************************************
 NEW DEFAULT: DFT INTEGRATION GRID INCREASED TO XLGRID
 NEW DEFAULT: DIIS ACCELERATOR ACTIVE
 USE KEYWORD NODIIS TO TURN IT OFF
 *******************************************************************************

 INFORMATION **** DFTD3_INPUT **** PERFORM DISPERSION CORRECTION DFT-D3(BJ) IN THE BECKE-JOHNSON DAMPING SCHEME

 PLEASE CITE:
 (1) DFT-D3 Reference
  S. Grimme, J. Antony, S. Ehrlich, and H. Krieg, J. Chem. Phys. 132 (2010), 154104
 (2) BJ-Damping Reference
  S. Grimme, S. Ehrlich, and L. Goerigk, J. Comput. Chem. 32 (2011), 1456-1465
 (3) General DFT-D Review
  S. Grimme, A. Hansen, J. G. Brandenburg, and C. Bannwarth,
  Chem. Rev. 116 (2016), 5105-5154

 INFORMATION **** TOLINTEG **** COULOMB AND EXCHANGE SERIES TOLERANCES MODIFIED
 INFORMATION **** BIPOSIZE **** COULOMB BIPOLAR BUFFER SET TO   100000000
 INFORMATION **** MAXCYCLE **** MAX NUMBER OF SCF CYCLES SET TO          50
 *******************************************************************************
 N. OF ATOMS PER CELL        62  COULOMB OVERLAP TOL         (T1) 10**  -12
 NUMBER OF SHELLS           448  COULOMB PENETRATION TOL     (T2) 10**  -12
 NUMBER OF AO              1172  EXCHANGE OVERLAP TOL        (T3) 10**   20
 N. OF ELECTRONS PER CELL   632  EXCHANGE PSEUDO OVP (F(G))  (T4) 10**   20
 CORE ELECTRONS PER CELL    348  EXCHANGE PSEUDO OVP (P(G))  (T5) 10**   20
 N. OF SYMMETRY OPERATORS     4  POLE ORDER IN MONO ZONE                  4
 *******************************************************************************
 TYPE OF CALCULATION :  RESTRICTED CLOSED SHELL
 KOHN-SHAM HAMILTONIAN

 (EXCHANGE)[CORRELATION] FUNCTIONAL:(PERDEW-BURKE-ERNZERHOF)[PERDEW-BURKE-ERNZERHOF]


 CAPPA:IS1  3;IS2  3;IS3  3; K PTS MONK NET   6; SYMMOPS:K SPACE   8;G SPACE   4

 *******************************************************************************
 MAX NUMBER OF SCF CYCLES      50  CONVERGENCE ON DELTAP        10**-16
 WEIGHT OF F(I) IN F(I+1)      30% CONVERGENCE ON ENERGY        10**- 6
 SHRINK. FACT.(MONKH.)    3  3  3  NUMBER OF K POINTS IN THE IBZ      6
 SHRINKING FACTOR(GILAT NET)    3  NUMBER OF K POINTS(GILAT NET)      6
 *******************************************************************************
 *** K POINTS COORDINATES (OBLIQUE COORDINATES IN UNITS OF IS =  3)
   1-R(  0  0  0)   2-C(  1  0  0)   3-C(  1  1  0)   4-C(  2  1  0)
   5-C(  2  1  1)   6-C(  2  2  1)

 DIRECT LATTICE VECTORS COMPON. (A.U.)     RECIP. LATTICE VECTORS COMPON. (A.U.) 
        X            Y            Z              X            Y            Z
  -11.1175638   11.1175638   11.1612225      0.0000000    0.2825792    0.2814739
   11.1175638  -11.1175638   11.1612225      0.2825792    0.0000000    0.2814739
   11.1175638   11.1175638  -11.1612225      0.2825792    0.2825792    0.0000000

 DISK SPACE FOR EIGENVECTORS (FTN 10)    15109424 REALS

 SYMMETRY ADAPTION OF THE BLOCH FUNCTIONS ENABLED
 TTTTTTTTTTTTTTTTTTTTTTTTTTTTTT gordsh1     TELAPSE       13.39 TCPU        0.10

 MATRIX SIZE: P(G) 1990800, F(G)  996218, P(G) IRR  251597, F(G) IRR  251597
 MAX G-VECTOR INDEX FOR 1- AND 2-ELECTRON INTEGRALS  59

 TTTTTTTTTTTTTTTTTTTTTTTTTTTTTT INPUT       TELAPSE       13.95 TCPU        0.65

 NEIGHBORS OF THE NON-EQUIVALENT ATOMS

 N = NUMBER OF NEIGHBORS AT DISTANCE R
    ATOM  N     R/ANG      R/AU   NEIGHBORS (ATOM LABELS AND CELL INDICES)
   1 H    1     1.0901     2.0600   17 C    0 1 0
   1 H    1     2.1541     4.0706   30 C    0 1 0
   1 H    1     2.1758     4.1116    9 C    0 1 0
   1 H    1     2.7185     5.1373   43 N    1 1 0
   1 H    1     2.7426     5.1827   13 C    0 0 0
   1 H    1     2.7554     5.2070   47 N    1 1 0

   5 H    1     1.0923     2.0642   25 C    0 0 0
   5 H    1     2.0627     3.8979   49 N    0 0 0
   5 H    1     2.1835     4.1263    9 C    0 0 0
   5 H    1     2.5441     4.8076   53 ZN   1 0 0
   5 H    1     2.6698     5.0451   34 N    0 0 1
   5 H    1     2.6705     5.0466   33 N    0-1 0

   9 C    1     1.3976     2.6411   17 C    0 0 0
   9 C    1     1.4064     2.6578   25 C    0 0 0
   9 C    1     1.4463     2.7330   13 C    0-1 0
   9 C    1     2.1758     4.1116    1 H    0-1 0
   9 C    1     2.1835     4.1263    5 H    0 0 0
   9 C    1     2.3831     4.5035   30 C    0 0 0

  13 C    1     1.3627     2.5752   33 N    0 0 0
  13 C    1     1.3700     2.5890   41 N    0 0 0
  13 C    1     1.4463     2.7330    9 C    0 1 0
  13 C    1     2.1906     4.1396   45 N    0 0 0
  13 C    1     2.1937     4.1456   37 N    1 1 1
  13 C    1     2.4740     4.6751   25 C    0 1 0

  17 C    1     1.0901     2.0600    1 H    0-1 0
  17 C    1     1.3843     2.6159   30 C    0 0 0
  17 C    1     1.3976     2.6411    9 C    0 0 0
  17 C    1     2.4032     4.5414   25 C    0 0 0
  17 C    1     2.4178     4.5690   21 C    0 0 0
  17 C    1     2.4825     4.6912   13 C    0-1 0

  21 C    1     1.3270     2.5077   49 N    0 0 0
  21 C    1     1.4019     2.6492   30 C    0 0 0
  21 C    1     1.8969     3.5846   59 BR   0 0 0
  21 C    1     2.2970     4.3406   25 C    0 0 0
  21 C    1     2.4178     4.5690   17 C    0 0 0
  21 C    1     2.7494     5.1956    9 C    0 0 0

  25 C    1     1.0923     2.0642    5 H    0 0 0
  25 C    1     1.3394     2.5310   49 N    0 0 0
  25 C    1     1.4064     2.6578    9 C    0 0 0
  25 C    1     2.2970     4.3406   21 C    0 0 0
  25 C    1     2.4032     4.5414   17 C    0 0 0
  25 C    1     2.4740     4.6751   13 C    0-1 0

  29 C    1     1.3843     2.6159   18 C    0 0 0
  29 C    1     1.4019     2.6492   22 C    0 0 0
  29 C    1     1.8581     3.5114   56 BR   0 0 0
  29 C    1     2.1541     4.0706    2 H   -1 0 0
  29 C    1     2.3792     4.4960   50 N    0 0 0
  29 C    1     2.3831     4.5035   10 C    0 0 0

  33 N    1     1.3627     2.5752   13 C    0 0 0
  33 N    1     1.3844     2.6162   37 N    1 1 1
  33 N    1     2.1937     4.1455   53 ZN   1 1 0
  33 N    1     2.2020     4.1611   45 N    0 0 0
  33 N    1     2.2408     4.2344   41 N    0 0 0
  33 N    1     2.4435     4.6175    9 C    0 1 0

  37 N    1     1.3198     2.4941   45 N   -1-1-1
  37 N    1     1.3844     2.6162   33 N   -1-1-1
  37 N    1     2.1937     4.1456   13 C   -1-1-1
  37 N    1     2.2167     4.1890   41 N   -1-1-1
  37 N    1     2.8482     5.3823    6 H    0 0 0
  37 N    1     2.9145     5.5077   27 C   -1-1-1

  41 N    1     1.3700     2.5890   13 C    0 0 0
  41 N    1     1.3899     2.6265   45 N    0 0 0
  41 N    1     2.2167     4.1890   37 N    1 1 1
  41 N    1     2.2176     4.1907   54 ZN   0 0 0
  41 N    1     2.2408     4.2344   33 N    0 0 0
  41 N    1     2.5413     4.8024    9 C    0 1 0

  45 N    1     1.3198     2.4941   37 N    1 1 1
  45 N    1     1.3899     2.6265   41 N    0 0 0
  45 N    1     2.1906     4.1396   13 C    0 0 0
  45 N    1     2.2020     4.1611   33 N    0 0 0
  45 N    1     2.7554     5.2070    4 H    1 1 0
  45 N    1     2.8483     5.3825   20 C    1 1 1

  49 N    1     1.3270     2.5077   21 C    0 0 0
  49 N    1     1.3394     2.5310   25 C    0 0 0
  49 N    1     2.0627     3.8979    5 H    0 0 0
  49 N    1     2.3792     4.4960   30 C    0 0 0
  49 N    1     2.4135     4.5608    9 C    0 0 0
  49 N    1     2.7963     5.2843   17 C    0 0 0

  53 ZN   4     2.1937     4.1455   33 N   -1-1 0   34 N   -1 0 1   35 N    0 0 1
                                    36 N   -1 0 0
  53 ZN   4     2.5441     4.8076    5 H   -1 0 0    6 H    0 0 1    7 H   -1-1 0
                                     8 H   -1 0 1
  53 ZN   4     3.1545     5.9612   25 C   -1 0 0   26 C    0 0 1   27 C   -1-1 0
                                    28 C   -1 0 1
  53 ZN   4     3.1584     5.9685   37 N    0 0 1   38 N   -1 0 0   39 N   -1 0 1
                                    40 N   -1-1 0
  53 ZN   4     3.2456     6.1332   13 C   -1-1 0   14 C   -1 0 1   15 C    0 0 1
                                    16 C   -1 0 0
  53 ZN   4     3.5631     6.7333    9 C   -1 0 0   10 C    0 0 1   11 C   -1-1 0
                                    12 C   -1 0 1

  54 ZN   4     2.2176     4.1907   41 N    0 0 0   42 N    0 0 0   43 N    1 1 0
                                    44 N    1 1 0
  54 ZN   4     3.0169     5.7011   45 N    0 0 0   46 N    0 0 0   47 N    1 1 0
                                    48 N    1 1 0
  54 ZN   4     3.1578     5.9674    1 H    0 0 0    2 H    0 0 0    3 H    1 1 0
                                     4 H    1 1 0
  54 ZN   4     3.4134     6.4504   13 C    0 0 0   14 C    0 0 0   15 C    1 1 0
                                    16 C    1 1 0
  54 ZN   4     3.9053     7.3800   17 C    0 1 0   18 C    1 0 0   19 C    0 0-1
                                    20 C    1 1 1
  54 ZN   4     4.0636     7.6790    9 C    0 1 0   10 C    1 0 0   11 C    0 0-1
                                    12 C    1 1 1

  55 BR   1     1.8581     3.5114   30 C    0 0 0
  55 BR   1     2.7210     5.1420    8 H    0 0 0
  55 BR   1     2.7820     5.2572   56 BR   0-1-1
  55 BR   1     2.8166     5.3225   21 C    0 0 0
  55 BR   1     2.8280     5.3441   17 C    0 0 0
  55 BR   1     2.9655     5.6040    1 H    0-1 0

  59 BR   1     1.8969     3.5846   21 C    0 0 0
  59 BR   1     2.8176     5.3246   49 N    0 0 0
  59 BR   1     2.8369     5.3610   30 C    0 0 0
  59 BR   1     2.9043     5.4884    3 H    0 0 0
  59 BR   1     2.9954     5.6604   50 N    0 0 0
  59 BR   1     3.1903     6.0288   55 BR   0 0 0


 SYMMETRY ALLOWED INTERNAL DEGREE(S) OF FREEDOM:  45
 TTTTTTTTTTTTTTTTTTTTTTTTTTTTTT SYMM        TELAPSE       16.18 TCPU        2.86
 TTTTTTTTTTTTTTTTTTTTTTTTTTTTTT INT_SCREEN  TELAPSE       16.18 TCPU        2.87
 INFORMATION **** EXCBUF **** EXCH. BIPO BUFFER: WORDS USED =           0

 DFT PARAMETERS

     ATOM       ELECTRONS   NET CHARGE   R(ANGSTROM)
   1   1  H       1.0000      0.0000     1.11000000
   9   6  C       6.0000      0.0000     0.77000000
  33   7  N       7.0000      0.0000     0.74000000
  53  30  ZN     30.0000      0.0000     1.37000000
  55  35  BR     35.0000      0.0000     1.14000000

 SIZE OF GRID=     465445
 TTTTTTTTTTTTTTTTTTTTTTTTTTTTTT MAKE_GRID2  TELAPSE       16.93 TCPU        3.61
 BECKE WEIGHT FUNCTION
 RADSAFE =     2.00
 TOLERANCES - DENSITY:10**- 6; POTENTIAL:10**- 9; GRID WGT:10**-14

 RADIAL INTEGRATION  - INTERVALS (POINTS,UPPER LIMIT):            1( 75,  4.0*R)

 ANGULAR INTEGRATION - INTERVALS (ACCURACY LEVEL [N. POINTS] UPPER LIMIT):
  1(  4[  86]   0.2)  2(  8[ 194]   0.5)  3( 12[ 350]   0.9)  4( 16[ 974]   3.5)
  5( 12[ 350]9999.0)
 TTTTTTTTTTTTTTTTTTTTTTTTTTTTTT INT_CALC    TELAPSE       16.97 TCPU        3.65
 EEEEEEEEEE INT_CALC TERMINATION  DATE 09 03 2024 TIME 10:32:20.9

 *******************************************************************************
 Z:\home\sanoj\Downloads\tmp_p\newconn.mol                                       
 CRYSTAL - SCF - TYPE OF CALCULATION :  RESTRICTED CLOSED SHELL
 *******************************************************************************

 CAPPA:IS1  3;IS2  3;IS3  3; K PTS MONK NET   6; SYMMOPS:K SPACE   8;G SPACE   4

 TTTTTTTTTTTTTTTTTTTTTTTTTTTTTT SDIK        TELAPSE       17.15 TCPU        3.83

 AAAAAAAAAAAAAAAAAAAAAAAAAAAAAAAAAAAAAAAAAAAAAAAAAAAAAAAAAAAAAAAAAAAAAAAAAAAAAAA
         ATOMIC WAVEFUNCTION(S)


 NUCLEAR CHARGE  1.0  SYMMETRY SPECIES            S
 N. ELECTRONS    1.0  NUMBER OF PRIMITIVE GTOS    4
                      NUMBER OF CONTRACTED GTOS   2
                      NUMBER OF CLOSED SHELLS     0
                      OPEN SHELL OCCUPATION       1

  ZNUC SCFIT  TOTAL HF ENERGY   KINETIC ENERGY   VIRIAL THEOREM ACCURACY
   1.0   1   -4.946643675E-01  4.917913167E-01 -2.005842012E+00  9.4E-17

 NUCLEAR CHARGE  6.0  SYMMETRY SPECIES            S    P
 N. ELECTRONS    6.0  NUMBER OF PRIMITIVE GTOS    7    4
                      NUMBER OF CONTRACTED GTOS   3    2
                      NUMBER OF CLOSED SHELLS     2    0
                      OPEN SHELL OCCUPATION       0    2

  ZNUC SCFIT  TOTAL HF ENERGY   KINETIC ENERGY   VIRIAL THEOREM ACCURACY
   6.0   6   -3.750912652E+01  3.905246519E+01 -1.960480378E+00  3.7E-06

 NUCLEAR CHARGE  7.0  SYMMETRY SPECIES            S    P
 N. ELECTRONS    7.0  NUMBER OF PRIMITIVE GTOS    7    4
                      NUMBER OF CONTRACTED GTOS   3    2
                      NUMBER OF CLOSED SHELLS     2    0
                      OPEN SHELL OCCUPATION       0    3

  ZNUC SCFIT  TOTAL HF ENERGY   KINETIC ENERGY   VIRIAL THEOREM ACCURACY
   7.0   9   -5.432196661E+01  5.425066284E+01 -2.001314339E+00  1.2E-06

 NUCLEAR CHARGE 30.0  SYMMETRY SPECIES            S    P    D
 N. ELECTRONS   30.0  NUMBER OF PRIMITIVE GTOS   14    9    5
                      NUMBER OF CONTRACTED GTOS   5    3    2
                      NUMBER OF CLOSED SHELLS     4    2    1
                      OPEN SHELL OCCUPATION       0    0    0

  ZNUC SCFIT  TOTAL HF ENERGY   KINETIC ENERGY   VIRIAL THEOREM ACCURACY
  30.0  10   -1.777404290E+03  1.777325716E+03 -2.000044209E+00  2.5E-06

 NUCLEAR CHARGE 35.0  SYMMETRY SPECIES            S    P    D
 N. ELECTRONS   35.0  NUMBER OF PRIMITIVE GTOS   14   10    7
                      NUMBER OF CONTRACTED GTOS   5    4    4
                      NUMBER OF CLOSED SHELLS     4    2    1
                      OPEN SHELL OCCUPATION       0    5    0

  ZNUC SCFIT  TOTAL HF ENERGY   KINETIC ENERGY   VIRIAL THEOREM ACCURACY
  35.0  13   -2.572060514E+03  2.572021521E+03 -2.000015161E+00  3.6E-06

 AAAAAAAAAAAAAAAAAAAAAAAAAAAAAAAAAAAAAAAAAAAAAAAAAAAAAAAAAAAAAAAAAAAAAAAAAAAAAAA

 TOTAL ATOMIC CHARGES:
   1.0000000   1.0000000   1.0000000   1.0000000   1.0000000   1.0000000
   1.0000000   1.0000000   6.0000000   6.0000000   6.0000000   6.0000000
   6.0000000   6.0000000   6.0000000   6.0000000   6.0000000   6.0000000
   6.0000000   6.0000000   6.0000000   6.0000000   6.0000000   6.0000000
   6.0000000   6.0000000   6.0000000   6.0000000   6.0000000   6.0000000
   6.0000000   6.0000000   7.0000000   7.0000000   7.0000000   7.0000000
   7.0000000   7.0000000   7.0000000   7.0000000   7.0000000   7.0000000
   7.0000000   7.0000000   7.0000000   7.0000000   7.0000000   7.0000000
   7.0000000   7.0000000   7.0000000   7.0000000  30.0000000  30.0000000
  35.0000000  35.0000000  35.0000000  35.0000000  35.0000000  35.0000000
  35.0000000  35.0000000
 TTTTTTTTTTTTTTTTTTTTTTTTTTTTTT MOQGAD      TELAPSE       18.21 TCPU        4.89
 TTTTTTTTTTTTTTTTTTTTTTTTTTTTTT SHELLXN     TELAPSE       41.72 TCPU       28.04
 TTTTTTTTTTTTTTTTTTTTTTTTTTTTTT MONMO3      TELAPSE       45.67 TCPU       31.98
 NUMERICALLY INTEGRATED DENSITY    631.9999732746
 TTTTTTTTTTTTTTTTTTTTTTTTTTTTTT NUMDFT      TELAPSE       46.29 TCPU       32.59
 CYC   0 ETOT(AU) -2.615987307413E+04 DETOT -2.62E+04 tst  0.00E+00 PX  1.00E+00
 TTTTTTTTTTTTTTTTTTTTTTTTTTTTTT DIIS        TELAPSE       46.35 TCPU       32.65
 TTTTTTTTTTTTTTTTTTTTTTTTTTTTTT FDIK        TELAPSE       70.83 TCPU       56.85
 INSULATING STATE
 TOP OF VALENCE BANDS -    BAND    316; K    1; EIG -1.3536556E-01 AU
 BOTTOM OF VIRTUAL BANDS - BAND    317; K    6; EIG -1.0414968E-01 AU
 INDIRECT ENERGY BAND GAP:   0.8494 eV
 BOTTOM OF VIRTUAL BANDS - BAND    317; K    1; EIG -9.9841943E-02 AU
 TTTTTTTTTTTTTTTTTTTTTTTTTTTTTT PDIG        TELAPSE       71.65 TCPU       57.67
 TOTAL ATOMIC CHARGES:
   1.2582214   1.2582214   1.2582214   1.2582214   1.4527941   1.4527941
   1.4527941   1.4527941   6.0349719   6.0349719   6.0349719   6.0349719
   5.4353915   5.4353915   5.4353915   5.4353915   6.2835165   6.2835165
   6.2835165   6.2835165   5.3877223   5.3877223   5.3877223   5.3877223
   5.8568323   5.8568323   5.8568323   5.8568323   5.7378101   5.7378101
   5.7378101   5.7378101   7.4263688   7.4263688   7.4263688   7.4263688
   7.1642231   7.1642231   7.1642231   7.1642231   7.3849817   7.3849817
   7.3849817   7.3849817   7.1665662   7.1665662   7.1665662   7.1665662
   7.5444286   7.5444286   7.5444286   7.5444286  27.7159721  27.9239942
  34.9540064  34.9540064  34.9540064  34.9540064  35.0021735  35.0021735
  35.0021735  35.0021735
 TTTTTTTTTTTTTTTTTTTTTTTTTTTTTT MOQGAD      TELAPSE       71.67 TCPU       57.69
 TTTTTTTTTTTTTTTTTTTTTTTTTTTTTT SHELLXN     TELAPSE       99.16 TCPU       84.91
 TTTTTTTTTTTTTTTTTTTTTTTTTTTTTT MONMO3      TELAPSE      106.20 TCPU       91.92
 NUMERICALLY INTEGRATED DENSITY    631.9999786859
 TTTTTTTTTTTTTTTTTTTTTTTTTTTTTT NUMDFT      TELAPSE      107.93 TCPU       93.65
 CYC   1 ETOT(AU) -2.615476736491E+04 DETOT  5.11E+00 tst  0.00E+00 PX  1.00E+00
 TTTTTTTTTTTTTTTTTTTTTTTTTTTTTT DIIS        TELAPSE      108.08 TCPU       93.79
 DIIS TEST: 0.93643E+01 AT SCF   CYCLE   1 - MIX   30 %
 TTTTTTTTTTTTTTTTTTTTTTTTTTTTTT FDIK        TELAPSE      118.10 TCPU      103.65
 INSULATING STATE
 TOP OF VALENCE BANDS -    BAND    316; K    1; EIG -1.6402235E-01 AU
 BOTTOM OF VIRTUAL BANDS - BAND    317; K    1; EIG -1.4294113E-01 AU
 DIRECT ENERGY BAND GAP:   0.5736 eV
 TTTTTTTTTTTTTTTTTTTTTTTTTTTTTT PDIG        TELAPSE      118.92 TCPU      104.47
 TOTAL ATOMIC CHARGES:
   1.2411228   1.2411228   1.2411228   1.2411228   1.4627159   1.4627159
   1.4627159   1.4627159   6.0213481   6.0213481   6.0213481   6.0213481
   6.2180700   6.2180700   6.2180700   6.2180700   6.1526589   6.1526589
   6.1526589   6.1526589   6.3729206   6.3729206   6.3729206   6.3729206
   6.1667410   6.1667410   6.1667410   6.1667410   6.0676143   6.0676143
   6.0676143   6.0676143   6.9130462   6.9130462   6.9130462   6.9130462
   6.9037775   6.9037775   6.9037775   6.9037775   6.8246361   6.8246361
   6.8246361   6.8246361   6.9362187   6.9362187   6.9362187   6.9362187
   6.1487411   6.1487411   6.1487411   6.1487411  29.7168214  29.4233332
  34.9349541  34.9349541  34.9349541  34.9349541  34.8503960  34.8503960
  34.8503960  34.8503960
 TTTTTTTTTTTTTTTTTTTTTTTTTTTTTT MOQGAD      TELAPSE      118.94 TCPU      104.49
 TTTTTTTTTTTTTTTTTTTTTTTTTTTTTT SHELLXN     TELAPSE      147.86 TCPU      131.73
 TTTTTTTTTTTTTTTTTTTTTTTTTTTTTT MONMO3      TELAPSE      152.65 TCPU      136.50
 NUMERICALLY INTEGRATED DENSITY    631.9999645131
 TTTTTTTTTTTTTTTTTTTTTTTTTTTTTT NUMDFT      TELAPSE      154.35 TCPU      138.19
 CYC   2 ETOT(AU) -2.615395386847E+04 DETOT  8.13E-01 tst  3.54E-02 PX  8.81E-01
 TTTTTTTTTTTTTTTTTTTTTTTTTTTTTT DIIS        TELAPSE      154.49 TCPU      138.34
 DIIS TEST: 0.13402E+02 AT SCF   CYCLE   2 - DIIS ACTIVE - HISTORY:     2 CYCLES
 TTTTTTTTTTTTTTTTTTTTTTTTTTTTTT FDIK        TELAPSE      161.59 TCPU      145.24
 INSULATING STATE
 TOP OF VALENCE BANDS -    BAND    316; K    4; EIG -2.1996325E-01 AU
 TOP OF VALENCE BANDS -    BAND    316; K    1; EIG -2.2102765E-01 AU
 BOTTOM OF VIRTUAL BANDS - BAND    317; K    6; EIG -1.2934606E-01 AU
 INDIRECT ENERGY BAND GAP:   2.4658 eV
 BOTTOM OF VIRTUAL BANDS - BAND    317; K    1; EIG -1.2600729E-01 AU
 TTTTTTTTTTTTTTTTTTTTTTTTTTTTTT PDIG        TELAPSE      162.40 TCPU      146.05
 TOTAL ATOMIC CHARGES:
   1.2110855   1.2110855   1.2110855   1.2110855   1.3882951   1.3882951
   1.3882951   1.3882951   5.9307230   5.9307230   5.9307230   5.9307230
   5.7341122   5.7341122   5.7341122   5.7341122   6.1145510   6.1145510
   6.1145510   6.1145510   5.7428152   5.7428152   5.7428152   5.7428152
   5.9788709   5.9788709   5.9788709   5.9788709   5.7704312   5.7704312
   5.7704312   5.7704312   7.1418438   7.1418438   7.1418438   7.1418438
   7.1066699   7.1066699   7.1066699   7.1066699   7.1620410   7.1620410
   7.1620410   7.1620410   7.0755395   7.0755395   7.0755395   7.0755395
   7.3891694   7.3891694   7.3891694   7.3891694  28.9254541  28.9029652
  34.8950206  34.8950206  34.8950206  34.8950206  34.9017269  34.9017269
  34.9017269  34.9017269
 TTTTTTTTTTTTTTTTTTTTTTTTTTTTTT MOQGAD      TELAPSE      162.42 TCPU      146.08
 TTTTTTTTTTTTTTTTTTTTTTTTTTTTTT SHELLXN     TELAPSE      189.91 TCPU      173.24
 TTTTTTTTTTTTTTTTTTTTTTTTTTTTTT MONMO3      TELAPSE      194.93 TCPU      178.24
 NUMERICALLY INTEGRATED DENSITY    631.9999793203
 TTTTTTTTTTTTTTTTTTTTTTTTTTTTTT NUMDFT      TELAPSE      196.62 TCPU      179.93
 CYC   3 ETOT(AU) -2.615628831332E+04 DETOT -2.33E+00 tst  6.85E-03 PX  6.17E-01
 TTTTTTTTTTTTTTTTTTTTTTTTTTTTTT DIIS        TELAPSE      196.77 TCPU      180.08
 DIIS TEST: 0.13747E+01 AT SCF   CYCLE   3 - DIIS ACTIVE - HISTORY:     3 CYCLES
 TTTTTTTTTTTTTTTTTTTTTTTTTTTTTT FDIK        TELAPSE      204.95 TCPU      187.96
 INSULATING STATE
 TOP OF VALENCE BANDS -    BAND    316; K    4; EIG -2.1086422E-01 AU
 TOP OF VALENCE BANDS -    BAND    316; K    1; EIG -2.1275297E-01 AU
 BOTTOM OF VIRTUAL BANDS - BAND    317; K    6; EIG -1.2796258E-01 AU
 INDIRECT ENERGY BAND GAP:   2.2559 eV
 BOTTOM OF VIRTUAL BANDS - BAND    317; K    1; EIG -1.2052579E-01 AU
 TTTTTTTTTTTTTTTTTTTTTTTTTTTTTT PDIG        TELAPSE      205.76 TCPU      188.76
 TOTAL ATOMIC CHARGES:
   1.1929375   1.1929375   1.1929375   1.1929375   1.4008012   1.4008012
   1.4008012   1.4008012   6.0474583   6.0474583   6.0474583   6.0474583
   5.7432969   5.7432969   5.7432969   5.7432969   6.3276781   6.3276781
   6.3276781   6.3276781   5.7408513   5.7408513   5.7408513   5.7408513
   5.9559080   5.9559080   5.9559080   5.9559080   5.9267346   5.9267346
   5.9267346   5.9267346   7.2242628   7.2242628   7.2242628   7.2242628
   7.0774498   7.0774498   7.0774498   7.0774498   7.1569068   7.1569068
   7.1569068   7.1569068   7.1044179   7.1044179   7.1044179   7.1044179
   6.9331318   6.9331318   6.9331318   6.9331318  28.6352908  28.6839814
  34.9428014  34.9428014  34.9428014  34.9428014  34.8955456  34.8955456
  34.8955456  34.8955456
 TTTTTTTTTTTTTTTTTTTTTTTTTTTTTT MOQGAD      TELAPSE      205.78 TCPU      188.78
 TTTTTTTTTTTTTTTTTTTTTTTTTTTTTT SHELLXN     TELAPSE      235.20 TCPU      215.93
 TTTTTTTTTTTTTTTTTTTTTTTTTTTTTT MONMO3      TELAPSE      240.24 TCPU      220.96
 NUMERICALLY INTEGRATED DENSITY    631.9999775870
 TTTTTTTTTTTTTTTTTTTTTTTTTTTTTT NUMDFT      TELAPSE      241.93 TCPU      222.64
 CYC   4 ETOT(AU) -2.615636872490E+04 DETOT -8.04E-02 tst  8.57E-04 PX  1.43E-01
 TTTTTTTTTTTTTTTTTTTTTTTTTTTTTT DIIS        TELAPSE      242.07 TCPU      222.78
 DIIS TEST: 0.83823E+00 AT SCF   CYCLE   4 - DIIS ACTIVE - HISTORY:     4 CYCLES
 TTTTTTTTTTTTTTTTTTTTTTTTTTTTTT FDIK        TELAPSE      251.19 TCPU      229.62
 INSULATING STATE
 TOP OF VALENCE BANDS -    BAND    316; K    4; EIG -2.2358508E-01 AU
 TOP OF VALENCE BANDS -    BAND    316; K    1; EIG -2.2623736E-01 AU
 BOTTOM OF VIRTUAL BANDS - BAND    317; K    6; EIG -1.2709843E-01 AU
 INDIRECT ENERGY BAND GAP:   2.6255 eV
 BOTTOM OF VIRTUAL BANDS - BAND    317; K    1; EIG -1.1999683E-01 AU
 TTTTTTTTTTTTTTTTTTTTTTTTTTTTTT PDIG        TELAPSE      252.00 TCPU      230.42
 TOTAL ATOMIC CHARGES:
   1.1958462   1.1958462   1.1958462   1.1958462   1.3967529   1.3967529
   1.3967529   1.3967529   5.9943376   5.9943376   5.9943376   5.9943376
   5.7714606   5.7714606   5.7714606   5.7714606   6.2013974   6.2013974
   6.2013974   6.2013974   5.8517443   5.8517443   5.8517443   5.8517443
   6.0155759   6.0155759   6.0155759   6.0155759   5.8632770   5.8632770
   5.8632770   5.8632770   7.1927887   7.1927887   7.1927887   7.1927887
   7.0913280   7.0913280   7.0913280   7.0913280   7.1089821   7.1089821
   7.1089821   7.1089821   7.0672069   7.0672069   7.0672069   7.0672069
   7.0777158   7.0777158   7.0777158   7.0777158  28.7161585  28.7131115
  34.9178283  34.9178283  34.9178283  34.9178283  34.8964408  34.8964408
  34.8964408  34.8964408
 TTTTTTTTTTTTTTTTTTTTTTTTTTTTTT MOQGAD      TELAPSE      252.02 TCPU      230.44
 TTTTTTTTTTTTTTTTTTTTTTTTTTTTTT SHELLXN     TELAPSE      280.45 TCPU      257.61
 TTTTTTTTTTTTTTTTTTTTTTTTTTTTTT MONMO3      TELAPSE      285.50 TCPU      262.66
 NUMERICALLY INTEGRATED DENSITY    631.9999751211
 TTTTTTTTTTTTTTTTTTTTTTTTTTTTTT NUMDFT      TELAPSE      287.20 TCPU      264.34
 CYC   5 ETOT(AU) -2.615648804601E+04 DETOT -1.19E-01 tst  2.71E-04 PX  9.70E-02
 TTTTTTTTTTTTTTTTTTTTTTTTTTTTTT DIIS        TELAPSE      287.34 TCPU      264.49
 DIIS TEST: 0.71851E-01 AT SCF   CYCLE   5 - DIIS ACTIVE - HISTORY:     5 CYCLES
 TTTTTTTTTTTTTTTTTTTTTTTTTTTTTT FDIK        TELAPSE      294.79 TCPU      271.76
 INSULATING STATE
 TOP OF VALENCE BANDS -    BAND    316; K    4; EIG -2.2054087E-01 AU
 TOP OF VALENCE BANDS -    BAND    316; K    1; EIG -2.2317795E-01 AU
 BOTTOM OF VIRTUAL BANDS - BAND    317; K    6; EIG -1.2749434E-01 AU
 INDIRECT ENERGY BAND GAP:   2.5319 eV
 BOTTOM OF VIRTUAL BANDS - BAND    317; K    1; EIG -1.2002253E-01 AU
 TTTTTTTTTTTTTTTTTTTTTTTTTTTTTT PDIG        TELAPSE      295.59 TCPU      272.57
 TOTAL ATOMIC CHARGES:
   1.2025378   1.2025378   1.2025378   1.2025378   1.3960630   1.3960630
   1.3960630   1.3960630   6.0097998   6.0097998   6.0097998   6.0097998
   5.7694919   5.7694919   5.7694919   5.7694919   6.2298394   6.2298394
   6.2298394   6.2298394   5.7809796   5.7809796   5.7809796   5.7809796
   5.9947943   5.9947943   5.9947943   5.9947943   5.8502674   5.8502674
   5.8502674   5.8502674   7.1571310   7.1571310   7.1571310   7.1571310
   7.0603068   7.0603068   7.0603068   7.0603068   7.1612245   7.1612245
   7.1612245   7.1612245   7.0963070   7.0963070   7.0963070   7.0963070
   7.0808245   7.0808245   7.0808245   7.0808245  28.7444013  28.7449830
  34.9305953  34.9305953  34.9305953  34.9305953  34.9074917  34.9074917
  34.9074917  34.9074917
 TTTTTTTTTTTTTTTTTTTTTTTTTTTTTT MOQGAD      TELAPSE      295.62 TCPU      272.59
 TTTTTTTTTTTTTTTTTTTTTTTTTTTTTT SHELLXN     TELAPSE      323.15 TCPU      299.77
 TTTTTTTTTTTTTTTTTTTTTTTTTTTTTT MONMO3      TELAPSE      328.08 TCPU      304.69
 NUMERICALLY INTEGRATED DENSITY    631.9999753107
 TTTTTTTTTTTTTTTTTTTTTTTTTTTTTT NUMDFT      TELAPSE      329.78 TCPU      306.38
 CYC   6 ETOT(AU) -2.615649509227E+04 DETOT -7.05E-03 tst  7.60E-05 PX  3.06E-02
 TTTTTTTTTTTTTTTTTTTTTTTTTTTTTT DIIS        TELAPSE      329.93 TCPU      306.52
 DIIS TEST: 0.31629E-01 AT SCF   CYCLE   6 - DIIS ACTIVE - HISTORY:     6 CYCLES
 TTTTTTTTTTTTTTTTTTTTTTTTTTTTTT FDIK        TELAPSE      337.81 TCPU      312.98
 INSULATING STATE
 TOP OF VALENCE BANDS -    BAND    316; K    4; EIG -2.2042627E-01 AU
 TOP OF VALENCE BANDS -    BAND    316; K    1; EIG -2.2311848E-01 AU
 BOTTOM OF VIRTUAL BANDS - BAND    317; K    6; EIG -1.2792855E-01 AU
 INDIRECT ENERGY BAND GAP:   2.5170 eV
 BOTTOM OF VIRTUAL BANDS - BAND    317; K    1; EIG -1.2070112E-01 AU
 TTTTTTTTTTTTTTTTTTTTTTTTTTTTTT PDIG        TELAPSE      338.61 TCPU      313.78
 TOTAL ATOMIC CHARGES:
   1.1991165   1.1991165   1.1991165   1.1991165   1.3966154   1.3966154
   1.3966154   1.3966154   5.9986272   5.9986272   5.9986272   5.9986272
   5.7679462   5.7679462   5.7679462   5.7679462   6.2208846   6.2208846
   6.2208846   6.2208846   5.7957877   5.7957877   5.7957877   5.7957877
   6.0016643   6.0016643   6.0016643   6.0016643   5.8646477   5.8646477
   5.8646477   5.8646477   7.1951285   7.1951285   7.1951285   7.1951285
   7.0975576   7.0975576   7.0975576   7.0975576   7.1196491   7.1196491
   7.1196491   7.1196491   7.0681627   7.0681627   7.0681627   7.0681627
   7.0748122   7.0748122   7.0748122   7.0748122  28.7448383  28.7513916
  34.9257552  34.9257552  34.9257552  34.9257552  34.8995877  34.8995877
  34.8995877  34.8995877
 TTTTTTTTTTTTTTTTTTTTTTTTTTTTTT MOQGAD      TELAPSE      338.63 TCPU      313.80
 TTTTTTTTTTTTTTTTTTTTTTTTTTTTTT SHELLXN     TELAPSE      368.09 TCPU      340.94
 TTTTTTTTTTTTTTTTTTTTTTTTTTTTTT MONMO3      TELAPSE      373.10 TCPU      345.95
 NUMERICALLY INTEGRATED DENSITY    631.9999758927
 TTTTTTTTTTTTTTTTTTTTTTTTTTTTTT NUMDFT      TELAPSE      374.80 TCPU      347.63
 CYC   7 ETOT(AU) -2.615649805129E+04 DETOT -2.96E-03 tst  2.08E-05 PX  1.32E-02
 TTTTTTTTTTTTTTTTTTTTTTTTTTTTTT DIIS        TELAPSE      375.03 TCPU      347.86
 DIIS TEST: 0.11619E-01 AT SCF   CYCLE   7 - DIIS ACTIVE - HISTORY:     7 CYCLES
 TTTTTTTTTTTTTTTTTTTTTTTTTTTTTT FDIK        TELAPSE      383.77 TCPU      354.22
 INSULATING STATE
 TOP OF VALENCE BANDS -    BAND    316; K    4; EIG -2.2127106E-01 AU
 TOP OF VALENCE BANDS -    BAND    316; K    1; EIG -2.2394681E-01 AU
 BOTTOM OF VIRTUAL BANDS - BAND    317; K    6; EIG -1.2818797E-01 AU
 INDIRECT ENERGY BAND GAP:   2.5329 eV
 BOTTOM OF VIRTUAL BANDS - BAND    317; K    1; EIG -1.2085461E-01 AU
 TTTTTTTTTTTTTTTTTTTTTTTTTTTTTT PDIG        TELAPSE      384.58 TCPU      355.02
 TOTAL ATOMIC CHARGES:
   1.1994589   1.1994589   1.1994589   1.1994589   1.3945009   1.3945009
   1.3945009   1.3945009   5.9965160   5.9965160   5.9965160   5.9965160
   5.7704462   5.7704462   5.7704462   5.7704462   6.2174071   6.2174071
   6.2174071   6.2174071   5.8128799   5.8128799   5.8128799   5.8128799
   6.0010963   6.0010963   6.0010963   6.0010963   5.8630630   5.8630630
   5.8630630   5.8630630   7.1759925   7.1759925   7.1759925   7.1759925
   7.0764771   7.0764771   7.0764771   7.0764771   7.1369249   7.1369249
   7.1369249   7.1369249   7.0841506   7.0841506   7.0841506   7.0841506
   7.0739213   7.0739213   7.0739213   7.0739213  28.7449099  28.7501073
  34.9241706  34.9241706  34.9241706  34.9241706  34.8992404  34.8992404
  34.8992404  34.8992404
 TTTTTTTTTTTTTTTTTTTTTTTTTTTTTT MOQGAD      TELAPSE      384.60 TCPU      355.04
 TTTTTTTTTTTTTTTTTTTTTTTTTTTTTT SHELLXN     TELAPSE      414.20 TCPU      382.16
 TTTTTTTTTTTTTTTTTTTTTTTTTTTTTT MONMO3      TELAPSE      419.24 TCPU      387.19
 NUMERICALLY INTEGRATED DENSITY    631.9999758338
 TTTTTTTTTTTTTTTTTTTTTTTTTTTTTT NUMDFT      TELAPSE      420.99 TCPU      388.93
 CYC   8 ETOT(AU) -2.615649963245E+04 DETOT -1.58E-03 tst  6.01E-06 PX  7.40E-03
 TTTTTTTTTTTTTTTTTTTTTTTTTTTTTT DIIS        TELAPSE      421.16 TCPU      389.09
 DIIS TEST: 0.14824E-02 AT SCF   CYCLE   8 - DIIS ACTIVE - HISTORY:     8 CYCLES
 TTTTTTTTTTTTTTTTTTTTTTTTTTTTTT FDIK        TELAPSE      428.11 TCPU      395.87
 INSULATING STATE
 TOP OF VALENCE BANDS -    BAND    316; K    4; EIG -2.2121841E-01 AU
 TOP OF VALENCE BANDS -    BAND    316; K    1; EIG -2.2389029E-01 AU
 BOTTOM OF VIRTUAL BANDS - BAND    317; K    6; EIG -1.2818538E-01 AU
 INDIRECT ENERGY BAND GAP:   2.5316 eV
 BOTTOM OF VIRTUAL BANDS - BAND    317; K    1; EIG -1.2087953E-01 AU
 TTTTTTTTTTTTTTTTTTTTTTTTTTTTTT PDIG        TELAPSE      428.92 TCPU      396.67
 TOTAL ATOMIC CHARGES:
   1.1991404   1.1991404   1.1991404   1.1991404   1.3943062   1.3943062
   1.3943062   1.3943062   6.0025899   6.0025899   6.0025899   6.0025899
   5.7706712   5.7706712   5.7706712   5.7706712   6.2175118   6.2175118
   6.2175118   6.2175118   5.8045592   5.8045592   5.8045592   5.8045592
   6.0063154   6.0063154   6.0063154   6.0063154   5.8561987   5.8561987
   5.8561987   5.8561987   7.1798405   7.1798405   7.1798405   7.1798405
   7.0781251   7.0781251   7.0781251   7.0781251   7.1353767   7.1353767
   7.1353767   7.1353767   7.0771637   7.0771637   7.0771637   7.0771637
   7.0754937   7.0754937   7.0754937   7.0754937  28.7490948  28.7501534
  34.9266280  34.9266280  34.9266280  34.9266280  34.9012677  34.9012677
  34.9012677  34.9012677
 TTTTTTTTTTTTTTTTTTTTTTTTTTTTTT MOQGAD      TELAPSE      428.94 TCPU      396.70
 TTTTTTTTTTTTTTTTTTTTTTTTTTTTTT SHELLXN     TELAPSE      458.31 TCPU      423.83
 TTTTTTTTTTTTTTTTTTTTTTTTTTTTTT MONMO3      TELAPSE      463.49 TCPU      429.00
 NUMERICALLY INTEGRATED DENSITY    631.9999755630
 TTTTTTTTTTTTTTTTTTTTTTTTTTTTTT NUMDFT      TELAPSE      465.26 TCPU      430.75
 CYC   9 ETOT(AU) -2.615649975511E+04 DETOT -1.23E-04 tst  7.83E-07 PX  2.31E-03
 TTTTTTTTTTTTTTTTTTTTTTTTTTTTTT DIIS        TELAPSE      465.43 TCPU      430.92
 DIIS TEST: 0.62251E-03 AT SCF   CYCLE   9 - DIIS ACTIVE - HISTORY:     9 CYCLES
 TTTTTTTTTTTTTTTTTTTTTTTTTTTTTT FDIK        TELAPSE      473.10 TCPU      437.34
 INSULATING STATE
 TOP OF VALENCE BANDS -    BAND    316; K    4; EIG -2.2131024E-01 AU
 TOP OF VALENCE BANDS -    BAND    316; K    1; EIG -2.2398136E-01 AU
 BOTTOM OF VIRTUAL BANDS - BAND    317; K    6; EIG -1.2806944E-01 AU
 INDIRECT ENERGY BAND GAP:   2.5372 eV
 BOTTOM OF VIRTUAL BANDS - BAND    317; K    1; EIG -1.2075274E-01 AU
 TTTTTTTTTTTTTTTTTTTTTTTTTTTTTT PDIG        TELAPSE      473.91 TCPU      438.14
 TOTAL ATOMIC CHARGES:
   1.1989947   1.1989947   1.1989947   1.1989947   1.3944937   1.3944937
   1.3944937   1.3944937   5.9995177   5.9995177   5.9995177   5.9995177
   5.7680890   5.7680890   5.7680890   5.7680890   6.2189105   6.2189105
   6.2189105   6.2189105   5.8059754   5.8059754   5.8059754   5.8059754
   6.0013007   6.0013007   6.0013007   6.0013007   5.8618362   5.8618362
   5.8618362   5.8618362   7.1783260   7.1783260   7.1783260   7.1783260
   7.0808731   7.0808731   7.0808731   7.0808731   7.1341471   7.1341471
   7.1341471   7.1341471   7.0801603   7.0801603   7.0801603   7.0801603
   7.0768796   7.0768796   7.0768796   7.0768796  28.7484509  28.7513836
  34.9248933  34.9248933  34.9248933  34.9248933  34.9006443  34.9006443
  34.9006443  34.9006443
 TTTTTTTTTTTTTTTTTTTTTTTTTTTTTT MOQGAD      TELAPSE      473.93 TCPU      438.17
 TTTTTTTTTTTTTTTTTTTTTTTTTTTTTT SHELLXN     TELAPSE      503.45 TCPU      465.31
 TTTTTTTTTTTTTTTTTTTTTTTTTTTTTT MONMO3      TELAPSE      508.46 TCPU      470.31
 NUMERICALLY INTEGRATED DENSITY    631.9999757269
 TTTTTTTTTTTTTTTTTTTTTTTTTTTTTT NUMDFT      TELAPSE      510.20 TCPU      472.05
 CYC  10 ETOT(AU) -2.615649982016E+04 DETOT -6.51E-05 tst  2.73E-07 PX  1.93E-03
 TTTTTTTTTTTTTTTTTTTTTTTTTTTTTT DIIS        TELAPSE      510.38 TCPU      472.22
 DIIS TEST: 0.14869E-03 AT SCF   CYCLE  10 - DIIS ACTIVE - HISTORY:    10 CYCLES
 TTTTTTTTTTTTTTTTTTTTTTTTTTTTTT FDIK        TELAPSE      517.44 TCPU      479.11
 INSULATING STATE
 TOP OF VALENCE BANDS -    BAND    316; K    4; EIG -2.2116352E-01 AU
 TOP OF VALENCE BANDS -    BAND    316; K    1; EIG -2.2383814E-01 AU
 BOTTOM OF VIRTUAL BANDS - BAND    317; K    6; EIG -1.2820633E-01 AU
 INDIRECT ENERGY BAND GAP:   2.5295 eV
 BOTTOM OF VIRTUAL BANDS - BAND    317; K    1; EIG -1.2089374E-01 AU
 TTTTTTTTTTTTTTTTTTTTTTTTTTTTTT PDIG        TELAPSE      518.24 TCPU      479.91
 TOTAL ATOMIC CHARGES:
   1.1992526   1.1992526   1.1992526   1.1992526   1.3944594   1.3944594
   1.3944594   1.3944594   5.9997043   5.9997043   5.9997043   5.9997043
   5.7700238   5.7700238   5.7700238   5.7700238   6.2177318   6.2177318
   6.2177318   6.2177318   5.8069196   5.8069196   5.8069196   5.8069196
   6.0031759   6.0031759   6.0031759   6.0031759   5.8600497   5.8600497
   5.8600497   5.8600497   7.1798241   7.1798241   7.1798241   7.1798241
   7.0785024   7.0785024   7.0785024   7.0785024   7.1355531   7.1355531
   7.1355531   7.1355531   7.0798592   7.0798592   7.0798592   7.0798592
   7.0756152   7.0756152   7.0756152   7.0756152  28.7468589  28.7499048
  34.9250306  34.9250306  34.9250306  34.9250306  34.9001075  34.9001075
  34.9001075  34.9001075
 TTTTTTTTTTTTTTTTTTTTTTTTTTTTTT MOQGAD      TELAPSE      518.26 TCPU      479.94
 TTTTTTTTTTTTTTTTTTTTTTTTTTTTTT SHELLXN     TELAPSE      547.86 TCPU      507.09
 TTTTTTTTTTTTTTTTTTTTTTTTTTTTTT MONMO3      TELAPSE      552.83 TCPU      512.04
 NUMERICALLY INTEGRATED DENSITY    631.9999757116
 TTTTTTTTTTTTTTTTTTTTTTTTTTTTTT NUMDFT      TELAPSE      554.52 TCPU      513.73
 CYC  11 ETOT(AU) -2.615649983735E+04 DETOT -1.72E-05 tst  4.64E-08 PX  9.09E-04
 TTTTTTTTTTTTTTTTTTTTTTTTTTTTTT DIIS        TELAPSE      554.69 TCPU      513.89
 DIIS TEST: 0.35355E-04 AT SCF   CYCLE  11 - DIIS ACTIVE - HISTORY:    11 CYCLES
 TTTTTTTTTTTTTTTTTTTTTTTTTTTTTT FDIK        TELAPSE      561.55 TCPU      520.58
 INSULATING STATE
 TOP OF VALENCE BANDS -    BAND    316; K    4; EIG -2.2124448E-01 AU
 TOP OF VALENCE BANDS -    BAND    316; K    1; EIG -2.2391799E-01 AU
 BOTTOM OF VIRTUAL BANDS - BAND    317; K    6; EIG -1.2811843E-01 AU
 INDIRECT ENERGY BAND GAP:   2.5341 eV
 BOTTOM OF VIRTUAL BANDS - BAND    317; K    1; EIG -1.2080419E-01 AU
 TTTTTTTTTTTTTTTTTTTTTTTTTTTTTT PDIG        TELAPSE      562.35 TCPU      521.39
 TOTAL ATOMIC CHARGES:
   1.1991212   1.1991212   1.1991212   1.1991212   1.3943397   1.3943397
   1.3943397   1.3943397   6.0000923   6.0000923   6.0000923   6.0000923
   5.7697390   5.7697390   5.7697390   5.7697390   6.2184093   6.2184093
   6.2184093   6.2184093   5.8061379   5.8061379   5.8061379   5.8061379
   6.0032200   6.0032200   6.0032200   6.0032200   5.8599242   5.8599242
   5.8599242   5.8599242   7.1777868   7.1777868   7.1777868   7.1777868
   7.0802798   7.0802798   7.0802798   7.0802798   7.1344407   7.1344407
   7.1344407   7.1344407   7.0797727   7.0797727   7.0797727   7.0797727
   7.0759349   7.0759349   7.0759349   7.0759349  28.7480249  28.7506523
  34.9255769  34.9255769  34.9255769  34.9255769  34.9005553  34.9005553
  34.9005553  34.9005553
 TTTTTTTTTTTTTTTTTTTTTTTTTTTTTT MOQGAD      TELAPSE      562.38 TCPU      521.41
 TTTTTTTTTTTTTTTTTTTTTTTTTTTTTT SHELLXN     TELAPSE      592.03 TCPU      548.56
 TTTTTTTTTTTTTTTTTTTTTTTTTTTTTT MONMO3      TELAPSE      597.03 TCPU      553.55
 NUMERICALLY INTEGRATED DENSITY    631.9999756924
 TTTTTTTTTTTTTTTTTTTTTTTTTTTTTT NUMDFT      TELAPSE      598.76 TCPU      555.27
 CYC  12 ETOT(AU) -2.615649983961E+04 DETOT -2.26E-06 tst  2.87E-08 PX  5.59E-04
 TTTTTTTTTTTTTTTTTTTTTTTTTTTTTT DIIS        TELAPSE      598.93 TCPU      555.43
 DIIS TEST: 0.17128E-04 AT SCF   CYCLE  12 - DIIS ACTIVE - HISTORY:    12 CYCLES
 TTTTTTTTTTTTTTTTTTTTTTTTTTTTTT FDIK        TELAPSE      606.87 TCPU      562.12
 INSULATING STATE
 TOP OF VALENCE BANDS -    BAND    316; K    4; EIG -2.2125015E-01 AU
 TOP OF VALENCE BANDS -    BAND    316; K    1; EIG -2.2392266E-01 AU
 BOTTOM OF VIRTUAL BANDS - BAND    317; K    6; EIG -1.2814280E-01 AU
 INDIRECT ENERGY BAND GAP:   2.5336 eV
 BOTTOM OF VIRTUAL BANDS - BAND    317; K    1; EIG -1.2082681E-01 AU
 TTTTTTTTTTTTTTTTTTTTTTTTTTTTTT PDIG        TELAPSE      607.68 TCPU      562.92
 TOTAL ATOMIC CHARGES:
   1.1991499   1.1991499   1.1991499   1.1991499   1.3944194   1.3944194
   1.3944194   1.3944194   6.0000219   6.0000219   6.0000219   6.0000219
   5.7691451   5.7691451   5.7691451   5.7691451   6.2181631   6.2181631
   6.2181631   6.2181631   5.8061998   5.8061998   5.8061998   5.8061998
   6.0027033   6.0027033   6.0027033   6.0027033   5.8602944   5.8602944
   5.8602944   5.8602944   7.1794278   7.1794278   7.1794278   7.1794278
   7.0790361   7.0790361   7.0790361   7.0790361   7.1352053   7.1352053
   7.1352053   7.1352053   7.0795899   7.0795899   7.0795899   7.0795899
   7.0761239   7.0761239   7.0761239   7.0761239  28.7477746  28.7506506
  34.9253476  34.9253476  34.9253476  34.9253476  34.9005662  34.9005662
  34.9005662  34.9005662
[...]
 TTTTTTTTTTTTTTTTTTTTTTTTTTTTTT CP_MONMON   TELAPSE    48336.39 TCPU    47829.33
 DIIS TEST: 0.55224E+01 AT CPHF  CYCLE   5 - DIIS ACTIVE - HISTORY:     5 CYCLES
 CYCLE   5   ALPHA 1773.000294  EPSILON    5.037641  DELTA    1.2270E+01
 TTTTTTTTTTTTTTTTTTTTTTTTTTTTTT MOQGAD      TELAPSE    48807.43 TCPU    48296.82
 TTTTTTTTTTTTTTTTTTTTTTTTTTTTTT CP_MONMON   TELAPSE    48816.60 TCPU    48305.93
 DIIS TEST: 0.56161E+00 AT CPHF  CYCLE   6 - DIIS ACTIVE - HISTORY:     6 CYCLES
 CYCLE   6   ALPHA 1776.595106  EPSILON    5.045827  DELTA    3.5948E+00
 TTTTTTTTTTTTTTTTTTTTTTTTTTTTTT MOQGAD      TELAPSE    49286.46 TCPU    48772.32
 TTTTTTTTTTTTTTTTTTTTTTTTTTTTTT CP_MONMON   TELAPSE    49295.49 TCPU    48781.32
 DIIS TEST: 0.68548E-01 AT CPHF  CYCLE   7 - DIIS ACTIVE - HISTORY:     7 CYCLES
 CYCLE   7   ALPHA 1777.665750  EPSILON    5.048265  DELTA    1.0706E+00
 TTTTTTTTTTTTTTTTTTTTTTTTTTTTTT MOQGAD      TELAPSE    49771.75 TCPU    49248.99
 TTTTTTTTTTTTTTTTTTTTTTTTTTTTTT CP_MONMON   TELAPSE    49780.79 TCPU    49258.00
 DIIS TEST: 0.17286E-01 AT CPHF  CYCLE   8 - DIIS ACTIVE - HISTORY:     8 CYCLES
 CYCLE   8   ALPHA 1778.170019  EPSILON    5.049414  DELTA    5.0427E-01
 TTTTTTTTTTTTTTTTTTTTTTTTTTTTTT MOQGAD      TELAPSE    50253.82 TCPU    49725.54
 TTTTTTTTTTTTTTTTTTTTTTTTTTTTTT CP_MONMON   TELAPSE    50262.89 TCPU    49734.55
 DIIS TEST: 0.19784E-02 AT CPHF  CYCLE   9 - DIIS ACTIVE - HISTORY:     9 CYCLES
 CYCLE   9   ALPHA 1778.134944  EPSILON    5.049334  DELTA   -3.5074E-02
 TTTTTTTTTTTTTTTTTTTTTTTTTTTTTT MOQGAD      TELAPSE    50736.44 TCPU    50203.28
 TTTTTTTTTTTTTTTTTTTTTTTTTTTTTT CP_MONMON   TELAPSE    50745.49 TCPU    50212.29
 DIIS TEST: 0.12335E-03 AT CPHF  CYCLE  10 - DIIS ACTIVE - HISTORY:    10 CYCLES
 CYCLE  10   ALPHA 1778.084492  EPSILON    5.049219  DELTA   -5.0452E-02
 TTTTTTTTTTTTTTTTTTTTTTTTTTTTTT MOQGAD      TELAPSE    51218.26 TCPU    50680.02
 TTTTTTTTTTTTTTTTTTTTTTTTTTTTTT CP_MONMON   TELAPSE    51227.30 TCPU    50689.03
 DIIS TEST: 0.48489E-04 AT CPHF  CYCLE  11 - DIIS ACTIVE - HISTORY:    11 CYCLES
 CYCLE  11   ALPHA 1778.056686  EPSILON    5.049155  DELTA   -2.7806E-02
 TTTTTTTTTTTTTTTTTTTTTTTTTTTTTT MOQGAD      TELAPSE    51698.74 TCPU    51156.77
 TTTTTTTTTTTTTTTTTTTTTTTTTTTTTT CP_MONMON   TELAPSE    51707.78 TCPU    51165.78
 DIIS TEST: 0.29814E-05 AT CPHF  CYCLE  12 - DIIS ACTIVE - HISTORY:    12 CYCLES
 CYCLE  12   ALPHA 1778.049345  EPSILON    5.049139  DELTA   -7.3418E-03
 TTTTTTTTTTTTTTTTTTTTTTTTTTTTTT MOQGAD      TELAPSE    52182.76 TCPU    51634.02
 TTTTTTTTTTTTTTTTTTTTTTTTTTTTTT CP_MONMON   TELAPSE    52191.80 TCPU    51643.03
 DIIS TEST: 0.64648E-06 AT CPHF  CYCLE  13 - DIIS ACTIVE - HISTORY:    13 CYCLES
 CYCLE  13   ALPHA 1778.046167  EPSILON    5.049131  DELTA   -3.1771E-03
 TTTTTTTTTTTTTTTTTTTTTTTTTTTTTT MOQGAD      TELAPSE    52665.20 TCPU    52111.80
 TTTTTTTTTTTTTTTTTTTTTTTTTTTTTT CP_MONMON   TELAPSE    52674.23 TCPU    52120.80
 DIIS TEST: 0.49659E-07 AT CPHF  CYCLE  14 - DIIS ACTIVE - HISTORY:    14 CYCLES
 CYCLE  14   ALPHA 1778.045034  EPSILON    5.049129  DELTA   -1.1337E-03
 TTTTTTTTTTTTTTTTTTTTTTTTTTTTTT MOQGAD      TELAPSE    53142.74 TCPU    52584.23
 TTTTTTTTTTTTTTTTTTTTTTTTTTTTTT CP_MONMON   TELAPSE    53151.79 TCPU    52593.24
 DIIS TEST: 0.10575E-07 AT CPHF  CYCLE  15 - DIIS ACTIVE - HISTORY:    15 CYCLES
 CYCLE  15   ALPHA 1778.044886  EPSILON    5.049129  DELTA   -1.4758E-04
 TTTTTTTTTTTTTTTTTTTTTTTTTTTTTT CP_SC       TELAPSE    53190.05 TCPU    52628.97

 *******************************************************************************

 ELECTRIC FIELD APPLIED ALONG CARTESIAN DIRECTION Z

 *******************************************************************************
 THE NUMBER OF SYMMETRY OPERATORS HAS BEEN REDUCED FROM  4 TO  1

 NEW GRID IN RECIPROCAL SPACE
 *******************************************************************************
 POINTS IN THE IBZ                  14 SHRINKING FACTORS               3  3  3
 *******************************************************************************
 *** K POINTS COORDINATES (OBLIQUE COORDINATES IN UNITS OF SHRINK FAC. )
   1-R(  0  0  0)   2-C(  1  0  0)   3-C(  0  1  2)   4-C(  2  0  1)
   5-C(  0  2  0)   6-C(  1  1  0)   7-C(  1  1  1)   8-C(  1  0  1)
   9-C(  0  1  1)  10-C(  2  1  0)  11-C(  0  0  2)  12-C(  2  1  1)
  13-C(  2  1  2)  14-C(  2  2  1)

 GCALCO - MAX INDICES DIRECT LATTICE VECTOR    14    14    15
 NO.OF VECTORS CREATED 6999 STARS  490 RMAX   209.84922 BOHR
 TTTTTTTTTTTTTTTTTTTTTTTTTTTTTT gordsh1     TELAPSE    53214.50 TCPU    52653.28

 MATRIX SIZE: P(G) 1990800, F(G)  996218, P(G) IRR  998104, F(G) IRR  998104
 MAX G-VECTOR INDEX FOR 1- AND 2-ELECTRON INTEGRALS  59

 TTTTTTTTTTTTTTTTTTTTTTTTTTTTTT INPUT       TELAPSE    53232.08 TCPU    52670.54
 TTTTTTTTTTTTTTTTTTTTTTTTTTTTTT SYMM        TELAPSE    53232.08 TCPU    52670.54

 ***** NEW REFERENCE GEOMETRY *****
 TTTTTTTTTTTTTTTTTTTTTTTTTTTTTT INT_SCREEN  TELAPSE    53232.09 TCPU    52670.55
 INFORMATION **** EXCBUF **** EXCH. BIPO BUFFER: WORDS USED =           0

 DFT PARAMETERS

     ATOM       ELECTRONS   NET CHARGE   R(ANGSTROM)
   1   1  H       1.0000      0.0000     1.11000000
   9   6  C       6.0000      0.0000     0.77000000
  33   7  N       7.0000      0.0000     0.74000000
  53  30  ZN     30.0000      0.0000     1.37000000
  55  35  BR     35.0000      0.0000     1.14000000

 SIZE OF GRID=    1861550
 TTTTTTTTTTTTTTTTTTTTTTTTTTTTTT MAKE_GRID2  TELAPSE    53233.36 TCPU    52671.81
 BECKE WEIGHT FUNCTION
 RADSAFE =     2.00
 TOLERANCES - DENSITY:10**- 6; POTENTIAL:10**- 9; GRID WGT:10**-14

 RADIAL INTEGRATION  - INTERVALS (POINTS,UPPER LIMIT):            1( 75,  4.0*R)

 ANGULAR INTEGRATION - INTERVALS (ACCURACY LEVEL [N. POINTS] UPPER LIMIT):
  1(  4[  86]   0.2)  2(  8[ 194]   0.5)  3( 12[ 350]   0.9)  4( 16[ 974]   3.5)
  5( 12[ 350]9999.0)
 TTTTTTTTTTTTTTTTTTTTTTTTTTTTTT INT_CALC    TELAPSE    53233.41 TCPU    52671.86
 CYCLE   0   ALPHA  887.544357  EPSILON    3.021198  DELTA    8.8754E+02
 TTTTTTTTTTTTTTTTTTTTTTTTTTTTTT MOQGAD      TELAPSE    53726.20 TCPU    53161.97
 TTTTTTTTTTTTTTTTTTTTTTTTTTTTTT CP_MONMON   TELAPSE    53735.19 TCPU    53170.93
 DIIS TEST: 0.10043E+03 AT CPHF  CYCLE   1 - MIX    0 %
 CYCLE   1   ALPHA  460.663092  EPSILON    2.049065  DELTA   -4.2688E+02
 TTTTTTTTTTTTTTTTTTTTTTTTTTTTTT MOQGAD      TELAPSE    54233.55 TCPU    53664.60
 TTTTTTTTTTTTTTTTTTTTTTTTTTTTTT CP_MONMON   TELAPSE    54242.52 TCPU    53673.53
 DIIS TEST: 0.91769E+03 AT CPHF  CYCLE   2 - DIIS ACTIVE - HISTORY:     2 CYCLES
 CYCLE   2   ALPHA  646.296094  EPSILON    2.471805  DELTA    1.8563E+02
 TTTTTTTTTTTTTTTTTTTTTTTTTTTTTT MOQGAD      TELAPSE    54739.88 TCPU    54166.83
 TTTTTTTTTTTTTTTTTTTTTTTTTTTTTT CP_MONMON   TELAPSE    54748.85 TCPU    54175.77
 DIIS TEST: 0.50212E+02 AT CPHF  CYCLE   3 - DIIS ACTIVE - HISTORY:     3 CYCLES
 CYCLE   3   ALPHA  702.773071  EPSILON    2.600420  DELTA    5.6477E+01
 TTTTTTTTTTTTTTTTTTTTTTTTTTTTTT MOQGAD      TELAPSE    55247.77 TCPU    54669.65
 TTTTTTTTTTTTTTTTTTTTTTTTTTTTTT CP_MONMON   TELAPSE    55256.75 TCPU    54678.59
 DIIS TEST: 0.57529E+01 AT CPHF  CYCLE   4 - DIIS ACTIVE - HISTORY:     4 CYCLES
 CYCLE   4   ALPHA  704.867667  EPSILON    2.605190  DELTA    2.0946E+00
 TTTTTTTTTTTTTTTTTTTTTTTTTTTTTT MOQGAD      TELAPSE    59359.46 TCPU    55176.39
 TTTTTTTTTTTTTTTTTTTTTTTTTTTTTT CP_MONMON   TELAPSE    59368.43 TCPU    55185.33
 DIIS TEST: 0.23649E+00 AT CPHF  CYCLE   5 - DIIS ACTIVE - HISTORY:     5 CYCLES
 CYCLE   5   ALPHA  705.061809  EPSILON    2.605632  DELTA    1.9414E-01
 TTTTTTTTTTTTTTTTTTTTTTTTTTTTTT MOQGAD      TELAPSE    59875.01 TCPU    55688.34
 TTTTTTTTTTTTTTTTTTTTTTTTTTTTTT CP_MONMON   TELAPSE    59884.00 TCPU    55697.30
 DIIS TEST: 0.33660E-01 AT CPHF  CYCLE   6 - DIIS ACTIVE - HISTORY:     6 CYCLES
 CYCLE   6   ALPHA  705.382866  EPSILON    2.606363  DELTA    3.2106E-01
 TTTTTTTTTTTTTTTTTTTTTTTTTTTTTT MOQGAD      TELAPSE    60385.88 TCPU    56194.60
 TTTTTTTTTTTTTTTTTTTTTTTTTTTTTT CP_MONMON   TELAPSE    60394.86 TCPU    56203.53
 DIIS TEST: 0.93600E-02 AT CPHF  CYCLE   7 - DIIS ACTIVE - HISTORY:     7 CYCLES
 CYCLE   7   ALPHA  705.380287  EPSILON    2.606357  DELTA   -2.5790E-03
 TTTTTTTTTTTTTTTTTTTTTTTTTTTTTT MOQGAD      TELAPSE    60897.46 TCPU    56701.40
 TTTTTTTTTTTTTTTTTTTTTTTTTTTTTT CP_MONMON   TELAPSE    60906.46 TCPU    56710.38
 DIIS TEST: 0.16258E-02 AT CPHF  CYCLE   8 - DIIS ACTIVE - HISTORY:     8 CYCLES
 CYCLE   8   ALPHA  705.376545  EPSILON    2.606349  DELTA   -3.7420E-03
 TTTTTTTTTTTTTTTTTTTTTTTTTTTTTT MOQGAD      TELAPSE    61408.61 TCPU    57207.89
 TTTTTTTTTTTTTTTTTTTTTTTTTTTTTT CP_MONMON   TELAPSE    61417.62 TCPU    57216.86
 DIIS TEST: 0.21560E-03 AT CPHF  CYCLE   9 - DIIS ACTIVE - HISTORY:     9 CYCLES
 CYCLE   9   ALPHA  705.364281  EPSILON    2.606321  DELTA   -1.2264E-02
 TTTTTTTTTTTTTTTTTTTTTTTTTTTTTT MOQGAD      TELAPSE    61919.75 TCPU    57714.40
 TTTTTTTTTTTTTTTTTTTTTTTTTTTTTT CP_MONMON   TELAPSE    61928.73 TCPU    57723.34
 DIIS TEST: 0.26578E-04 AT CPHF  CYCLE  10 - DIIS ACTIVE - HISTORY:    10 CYCLES
 CYCLE  10   ALPHA  705.359956  EPSILON    2.606311  DELTA   -4.3249E-03
 TTTTTTTTTTTTTTTTTTTTTTTTTTTTTT MOQGAD      TELAPSE    62430.08 TCPU    58221.19
 TTTTTTTTTTTTTTTTTTTTTTTTTTTTTT CP_MONMON   TELAPSE    62439.07 TCPU    58230.13
 DIIS TEST: 0.75814E-05 AT CPHF  CYCLE  11 - DIIS ACTIVE - HISTORY:    11 CYCLES
 CYCLE  11   ALPHA  705.356644  EPSILON    2.606304  DELTA   -3.3125E-03
 TTTTTTTTTTTTTTTTTTTTTTTTTTTTTT MOQGAD      TELAPSE    62940.31 TCPU    58727.76
 TTTTTTTTTTTTTTTTTTTTTTTTTTTTTT CP_MONMON   TELAPSE    62949.29 TCPU    58736.70
 DIIS TEST: 0.49243E-06 AT CPHF  CYCLE  12 - DIIS ACTIVE - HISTORY:    12 CYCLES
 CYCLE  12   ALPHA  705.355908  EPSILON    2.606302  DELTA   -7.3555E-04
 TTTTTTTTTTTTTTTTTTTTTTTTTTTTTT CP_SC       TELAPSE    62989.39 TCPU    58772.14

 *******************************************************************************

 POLARIZABILITY (ALPHA), DIELECTRIC (EPSILON) AND FIRST-ORDER ELECTRIC
 SUSCEPTIBILITY (CHI(1)) TENSORS (INDEPENDENT COMPONENTS)

  FR.(eV) COMP.   ALPHA(Re,Im)           EPSILON(Re,Im)                CHI(1)
  2.331   XX    1778.0478       0.0000       5.0491       0.0000       4.0491
  2.331   XY      -0.0014       0.0000      -0.0000       0.0000      -0.0000
  2.331   XZ      -0.0000       0.0000      -0.0000       0.0000      -0.0000
  2.331   YY    1778.0449       0.0000       5.0491       0.0000       4.0491
  2.331   YZ      -0.0000       0.0000      -0.0000       0.0000      -0.0000
  2.331   ZZ     705.3559       0.0000       2.6063       0.0000       1.6063

 DIELECTRIC TENSOR

 TENSOR IN PRINCIPAL AXES SYSTEM
 AA  5.049137E+00 BB  5.049127E+00 CC  2.606302E+00

 REFRACTIVE INDICES 
 AA  1.614404E+00 BB  2.247026E+00 CC  2.247028E+00

 OPTICALLY ANISOTROPIC - UNIAXIAL CRYSTAL

 BIREFRINGENCE =  0.6326 (NEGATIVE) - OBLATE OPTICAL ELLIPSOID

 EPSILON=N**2=1+CHI(1)=1+ALPHA*4*PI/V,   4*PI/V=   0.00228 BOHR**(-3)
 ALPHA IN BOHR**3; EPSILON AND CHI(1) ARE DIMENSIONLESS.
 *******************************************************************************


  Pockels Effect beta(-omega;omega,0) with omega=   1.1653 eV


 SIZE OF GRID=    1861550
 TTTTTTTTTTTTTTTTTTTTTTTTTTTTTT MAKE_GRID2  TELAPSE    63269.25 TCPU    59050.91
 BECKE WEIGHT FUNCTION
 RADSAFE =     2.00
 TOLERANCES - DENSITY:10**- 6; POTENTIAL:10**- 9; GRID WGT:10**-14

 RADIAL INTEGRATION  - INTERVALS (POINTS,UPPER LIMIT):            1( 75,  4.0*R)

 ANGULAR INTEGRATION - INTERVALS (ACCURACY LEVEL [N. POINTS] UPPER LIMIT):
  1(  4[  86]   0.2)  2(  8[ 194]   0.5)  3( 12[ 350]   0.9)  4( 16[ 974]   3.5)
  5( 12[ 350]9999.0)

 SIZE OF GRID=    1861550
 TTTTTTTTTTTTTTTTTTTTTTTTTTTTTT MAKE_GRID2  TELAPSE    63271.40 TCPU    59052.54
 BECKE WEIGHT FUNCTION
 RADSAFE =     2.00
 TOLERANCES - DENSITY:10**- 6; POTENTIAL:10**- 9; GRID WGT:10**-14

 RADIAL INTEGRATION  - INTERVALS (POINTS,UPPER LIMIT):            1( 75,  4.0*R)

 ANGULAR INTEGRATION - INTERVALS (ACCURACY LEVEL [N. POINTS] UPPER LIMIT):
  1(  4[  86]   0.2)  2(  8[ 194]   0.5)  3( 12[ 350]   0.9)  4( 16[ 974]   3.5)
  5( 12[ 350]9999.0)
 *******************************************************************************

 DC-POCKELS AND SECOND ELECTRIC SUSCEPTIBILITY (CHI(2))
 TENSORS (INDEPENDENT COMPONENTS)

BETA                                         CHI(2)       d(MKS)       d(cgs)
 *******************************************************************************

     XXX          0.1035E-02   0.1178E-05   0.1146E-05   0.2733E-07
     XXY          0.6648E-04   0.7569E-07   0.7360E-07   0.1756E-08
     XXZ         -0.3546E+03  -0.4038E+00  -0.3926E+00  -0.9366E-02
     XYX          0.1017E-02   0.1158E-05   0.1126E-05   0.2687E-07
     XYY          0.1477E-02   0.1681E-05   0.1635E-05   0.3900E-07
     XYZ         -0.1723E+04  -0.1962E+01  -0.1908E+01  -0.4551E-01
     XZX         -0.3658E+03  -0.4166E+00  -0.4050E+00  -0.9663E-02
     XZY         -0.1708E+04  -0.1945E+01  -0.1891E+01  -0.4511E-01
     XZZ          0.9541E-03   0.1086E-05   0.1056E-05   0.2520E-07
     YXX          0.8496E-03   0.9674E-06   0.9406E-06   0.2244E-07
     YXY          0.1309E-02   0.1490E-05   0.1449E-05   0.3457E-07
     YXZ         -0.1723E+04  -0.1962E+01  -0.1908E+01  -0.4551E-01
     YYX          0.6086E-03   0.6930E-06   0.6738E-06   0.1608E-07
     YYY          0.1677E-02   0.1909E-05   0.1856E-05   0.4429E-07
     YYZ          0.3546E+03   0.4038E+00   0.3926E+00   0.9367E-02
     YZX         -0.1708E+04  -0.1945E+01  -0.1891E+01  -0.4511E-01
     YZY          0.3658E+03   0.4166E+00   0.4050E+00   0.9663E-02
     YZZ          0.8874E-03   0.1010E-05   0.9825E-06   0.2344E-07
     ZXX         -0.3637E+03  -0.4141E+00  -0.4027E+00  -0.9607E-02
     ZXY         -0.1712E+04  -0.1950E+01  -0.1896E+01  -0.4523E-01
     ZXZ          0.9389E-03   0.1069E-05   0.1039E-05   0.2480E-07
     ZYX         -0.1712E+04  -0.1950E+01  -0.1896E+01  -0.4523E-01
     ZYY          0.3637E+03   0.4142E+00   0.4027E+00   0.9607E-02
     ZYZ          0.8848E-03   0.1007E-05   0.9796E-06   0.2337E-07
     ZZX          0.6554E-04   0.7462E-07   0.7256E-07   0.1731E-08
     ZZY          0.1313E-04   0.1495E-07   0.1454E-07   0.3469E-09
     ZZZ         -0.5189E-02  -0.5908E-05  -0.5745E-05  -0.1370E-06
 *******************************************************************************
 CHI(2) = BETA*2PI/V

 BETA AND CHI(2) IN A.U.:    [BETA] = M**(-1/2) L**(7/2) T
                             [CHI(2)] = 1/F
                             (L=LENGTH, M=MASS, T=TIME, F=FIELD INTENSITY)

 ELECTRIC SUSCEPTIBILITY IN THE SECOND HARMONIC GENERATION (SHG) CONVENTION IS:
                   d(A.U.)= 1/2 CHI(2)
                   d(MKS) = d(A.U.)/0.514220632 pm/V
                   d(CGS) = d(A.U.)/(4PI*1.7152535)  10**(-7) esu

 FIELD INTENSITY: 1 A.U. = 0.514220632*10**(11) V/m = 1.7152535*10**7 esu
 BEWARE:                CHI(2)=P/(E0*F**2)   (MKS)
                        CHI(2)=P/F**2        (CGS)
 WHERE P IS THE POLARIZATION VECTOR AND F IS THE APPLIED ELECTRIC FIELD.
 CONSISTENCY IS  PRESERVED BY MULTIPLYING THE CGS VALUE TIMES THE PERMITTIVITY
 OF THE VACUUM, E0 (CONVERSION FACTORS FROM www.physics.nist.gov/constants).
 IN PARENTHESIS: BETA BEFORE SYMMETRIZATION.

  SHG Effect beta(-2omega;omega,omega) with omega=   1.1653 eV


 SIZE OF GRID=    1861550
 TTTTTTTTTTTTTTTTTTTTTTTTTTTTTT MAKE_GRID2  TELAPSE    63554.61 TCPU    59334.99
 BECKE WEIGHT FUNCTION
 RADSAFE =     2.00
 TOLERANCES - DENSITY:10**- 6; POTENTIAL:10**- 9; GRID WGT:10**-14

 RADIAL INTEGRATION  - INTERVALS (POINTS,UPPER LIMIT):            1( 75,  4.0*R)

 ANGULAR INTEGRATION - INTERVALS (ACCURACY LEVEL [N. POINTS] UPPER LIMIT):
  1(  4[  86]   0.2)  2(  8[ 194]   0.5)  3( 12[ 350]   0.9)  4( 16[ 974]   3.5)
  5( 12[ 350]9999.0)

 SIZE OF GRID=    1861550
 TTTTTTTTTTTTTTTTTTTTTTTTTTTTTT MAKE_GRID2  TELAPSE    63556.06 TCPU    59336.43
 BECKE WEIGHT FUNCTION
 RADSAFE =     2.00
 TOLERANCES - DENSITY:10**- 6; POTENTIAL:10**- 9; GRID WGT:10**-14

 RADIAL INTEGRATION  - INTERVALS (POINTS,UPPER LIMIT):            1( 75,  4.0*R)

 ANGULAR INTEGRATION - INTERVALS (ACCURACY LEVEL [N. POINTS] UPPER LIMIT):
  1(  4[  86]   0.2)  2(  8[ 194]   0.5)  3( 12[ 350]   0.9)  4( 16[ 974]   3.5)
  5( 12[ 350]9999.0)
 *******************************************************************************

 SECOND HARMONIC GENERATION (SHG)  AND SECOND ELECTRIC SUSCEPTIBILITY (CHI(2))
 TENSORS (INDEPENDENT COMPONENTS)

BETA                                         CHI(2)       d(MKS)       d(cgs)
 *******************************************************************************

     XXX          0.3382E-02   0.3851E-05   0.3745E-05   0.8934E-07
     XXY          0.1572E-02   0.1790E-05   0.1741E-05   0.4152E-07
     XXZ         -0.6494E+03  -0.7394E+00  -0.7190E+00  -0.1715E-01
     XYX          0.1572E-02   0.1790E-05   0.1741E-05   0.4152E-07
     XYY          0.1489E-02   0.1695E-05   0.1648E-05   0.3933E-07
     XYZ         -0.2523E+04  -0.2872E+01  -0.2793E+01  -0.6663E-01
     XZX         -0.6494E+03  -0.7394E+00  -0.7190E+00  -0.1715E-01
     XZY         -0.2523E+04  -0.2872E+01  -0.2793E+01  -0.6663E-01
     XZZ          0.9911E-03   0.1128E-05   0.1097E-05   0.2618E-07
     YXX         -0.4557E-04  -0.5188E-07  -0.5045E-07  -0.1204E-08
     YXY          0.2178E-02   0.2480E-05   0.2412E-05   0.5754E-07
     YXZ         -0.2523E+04  -0.2872E+01  -0.2793E+01  -0.6663E-01
     YYX          0.2178E-02   0.2480E-05   0.2412E-05   0.5754E-07
     YYY          0.1411E-02   0.1606E-05   0.1562E-05   0.3726E-07
     YYZ          0.6494E+03   0.7394E+00   0.7190E+00   0.1715E-01
     YZX         -0.2523E+04  -0.2872E+01  -0.2793E+01  -0.6663E-01
     YZY          0.6494E+03   0.7394E+00   0.7190E+00   0.1715E-01
     YZZ          0.9647E-03   0.1098E-05   0.1068E-05   0.2548E-07
     ZXX         -0.7477E+03  -0.8513E+00  -0.8278E+00  -0.1975E-01
     ZXY         -0.2844E+04  -0.3238E+01  -0.3148E+01  -0.7511E-01
     ZXZ          0.7472E-03   0.8508E-06   0.8273E-06   0.1974E-07
     ZYX         -0.2844E+04  -0.3238E+01  -0.3148E+01  -0.7511E-01
     ZYY          0.7477E+03   0.8514E+00   0.8278E+00   0.1975E-01
     ZYZ          0.1006E-02   0.1146E-05   0.1114E-05   0.2657E-07
     ZZX          0.7472E-03   0.8508E-06   0.8273E-06   0.1974E-07
     ZZY          0.1006E-02   0.1146E-05   0.1114E-05   0.2657E-07
     ZZZ         -0.8142E-02  -0.9271E-05  -0.9015E-05  -0.2151E-06
 *******************************************************************************
 CHI(2) = BETA*2PI/V

 BETA AND CHI(2) IN A.U.:    [BETA] = M**(-1/2) L**(7/2) T
                             [CHI(2)] = 1/F
                             (L=LENGTH, M=MASS, T=TIME, F=FIELD INTENSITY)

 ELECTRIC SUSCEPTIBILITY IN THE SECOND HARMONIC GENERATION (SHG) CONVENTION IS:
                   d(A.U.)= 1/2 CHI(2)
                   d(MKS) = d(A.U.)/0.514220632 pm/V
                   d(CGS) = d(A.U.)/(4PI*1.7152535)  10**(-7) esu

 FIELD INTENSITY: 1 A.U. = 0.514220632*10**(11) V/m = 1.7152535*10**7 esu
 BEWARE:                CHI(2)=P/(E0*F**2)   (MKS)
                        CHI(2)=P/F**2        (CGS)
 WHERE P IS THE POLARIZATION VECTOR AND F IS THE APPLIED ELECTRIC FIELD.
 CONSISTENCY IS  PRESERVED BY MULTIPLYING THE CGS VALUE TIMES THE PERMITTIVITY
 OF THE VACUUM, E0 (CONVERSION FACTORS FROM www.physics.nist.gov/constants).
 IN PARENTHESIS: BETA BEFORE SYMMETRIZATION.

 *******************************************************************************


 GCALCO - MAX INDICES DIRECT LATTICE VECTOR    14    14    15
 NO.OF VECTORS CREATED 6999 STARS  490 RMAX   209.84922 BOHR

 CAPPA:IS1  3;IS2  3;IS3  3; K PTS MONK NET   6; SYMMOPS:K SPACE   8;G SPACE   4

 TTTTTTTTTTTTTTTTTTTTTTTTTTTTTT END         TELAPSE    63556.23 TCPU    59336.60
 EEEEEEEEEE TERMINATION  DATE 10 03 2024 TIME 04:11:20.1
NODE    0 CPU TIME =     59336.596
    TOTAL CPU TIME =   3799123.311
