Loading crystal17/1.0.2/intel/19.0
  Loading requirement: intel/19.0 ompi/4.0.1/intel/19.0
          64 PROCESSORS WORKING

         
 *******************************************************************************
 *                                                                             *
 *                               CRYSTAL17                                     *
 *                      public : 1.0.2 - March 1st, 2018                       *
 *                       HTTP://WWW.CRYSTAL.UNITO.IT                           *
 *                                                                             *
 *                              MAIN AUTHORS                                   *
 *                                                                             *
 *  R. DOVESI(1,11), V.R. SAUNDERS(2), C. ROETTI(1,11), R. ORLANDO(1,11),      *
 *  C.M. ZICOVICH-WILSON(1,3), F. PASCALE(4), B. CIVALLERI(1,11),              *
 *  K. DOLL(5), N.M. HARRISON(2,6), I.J. BUSH(7), Ph. D'ARCO(8),               *
 *  M. LLUNELL(9), M. CAUSA'(10), Y. NOEL(8), L. MASCHIO(1,11), A. ERBA(1,11)  *
 *  M. RE'RAT(14), S. CASASSA(1,11)                                            *
 *                                                                             *
 *        CONTRIBUTIONS TO THE CODE HAVE ALSO BEEN GIVEN BY                    *
 *                                                                             *
 *  M. FERRABONE(1,11), M. DE LA PIERRE(1,11), M. FERRERO(1,11),               *
 *  J. BAIMA(1,11), E. ALBANESE(1,11), M.F. PEINTINGER(12), R. BAST(13),       *
 *  B. KIRTMAN(15), V. LACIVITA(1,11), R. DEMICHELIS(1,16)                     *
 *  G. BRANDEBURG(17), S. SALUSTRO(1,11), G. SANSONE(1,11)                     *
 *  M.T. RUGGIERO(18)                                                          *
 *                                                                             *
 * (1) THEORETICAL CHEMISTRY GROUP - UNIVERSITA' DI TORINO - TORINO (ITALY)    *
 * (2) COMPUTATIONAL SCIENCE & ENGINEERING DEPARTMENT - STFC DARESBURY (UK)    *
 * (3) UNIVERSIDAD AUTONOMA DEL ESTADO DE MORELOS - CUERNAVACA (MEXICO)        *
 * (4) UNIVERSITE' DE LORRAINE - NANCY (FRANCE)                                *
 * (5) UNIVERSITAET STUTTGART- STUTTGART (GERMANY)                             *
 * (6) IMPERIAL COLLEGE - LONDON (UK)                                          *
 * (7) OXFORD E-RESEARCH CENTRE - OXFORD (UK)                                  *
 * (8) UPMC - SORBONNE UNIVERSITES - PARIS (FRANCE)                            *
 * (9) UNIVERSIDAD DE BARCELONA - BARCELONA (SPAIN)                            *
 *(10) UNIVERSITA' DI NAPOLI "FEDERICO II" - NAPOLI (ITALY)                    *
 *(11) NIS - NANOSTRUCTURED INTERFACES AND SURFACES - TORINO (ITALY)           *
 *(12) MPI FUER CHEMISCHE ENERGIEKONVERSION - MUELHEIM AN DER RUHR (GERMANY)   *
 *(13) UNIVERSITY OF TROMSO - TROMSO (NORWAY)                                  *
 *(14) UNIVERSITE' DE PAU ET DES PAYS DE L'ADOUR - PAU (FRANCE)                *
 *(15) UNIVERSITY OF CALIFORNIA SANTA BARBARA - SANTA BARBARA (USA)            *
 *(16) CURTIN UNIVERSITY - PERTH (AUSTRALIA)                                   *
 *(17) UNIVERSITY COLLEGE LONDON - LONDON (UK)                                 *
 *(18) CAMBRIDGE UNIVERSITY - CAMBRIDGE (UK)                                   *
 *                                                                             *
 *******************************************************************************
 EEEEEEEEEE STARTING  DATE 09 03 2024 TIME 13:58:23.0
 Z:\home\sanoj\Downloads\tmp_p\newconn.mol                                       

 CRYSTAL CALCULATION
 (INPUT ACCORDING TO THE INTERNATIONAL TABLES FOR X-RAY CRYSTALLOGRAPHY)
 CRYSTAL FAMILY                       :  TETRAGONAL  
 CRYSTAL CLASS  (GROTH - 1921)        :  TETRAGONAL DISPHENOIDAL              

 SPACE GROUP (NONCENTROSYMMETRIC)     :  I -4            

 LATTICE PARAMETERS  (ANGSTROMS AND DEGREES) - CONVENTIONAL CELL
        A           B           C        ALPHA        BETA       GAMMA
    11.73031    11.73031    12.95694    90.00000    90.00000    90.00000


 NUMBER OF IRREDUCIBLE ATOMS IN THE CONVENTIONAL CELL:   17

 INPUT COORDINATES

 ATOM AT. N.              COORDINATES
   1   1    -4.232000000000E-02  6.419300000000E-01  1.008300000000E-01
   2   6     7.750400000000E-01  6.646500000000E-01  1.205500000000E-01
   3   6     7.575600000000E-01  5.425400000000E-01  1.290500000000E-01
   4   6     6.893800000000E-01  7.488200000000E-01  1.246800000000E-01
   5   6     8.391000000000E-01  8.921000000000E-01  1.218300000000E-01
   6   6     8.886700000000E-01  7.031800000000E-01  1.124400000000E-01
   7   6     2.767900000000E-01  1.367600000000E-01  1.238800000000E-01
   8   7     8.421200000000E-01  4.724800000000E-01  1.656600000000E-01
   9   7     8.005800000000E-01  3.629000000000E-01  1.571000000000E-01
  10   7     6.654200000000E-01  4.792400000000E-01  1.004600000000E-01
  11   7     6.958900000000E-01  3.673500000000E-01  1.190100000000E-01
  12   7    -8.027000000000E-02  8.125500000000E-01  1.157100000000E-01
  13  30     0.000000000000E+00  5.000000000000E-01  2.500000000000E-01
  14  30     0.000000000000E+00  0.000000000000E+00  5.000000000000E-01
  15  35     5.317600000000E-01  7.155900000000E-01  1.313700000000E-01
  16  35     6.177500000000E-01 -1.863000000000E-02  1.242300000000E-01
  17  35     8.769200000000E-01  4.879000000000E-02  1.223300000000E-01

 *******************************************************************************

 << INFORMATION >>: FROM NOW ON, ALL COORDINATES REFER TO THE PRIMITIVE CELL

 *******************************************************************************

 LATTICE PARAMETERS  (ANGSTROMS AND DEGREES) - PRIMITIVE CELL
       A          B          C        ALPHA      BETA     GAMMA        VOLUME
   10.52476   10.52476   10.52476   112.26533 112.26533 104.01687    891.438226

 COORDINATES OF THE EQUIVALENT ATOMS (FRACTIONAL UNITS)

 N. ATOM EQUIV AT. N.          X                  Y                  Z

   1   1   1    1 H    -2.57240000000E-01  5.85100000000E-02 -4.00390000000E-01
   2   1   2    1 H     4.58900000000E-01  1.43150000000E-01  4.00390000000E-01
   3   1   3    1 H    -5.85100000000E-02 -4.58900000000E-01 -3.15750000000E-01
   4   1   4    1 H    -1.43150000000E-01  2.57240000000E-01  3.15750000000E-01

   5   2   1    6 C    -2.14800000000E-01 -1.04410000000E-01  4.39690000000E-01
   6   2   2    6 C     4.55900000000E-01  3.45510000000E-01 -4.39690000000E-01
   7   2   3    6 C     1.04410000000E-01 -4.55900000000E-01 -1.10390000000E-01
   8   2   4    6 C    -3.45510000000E-01  2.14800000000E-01  1.10390000000E-01

   9   3   1    6 C    -3.28410000000E-01 -1.13390000000E-01  3.00100000000E-01
  10   3   2    6 C    -4.13490000000E-01  3.71490000000E-01 -3.00100000000E-01
  11   3   3    6 C     1.13390000000E-01  4.13490000000E-01 -2.15020000000E-01
  12   3   4    6 C    -3.71490000000E-01  3.28410000000E-01  2.15020000000E-01

  13   4   1    6 C    -1.26500000000E-01 -1.85940000000E-01  4.38200000000E-01
  14   4   2    6 C     3.75860000000E-01  4.35300000000E-01 -4.38200000000E-01
  15   4   3    6 C     1.85940000000E-01 -3.75860000000E-01  5.94400000000E-02
  16   4   4    6 C    -4.35300000000E-01  1.26500000000E-01 -5.94400000000E-02

  17   5   1    6 C     1.39300000000E-02 -3.90700000000E-02 -2.68800000000E-01
  18   5   2    6 C     2.29730000000E-01  2.82730000000E-01  2.68800000000E-01
  19   5   3    6 C     3.90700000000E-02 -2.29730000000E-01  5.30000000000E-02
  20   5   4    6 C    -2.82730000000E-01 -1.39300000000E-02 -5.30000000000E-02

  21   6   1    6 C    -1.84380000000E-01  1.11000000000E-03 -4.08150000000E-01
  22   6   2    6 C     4.09260000000E-01  2.23770000000E-01  4.08150000000E-01
  23   6   3    6 C    -1.11000000000E-03 -4.09260000000E-01 -1.85490000000E-01
  24   6   4    6 C    -2.23770000000E-01  1.84380000000E-01  1.85490000000E-01

  25   7   1    6 C     2.60640000000E-01  4.00670000000E-01  4.13550000000E-01
  26   7   2    6 C    -1.28800000000E-02 -1.52910000000E-01 -4.13550000000E-01
  27   7   3    6 C    -4.00670000000E-01  1.28800000000E-02 -1.40030000000E-01
  28   7   4    6 C     1.52910000000E-01 -2.60640000000E-01  1.40030000000E-01

  29   8   1    7 N    -3.61860000000E-01  7.78000000000E-03  3.14600000000E-01
  30   8   2    7 N    -3.06820000000E-01  3.23540000000E-01 -3.14600000000E-01
  31   8   3    7 N    -7.78000000000E-03  3.06820000000E-01 -3.69640000000E-01
  32   8   4    7 N    -3.23540000000E-01  3.61860000000E-01  3.69640000000E-01

  33   9   1    7 N    -4.80000000000E-01 -4.23200000000E-02  1.63480000000E-01
  34   9   2    7 N    -2.05800000000E-01  3.56520000000E-01 -1.63480000000E-01
  35   9   3    7 N     4.23200000000E-02  2.05800000000E-01 -4.37680000000E-01
  36   9   4    7 N    -3.56520000000E-01  4.80000000000E-01  4.37680000000E-01

  37  10   1    7 N    -4.20300000000E-01 -2.34120000000E-01  1.44660000000E-01
  38  10   2    7 N    -3.78780000000E-01  4.35040000000E-01 -1.44660000000E-01
  39  10   3    7 N     2.34120000000E-01  3.78780000000E-01 -1.86180000000E-01
  40  10   4    7 N    -4.35040000000E-01  4.20300000000E-01  1.86180000000E-01

  41  11   1    7 N     4.86360000000E-01 -1.85100000000E-01  6.32400000000E-02
  42  11   2    7 N    -2.48340000000E-01  4.23120000000E-01 -6.32400000000E-02
  43  11   3    7 N     1.85100000000E-01  2.48340000000E-01 -3.28540000000E-01
  44  11   4    7 N    -4.23120000000E-01 -4.86360000000E-01  3.28540000000E-01

  45  12   1    7 N    -7.17400000000E-02  3.54400000000E-02 -2.67720000000E-01
  46  12   2    7 N     3.03160000000E-01  1.95980000000E-01  2.67720000000E-01
  47  12   3    7 N    -3.54400000000E-02 -3.03160000000E-01 -1.07180000000E-01
  48  12   4    7 N    -1.95980000000E-01  7.17400000000E-02  1.07180000000E-01

  49  13   1   30 ZN   -2.50000000000E-01  2.50000000000E-01 -5.00000000000E-01

  50  14   1   30 ZN   -5.00000000000E-01 -5.00000000000E-01  0.00000000000E+00

  51  15   1   35 BR   -1.53040000000E-01 -3.36870000000E-01  2.47350000000E-01
  52  15   2   35 BR    4.15780000000E-01 -4.00390000000E-01 -2.47350000000E-01
  53  15   3   35 BR    3.36870000000E-01 -4.15780000000E-01  1.83830000000E-01
  54  15   4   35 BR    4.00390000000E-01  1.53040000000E-01 -1.83830000000E-01

  55  16   1   35 BR    1.05600000000E-01 -2.58020000000E-01 -4.00880000000E-01
  56  16   2   35 BR    1.42860000000E-01 -4.93520000000E-01  4.00880000000E-01
  57  16   3   35 BR    2.58020000000E-01 -1.42860000000E-01  3.63620000000E-01
  58  16   4   35 BR    4.93520000000E-01 -1.05600000000E-01 -3.63620000000E-01

  59  17   1   35 BR    1.71120000000E-01 -7.50000000000E-04 -7.42900000000E-02
  60  17   2   35 BR    7.35400000000E-02  2.45410000000E-01  7.42900000000E-02
  61  17   3   35 BR    7.50000000000E-04 -7.35400000000E-02  1.71870000000E-01
  62  17   4   35 BR   -2.45410000000E-01 -1.71120000000E-01 -1.71870000000E-01

 NUMBER OF SYMMETRY OPERATORS         :    4
 *******************************************************************************
 * GEOMETRY EDITING - INPUT COORDINATES ARE GIVEN IN ANGSTROM         
 *******************************************************************************

 GEOMETRY NOW FULLY CONSISTENT WITH THE GROUP

 GCALCO - MAX INDICES DIRECT LATTICE VECTOR    14    14    15
 NO.OF VECTORS CREATED 6999 STARS  488 RMAX   215.92170 BOHR

 GEOMETRY FOR WAVE FUNCTION - DIMENSIONALITY OF THE SYSTEM    3
 (NON PERIODIC DIRECTION: LATTICE PARAMETER FORMALLY SET TO 500)
 *******************************************************************************
 LATTICE PARAMETERS (ANGSTROMS AND DEGREES) - BOHR = 0.5291772083 ANGSTROM
 PRIMITIVE CELL - CENTRING CODE 6/0 VOLUME=   891.438226 - DENSITY  3.068 g/cm^3
         A              B              C           ALPHA      BETA       GAMMA 
    10.52476278    10.52476278    10.52476278   112.265328 112.265328 104.016871
 *******************************************************************************
 ATOMS IN THE ASYMMETRIC UNIT   17 - ATOMS IN THE UNIT CELL:   62
     ATOM                 X/A                 Y/B                 Z/C    
 *******************************************************************************
      1 T   1 H    -2.572400000000E-01  5.851000000000E-02 -4.003900000000E-01
      2 F   1 H     4.589000000000E-01  1.431500000000E-01  4.003900000000E-01
      3 F   1 H    -5.851000000000E-02 -4.589000000000E-01 -3.157500000000E-01
      4 F   1 H    -1.431500000000E-01  2.572400000000E-01  3.157500000000E-01
      5 T   6 C    -2.148000000000E-01 -1.044100000000E-01  4.396900000000E-01
      6 F   6 C     4.559000000000E-01  3.455100000000E-01 -4.396900000000E-01
      7 F   6 C     1.044100000000E-01 -4.559000000000E-01 -1.103900000000E-01
      8 F   6 C    -3.455100000000E-01  2.148000000000E-01  1.103900000000E-01
      9 T   6 C    -3.284100000000E-01 -1.133900000000E-01  3.001000000000E-01
     10 F   6 C    -4.134900000000E-01  3.714900000000E-01 -3.001000000000E-01
     11 F   6 C     1.133900000000E-01  4.134900000000E-01 -2.150200000000E-01
     12 F   6 C    -3.714900000000E-01  3.284100000000E-01  2.150200000000E-01
     13 T   6 C    -1.265000000000E-01 -1.859400000000E-01  4.382000000000E-01
     14 F   6 C     3.758600000000E-01  4.353000000000E-01 -4.382000000000E-01
     15 F   6 C     1.859400000000E-01 -3.758600000000E-01  5.944000000000E-02
     16 F   6 C    -4.353000000000E-01  1.265000000000E-01 -5.944000000000E-02
     17 T   6 C     1.393000000000E-02 -3.907000000000E-02 -2.688000000000E-01
     18 F   6 C     2.297300000000E-01  2.827300000000E-01  2.688000000000E-01
     19 F   6 C     3.907000000000E-02 -2.297300000000E-01  5.300000000000E-02
     20 F   6 C    -2.827300000000E-01 -1.393000000000E-02 -5.300000000000E-02
     21 T   6 C    -1.843800000000E-01  1.110000000000E-03 -4.081500000000E-01
     22 F   6 C     4.092600000000E-01  2.237700000000E-01  4.081500000000E-01
     23 F   6 C    -1.110000000000E-03 -4.092600000000E-01 -1.854900000000E-01
     24 F   6 C    -2.237700000000E-01  1.843800000000E-01  1.854900000000E-01
     25 T   6 C     2.606400000000E-01  4.006700000000E-01  4.135500000000E-01
     26 F   6 C    -1.288000000000E-02 -1.529100000000E-01 -4.135500000000E-01
     27 F   6 C    -4.006700000000E-01  1.288000000000E-02 -1.400300000000E-01
     28 F   6 C     1.529100000000E-01 -2.606400000000E-01  1.400300000000E-01
     29 T   7 N    -3.618600000000E-01  7.780000000000E-03  3.146000000000E-01
     30 F   7 N    -3.068200000000E-01  3.235400000000E-01 -3.146000000000E-01
     31 F   7 N    -7.780000000000E-03  3.068200000000E-01 -3.696400000000E-01
     32 F   7 N    -3.235400000000E-01  3.618600000000E-01  3.696400000000E-01
     33 T   7 N    -4.800000000000E-01 -4.232000000000E-02  1.634800000000E-01
     34 F   7 N    -2.058000000000E-01  3.565200000000E-01 -1.634800000000E-01
     35 F   7 N     4.232000000000E-02  2.058000000000E-01 -4.376800000000E-01
     36 F   7 N    -3.565200000000E-01  4.800000000000E-01  4.376800000000E-01
     37 T   7 N    -4.203000000000E-01 -2.341200000000E-01  1.446600000000E-01
     38 F   7 N    -3.787800000000E-01  4.350400000000E-01 -1.446600000000E-01
     39 F   7 N     2.341200000000E-01  3.787800000000E-01 -1.861800000000E-01
     40 F   7 N    -4.350400000000E-01  4.203000000000E-01  1.861800000000E-01
     41 T   7 N     4.863600000000E-01 -1.851000000000E-01  6.324000000000E-02
     42 F   7 N    -2.483400000000E-01  4.231200000000E-01 -6.324000000000E-02
     43 F   7 N     1.851000000000E-01  2.483400000000E-01 -3.285400000000E-01
     44 F   7 N    -4.231200000000E-01 -4.863600000000E-01  3.285400000000E-01
     45 T   7 N    -7.174000000000E-02  3.544000000000E-02 -2.677200000000E-01
     46 F   7 N     3.031600000000E-01  1.959800000000E-01  2.677200000000E-01
     47 F   7 N    -3.544000000000E-02 -3.031600000000E-01 -1.071800000000E-01
     48 F   7 N    -1.959800000000E-01  7.174000000000E-02  1.071800000000E-01
     49 T  30 ZN   -2.500000000000E-01  2.500000000000E-01  5.000000000000E-01
     50 T  30 ZN   -5.000000000000E-01 -5.000000000000E-01  0.000000000000E+00
     51 T  35 BR   -1.530400000000E-01 -3.368700000000E-01  2.473500000000E-01
     52 F  35 BR    4.157800000000E-01 -4.003900000000E-01 -2.473500000000E-01
     53 F  35 BR    3.368700000000E-01 -4.157800000000E-01  1.838300000000E-01
     54 F  35 BR    4.003900000000E-01  1.530400000000E-01 -1.838300000000E-01
     55 T  35 BR    1.056000000000E-01 -2.580200000000E-01 -4.008800000000E-01
     56 F  35 BR    1.428600000000E-01 -4.935200000000E-01  4.008800000000E-01
     57 F  35 BR    2.580200000000E-01 -1.428600000000E-01  3.636200000000E-01
     58 F  35 BR    4.935200000000E-01 -1.056000000000E-01 -3.636200000000E-01
     59 T  35 BR    1.711200000000E-01 -7.500000000000E-04 -7.429000000000E-02
     60 F  35 BR    7.354000000000E-02  2.454100000000E-01  7.429000000000E-02
     61 F  35 BR    7.500000000000E-04 -7.354000000000E-02  1.718700000000E-01
     62 F  35 BR   -2.454100000000E-01 -1.711200000000E-01 -1.718700000000E-01

 TRANSFORMATION MATRIX PRIMITIVE-CRYSTALLOGRAPHIC CELL
  0.0000  1.0000  1.0000  1.0000  0.0000  1.0000  1.0000  1.0000  0.0000

 *******************************************************************************
 CRYSTALLOGRAPHIC CELL (VOLUME=       1782.87645293)
         A              B              C           ALPHA      BETA       GAMMA 
    11.73030772    11.73030772    12.95693975    90.000000  90.000000  90.000000

 COORDINATES IN THE CRYSTALLOGRAPHIC CELL
     ATOM                 X/A                 Y/B                 Z/C    
 *******************************************************************************
      1 T   1 H    -4.232000000000E-02 -3.580700000000E-01  1.008300000000E-01
      2 F   1 H     4.232000000000E-02  3.580700000000E-01  1.008300000000E-01
      3 F   1 H    -3.580700000000E-01  4.232000000000E-02 -1.008300000000E-01
      4 F   1 H     3.580700000000E-01 -4.232000000000E-02 -1.008300000000E-01
      5 T   6 C    -2.249600000000E-01 -3.353500000000E-01  1.205500000000E-01
      6 F   6 C     2.249600000000E-01  3.353500000000E-01  1.205500000000E-01
      7 F   6 C    -3.353500000000E-01  2.249600000000E-01 -1.205500000000E-01
      8 F   6 C     3.353500000000E-01 -2.249600000000E-01 -1.205500000000E-01
      9 T   6 C     2.575600000000E-01  4.254000000000E-02 -3.709500000000E-01
     10 F   6 C    -2.575600000000E-01 -4.254000000000E-02 -3.709500000000E-01
     11 F   6 C     4.254000000000E-02 -2.575600000000E-01  3.709500000000E-01
     12 F   6 C    -4.254000000000E-02  2.575600000000E-01  3.709500000000E-01
     13 T   6 C    -3.106200000000E-01 -2.511800000000E-01  1.246800000000E-01
     14 F   6 C     3.106200000000E-01  2.511800000000E-01  1.246800000000E-01
     15 F   6 C    -2.511800000000E-01  3.106200000000E-01 -1.246800000000E-01
     16 F   6 C     2.511800000000E-01 -3.106200000000E-01 -1.246800000000E-01
     17 T   6 C    -1.609000000000E-01 -1.079000000000E-01  1.218300000000E-01
     18 F   6 C     1.609000000000E-01  1.079000000000E-01  1.218300000000E-01
     19 F   6 C    -1.079000000000E-01  1.609000000000E-01 -1.218300000000E-01
     20 F   6 C     1.079000000000E-01 -1.609000000000E-01 -1.218300000000E-01
     21 T   6 C    -1.113300000000E-01 -2.968200000000E-01  1.124400000000E-01
     22 F   6 C     1.113300000000E-01  2.968200000000E-01  1.124400000000E-01
     23 F   6 C    -2.968200000000E-01  1.113300000000E-01 -1.124400000000E-01
     24 F   6 C     2.968200000000E-01 -1.113300000000E-01 -1.124400000000E-01
     25 T   6 C     2.767900000000E-01  1.367600000000E-01  1.238800000000E-01
     26 F   6 C    -2.767900000000E-01 -1.367600000000E-01  1.238800000000E-01
     27 F   6 C     1.367600000000E-01 -2.767900000000E-01 -1.238800000000E-01
     28 F   6 C    -1.367600000000E-01  2.767900000000E-01 -1.238800000000E-01
     29 T   7 N     3.421200000000E-01 -2.752000000000E-02 -3.343400000000E-01
     30 F   7 N    -3.421200000000E-01  2.752000000000E-02 -3.343400000000E-01
     31 F   7 N    -2.752000000000E-02 -3.421200000000E-01  3.343400000000E-01
     32 F   7 N     2.752000000000E-02  3.421200000000E-01  3.343400000000E-01
     33 T   7 N    -1.994200000000E-01  3.629000000000E-01  1.571000000000E-01
     34 F   7 N     1.994200000000E-01 -3.629000000000E-01  1.571000000000E-01
     35 F   7 N     3.629000000000E-01  1.994200000000E-01 -1.571000000000E-01
     36 F   7 N    -3.629000000000E-01 -1.994200000000E-01 -1.571000000000E-01
     37 T   7 N     1.654200000000E-01 -2.076000000000E-02 -3.995400000000E-01
     38 F   7 N    -1.654200000000E-01  2.076000000000E-02 -3.995400000000E-01
     39 F   7 N    -2.076000000000E-02 -1.654200000000E-01  3.995400000000E-01
     40 F   7 N     2.076000000000E-02  1.654200000000E-01  3.995400000000E-01
     41 T   7 N     1.958900000000E-01 -1.326500000000E-01 -3.809900000000E-01
     42 F   7 N    -1.958900000000E-01  1.326500000000E-01 -3.809900000000E-01
     43 F   7 N    -1.326500000000E-01 -1.958900000000E-01  3.809900000000E-01
     44 F   7 N     1.326500000000E-01  1.958900000000E-01  3.809900000000E-01
     45 T   7 N    -8.027000000000E-02 -1.874500000000E-01  1.157100000000E-01
     46 F   7 N     8.027000000000E-02  1.874500000000E-01  1.157100000000E-01
     47 F   7 N    -1.874500000000E-01  8.027000000000E-02 -1.157100000000E-01
     48 F   7 N     1.874500000000E-01 -8.027000000000E-02 -1.157100000000E-01
     49 T  30 ZN   -4.006747205482E-17 -5.000000000000E-01  2.500000000000E-01
     50 T  30 ZN    0.000000000000E+00  0.000000000000E+00 -5.000000000000E-01
     51 T  35 BR    3.176000000000E-02  2.155900000000E-01 -3.686300000000E-01
     52 F  35 BR   -3.176000000000E-02 -2.155900000000E-01 -3.686300000000E-01
     53 F  35 BR    2.155900000000E-01 -3.176000000000E-02  3.686300000000E-01
     54 F  35 BR   -2.155900000000E-01  3.176000000000E-02  3.686300000000E-01
     55 T  35 BR   -3.822500000000E-01 -1.863000000000E-02  1.242300000000E-01
     56 F  35 BR    3.822500000000E-01  1.863000000000E-02  1.242300000000E-01
     57 F  35 BR   -1.863000000000E-02  3.822500000000E-01 -1.242300000000E-01
     58 F  35 BR    1.863000000000E-02 -3.822500000000E-01 -1.242300000000E-01
     59 T  35 BR   -1.230800000000E-01  4.879000000000E-02  1.223300000000E-01
     60 F  35 BR    1.230800000000E-01 -4.879000000000E-02  1.223300000000E-01
     61 F  35 BR    4.879000000000E-02  1.230800000000E-01 -1.223300000000E-01
     62 F  35 BR   -4.879000000000E-02 -1.230800000000E-01 -1.223300000000E-01

 T = ATOM BELONGING TO THE ASYMMETRIC UNIT

 ****    4 SYMMOPS - TRANSLATORS IN FRACTIONAL UNITS
 **** MATRICES AND TRANSLATORS IN THE CRYSTALLOGRAPHIC REFERENCE FRAME
   V INV                    ROTATION MATRICES                   TRANSLATORS
   1   1  1.00  0.00  0.00  0.00  1.00  0.00  0.00  0.00  1.00  0.00  0.00  0.00
   2   2  0.00  1.00 -1.00  1.00  0.00 -1.00 -0.00  0.00 -1.00  0.00  0.00  0.00
   3   4 -0.00 -1.00  0.00 -0.00 -1.00  1.00  1.00 -1.00  0.00  0.00  0.00  0.00
   4   3 -1.00 -0.00  1.00 -1.00 -0.00  0.00 -1.00  1.00 -0.00  0.00  0.00  0.00

 DIRECT LATTICE VECTORS CARTESIAN COMPONENTS (ANGSTROM)
          X                    Y                    Z
  -0.586515385805E+01   0.586515385805E+01   0.647846987490E+01
   0.586515385805E+01  -0.586515385805E+01   0.647846987490E+01
   0.586515385805E+01   0.586515385805E+01  -0.647846987490E+01


 CARTESIAN COORDINATES - PRIMITIVE CELL
 *******************************************************************************
 *      ATOM          X(ANGSTROM)         Y(ANGSTROM)         Z(ANGSTROM)
 *******************************************************************************
    1     1 H    -4.964266225454E-01 -4.200271283904E+00  1.306448234972E+00
    2     1 H     4.964266225454E-01  4.200271283904E+00  1.306448234972E+00
    3     1 H    -4.200271283904E+00  4.964266225454E-01 -1.306448234972E+00
    4     1 H     4.200271283904E+00 -4.964266225454E-01 -1.306448234972E+00
    5     6 C    -2.638850023814E+00 -3.933758692594E+00  1.561959086838E+00
    6     6 C     2.638850023814E+00  3.933758692594E+00  1.561959086838E+00
    7     6 C    -3.933758692594E+00  2.638850023814E+00 -1.561959086838E+00
    8     6 C     3.933758692594E+00 -2.638850023814E+00 -1.561959086838E+00
    9     6 C     3.021258055359E+00  4.990072902429E-01 -4.806376800188E+00
   10     6 C    -3.021258055359E+00 -4.990072902429E-01 -4.806376800188E+00
   11     6 C     4.990072902429E-01 -3.021258055359E+00  4.806376800188E+00
   12     6 C    -4.990072902429E-01  3.021258055359E+00  4.806376800188E+00
   13     6 C    -3.643668182775E+00 -2.946418692130E+00  1.615471248005E+00
   14     6 C     3.643668182775E+00  2.946418692130E+00  1.615471248005E+00
   15     6 C    -2.946418692130E+00  3.643668182775E+00 -1.615471248005E+00
   16     6 C     2.946418692130E+00 -3.643668182775E+00 -1.615471248005E+00
   17     6 C    -1.887406511520E+00 -1.265700202567E+00  1.578543969718E+00
   18     6 C     1.887406511520E+00  1.265700202567E+00  1.578543969718E+00
   19     6 C    -1.265700202567E+00  1.887406511520E+00 -1.578543969718E+00
   20     6 C     1.265700202567E+00 -1.887406511520E+00 -1.578543969718E+00
   21     6 C    -1.305935158033E+00 -3.481789936293E+00  1.456878305468E+00
   22     6 C     1.305935158033E+00  3.481789936293E+00  1.456878305468E+00
   23     6 C    -3.481789936293E+00  1.305935158033E+00 -1.456878305468E+00
   24     6 C     3.481789936293E+00 -1.305935158033E+00 -1.456878305468E+00
   25     6 C     3.246831872739E+00  1.604236883254E+00  1.605105696205E+00
   26     6 C    -3.246831872739E+00 -1.604236883254E+00  1.605105696205E+00
   27     6 C     1.604236883254E+00 -3.246831872739E+00 -1.605105696205E+00
   28     6 C    -1.604236883254E+00  3.246831872739E+00 -1.605105696205E+00
   29     7 N     4.013172875832E+00 -3.228180683471E-01 -4.332023235948E+00
   30     7 N    -4.013172875832E+00  3.228180683471E-01 -4.332023235948E+00
   31     7 N    -3.228180683471E-01 -4.013172875832E+00  4.332023235948E+00
   32     7 N     3.228180683471E-01  4.013172875832E+00  4.332023235948E+00
   33     7 N    -2.339257964745E+00  4.256928670173E+00  2.035535234694E+00
   34     7 N     2.339257964745E+00 -4.256928670173E+00  2.035535234694E+00
   35     7 N     4.256928670173E+00  2.339257964745E+00 -2.035535234694E+00
   36     7 N    -4.256928670173E+00 -2.339257964745E+00 -2.035535234694E+00
   37     7 N     1.940427502397E+00 -2.435211881862E-01 -5.176815707635E+00
   38     7 N    -1.940427502397E+00  2.435211881862E-01 -5.176815707635E+00
   39     7 N    -2.435211881862E-01 -1.940427502397E+00  5.176815707635E+00
   40     7 N     2.435211881862E-01  1.940427502397E+00  5.176815707635E+00
   41     7 N     2.297849978507E+00 -1.556025318541E+00 -4.936464475276E+00
   42     7 N    -2.297849978507E+00  1.556025318541E+00 -4.936464475276E+00
   43     7 N    -1.556025318541E+00 -2.297849978507E+00  4.936464475276E+00
   44     7 N     1.556025318541E+00  2.297849978507E+00  4.936464475276E+00
   45     7 N    -9.415918003713E-01 -2.198846181383E+00  1.499247498449E+00
   46     7 N     9.415918003713E-01  2.198846181383E+00  1.499247498449E+00
   47     7 N    -2.198846181383E+00  9.415918003713E-01 -1.499247498449E+00
   48     7 N     2.198846181383E+00 -9.415918003713E-01 -1.499247498449E+00
   49    30 ZN   -4.700037766092E-16  5.865153858050E+00 -9.717704812350E+00
   50    30 ZN    0.000000000000E+00  0.000000000000E+00  6.478469874900E+00
   51    35 BR    3.725545730633E-01  2.528937040514E+00 -4.776316699969E+00
   52    35 BR   -3.725545730633E-01 -2.528937040514E+00 -4.776316699969E+00
   53    35 BR    2.528937040514E+00 -3.725545730633E-01  4.776316699969E+00
   54    35 BR   -2.528937040514E+00  3.725545730633E-01  4.776316699969E+00
   55    35 BR   -4.483910124479E+00 -2.185356327509E-01  1.609640625118E+00
   56    35 BR    4.483910124479E+00  2.185356327509E-01  1.609640625118E+00
   57    35 BR   -2.185356327509E-01  4.483910124479E+00 -1.609640625118E+00
   58    35 BR    2.185356327509E-01 -4.483910124479E+00 -1.609640625118E+00
   59    35 BR   -1.443766273698E+00  5.723217134685E-01  1.585022439593E+00
   60    35 BR    1.443766273698E+00 -5.723217134685E-01  1.585022439593E+00
   61    35 BR    5.723217134685E-01  1.443766273698E+00 -1.585022439593E+00
   62    35 BR   -5.723217134685E-01 -1.443766273698E+00 -1.585022439593E+00

 *******************************************************************************
 STARTING BASIS SET HANDLING 
 *******************************************************************************

 Loading internal basis set: POB-DZVPP           

 Please cite in your publication:
 Peintinger, M. F., Oliveira, D. V. and Bredow, T. (2013), Generally applicable 
 solid-state Gaussian basis sets, in preparation                                
                                                                                
                    

 *******************************************************************************
 LOCAL ATOMIC FUNCTIONS BASIS SET
 *******************************************************************************
   ATOM   X(AU)   Y(AU)   Z(AU)  N. TYPE  EXPONENT  S COEF   P COEF   D/F/G COEF
 *******************************************************************************
   1 H   -0.938  -7.937   2.469
                                  1 S  
                                         2.263E+01 1.441E-02 0.000E+00 0.000E+00
                                         3.236E+00 1.072E-01 0.000E+00 0.000E+00
                                         7.304E-01 3.846E-01 0.000E+00 0.000E+00
                                  2 S  
                                         1.417E-01 1.000E+00 0.000E+00 0.000E+00
                           3-     5 P  
                                         3.944E-01 0.000E+00 1.000E+00 0.000E+00
                           6-     8 P  
                                         1.006E-01 0.000E+00 1.000E+00 0.000E+00
   2 H    0.938   7.937   2.469
   3 H   -7.937   0.938  -2.469
   4 H    7.937  -0.938  -2.469
   5 C   -4.987  -7.434   2.952
                                 33 S  
                                         1.238E+03 5.457E-03 0.000E+00 0.000E+00
                                         1.863E+02 4.064E-02 0.000E+00 0.000E+00
                                         4.225E+01 1.803E-01 0.000E+00 0.000E+00
                                         1.168E+01 4.632E-01 0.000E+00 0.000E+00
                                         3.593E+00 4.409E-01 0.000E+00 0.000E+00
                                 34 S  
                                         5.281E+00 1.000E+00 0.000E+00 0.000E+00
                                 35 S  
                                         4.447E-01 1.000E+00 0.000E+00 0.000E+00
                          36-    38 P  
                                         9.468E+00 0.000E+00 3.839E-02 0.000E+00
                                         2.010E+00 0.000E+00 2.112E-01 0.000E+00
                                         5.477E-01 0.000E+00 5.133E-01 0.000E+00
                          39-    41 P  
                                         1.604E-01 0.000E+00 1.000E+00 0.000E+00
                          42-    46 D  
                                         6.070E-01 0.000E+00 0.000E+00 1.000E+00
                          47-    51 D  
                                         2.939E-01 0.000E+00 0.000E+00 1.000E+00
   6 C    4.987   7.434   2.952
   7 C   -7.434   4.987  -2.952
   8 C    7.434  -4.987  -2.952
   9 C    5.709   0.943  -9.083
  10 C   -5.709  -0.943  -9.083
  11 C    0.943  -5.709   9.083
  12 C   -0.943   5.709   9.083
  13 C   -6.886  -5.568   3.053
  14 C    6.886   5.568   3.053
  15 C   -5.568   6.886  -3.053
  16 C    5.568  -6.886  -3.053
  17 C   -3.567  -2.392   2.983
  18 C    3.567   2.392   2.983
  19 C   -2.392   3.567  -2.983
  20 C    2.392  -3.567  -2.983
  21 C   -2.468  -6.580   2.753
  22 C    2.468   6.580   2.753
  23 C   -6.580   2.468  -2.753
  24 C    6.580  -2.468  -2.753
  25 C    6.136   3.032   3.033
  26 C   -6.136  -3.032   3.033
  27 C    3.032  -6.136  -3.033
  28 C   -3.032   6.136  -3.033
  29 N    7.584  -0.610  -8.186
                                489 S  
                                         1.713E+03-5.393E-03 0.000E+00 0.000E+00
                                         2.576E+02-4.022E-02 0.000E+00 0.000E+00
                                         5.846E+01-1.793E-01 0.000E+00 0.000E+00
                                         1.620E+01-4.638E-01 0.000E+00 0.000E+00
                                         5.005E+00-4.417E-01 0.000E+00 0.000E+00
                                490 S  
                                         6.217E-01 1.000E+00 0.000E+00 0.000E+00
                                491 S  
                                         2.921E-01 1.000E+00 0.000E+00 0.000E+00
                         492-   494 P  
                                         1.357E+01 0.000E+00-4.007E-02 0.000E+00
                                         2.926E+00 0.000E+00-2.181E-01 0.000E+00
                                         7.993E-01 0.000E+00-5.129E-01 0.000E+00
                         495-   497 P  
                                         2.244E-01 0.000E+00 1.000E+00 0.000E+00
                         498-   502 D  
                                         3.118E-01 0.000E+00 0.000E+00 1.000E+00
  30 N   -7.584   0.610  -8.186
  31 N   -0.610  -7.584   8.186
  32 N    0.610   7.584   8.186
  33 N   -4.421   8.044   3.847
  34 N    4.421  -8.044   3.847
  35 N    8.044   4.421  -3.847
  36 N   -8.044  -4.421  -3.847
  37 N    3.667  -0.460  -9.783
  38 N   -3.667   0.460  -9.783
  39 N   -0.460  -3.667   9.783
  40 N    0.460   3.667   9.783
  41 N    4.342  -2.940  -9.329
  42 N   -4.342   2.940  -9.329
  43 N   -2.940  -4.342   9.329
  44 N    2.940   4.342   9.329
  45 N   -1.779  -4.155   2.833
  46 N    1.779   4.155   2.833
  47 N   -4.155   1.779  -2.833
  48 N    4.155  -1.779  -2.833
  49 ZN  -0.000  11.084 -18.364
                                769 S  
                                         8.200E+04 1.421E-03 0.000E+00 0.000E+00
                                         1.231E+04 1.089E-02 0.000E+00 0.000E+00
                                         2.801E+03 5.406E-02 0.000E+00 0.000E+00
                                         7.910E+02 1.885E-01 0.000E+00 0.000E+00
                                         2.576E+02 3.835E-01 0.000E+00 0.000E+00
                                         8.881E+01 2.972E-01 0.000E+00 0.000E+00
                                770 S  
                                         1.719E+02-1.105E-01 0.000E+00 0.000E+00
                                         2.030E+01 6.461E-01 0.000E+00 0.000E+00
                                         8.346E+00 4.422E-01 0.000E+00 0.000E+00
                                771 S  
                                         1.485E+01-2.271E-01 0.000E+00 0.000E+00
                                         2.450E+00 7.243E-01 0.000E+00 0.000E+00
                                         9.985E-01 4.484E-01 0.000E+00 0.000E+00
                                772 S  
                                         1.493E+00 1.000E+00 0.000E+00 0.000E+00
                                773 S  
                                         1.830E-01 1.000E+00 0.000E+00 0.000E+00
                         774-   776 P  
                                         1.072E+03 0.000E+00 9.277E-03 0.000E+00
                                         2.527E+02 0.000E+00 6.954E-02 0.000E+00
                                         8.010E+01 0.000E+00 2.716E-01 0.000E+00
                                         2.890E+01 0.000E+00 5.340E-01 0.000E+00
                                         1.077E+01 0.000E+00 3.450E-01 0.000E+00
                         777-   779 P  
                                         5.645E+00 0.000E+00 3.413E-01 0.000E+00
                                         2.168E+00 0.000E+00 5.639E-01 0.000E+00
                                         8.054E-01 0.000E+00 2.368E-01 0.000E+00
                         780-   782 P  
                                         2.721E-01 0.000E+00 1.000E+00 0.000E+00
                         783-   787 D  
                                         5.609E+01 0.000E+00 0.000E+00 2.959E-02
                                         1.575E+01 0.000E+00 0.000E+00 1.587E-01
                                         5.312E+00 0.000E+00 0.000E+00 3.798E-01
                                         1.774E+00 0.000E+00 0.000E+00 4.690E-01
                         788-   792 D  
                                         5.073E-01 0.000E+00 0.000E+00 1.000E+00
                         793-   799 F  
                                         2.814E+00 0.000E+00 0.000E+00 1.000E+00
                         800-   806 F  
                                         1.300E+00 0.000E+00 0.000E+00 1.000E+00
  50 ZN   0.000   0.000  12.243
  51 BR   0.704   4.779  -9.026
                                845 S  
                                         1.133E+05 1.428E-03 0.000E+00 0.000E+00
                                         1.701E+04 1.095E-02 0.000E+00 0.000E+00
                                         3.870E+03 5.442E-02 0.000E+00 0.000E+00
                                         1.093E+03 1.905E-01 0.000E+00 0.000E+00
                                         3.564E+02 3.902E-01 0.000E+00 0.000E+00
                                         1.231E+02 3.081E-01 0.000E+00 0.000E+00
                                846 S  
                                         2.367E+02-1.123E-01 0.000E+00 0.000E+00
                                         2.847E+01 6.478E-01 0.000E+00 0.000E+00
                                         1.188E+01 4.424E-01 0.000E+00 0.000E+00
                                847 S  
                                         2.127E+01-2.264E-01 0.000E+00 0.000E+00
                                         3.613E+00 7.382E-01 0.000E+00 0.000E+00
                                         1.663E+00 4.268E-01 0.000E+00 0.000E+00
                                848 S  
                                         3.641E-01 1.000E+00 0.000E+00 0.000E+00
                                849 S  
                                         1.243E-01 1.000E+00 0.000E+00 0.000E+00
                         850-   852 P  
                                         1.560E+03 0.000E+00 8.717E-03 0.000E+00
                                         3.685E+02 0.000E+00 6.624E-02 0.000E+00
                                         1.172E+02 0.000E+00 2.650E-01 0.000E+00
                                         4.265E+01 0.000E+00 5.384E-01 0.000E+00
                                         1.609E+01 0.000E+00 3.658E-01 0.000E+00
                         853-   855 P  
                                         8.635E+00 0.000E+00 3.425E-01 0.000E+00
                                         3.561E+00 0.000E+00 5.750E-01 0.000E+00
                                         1.529E+00 0.000E+00 2.433E-01 0.000E+00
                         856-   858 P  
                                         6.447E-01 0.000E+00 1.000E+00 0.000E+00
                         859-   861 P  
                                         2.103E-01 0.000E+00 1.000E+00 0.000E+00
                         862-   866 D  
                                         1.049E+02 0.000E+00 0.000E+00 2.265E-02
                                         3.028E+01 0.000E+00 0.000E+00 1.346E-01
                                         1.065E+01 0.000E+00 0.000E+00 3.647E-01
                                         3.870E+00 0.000E+00 0.000E+00 4.904E-01
                         867-   871 D  
                                         1.342E+00 0.000E+00 0.000E+00 1.000E+00
                         872-   876 D  
                                         4.101E-01 0.000E+00 0.000E+00 1.000E+00
                         877-   881 D  
                                         1.985E-01 0.000E+00 0.000E+00 1.000E+00
  52 BR  -0.704  -4.779  -9.026
  53 BR   4.779  -0.704   9.026
  54 BR  -4.779   0.704   9.026
  55 BR  -8.473  -0.413   3.042
  56 BR   8.473   0.413   3.042
  57 BR  -0.413   8.473  -3.042
  58 BR   0.413  -8.473  -3.042
  59 BR  -2.728   1.082   2.995
  60 BR   2.728  -1.082   2.995
  61 BR   1.082   2.728  -2.995
  62 BR  -1.082  -2.728  -2.995

 *******************************************************************************
 FINISHED BASIS SET HANDLING 
 *******************************************************************************

 INFORMATION **** SET_MPP **** PCRYSTAL CALCULATION
 INFORMATION **** READM2 **** NEW DEFAULT: FOCK/KS MATRIX MIXING SET TO 30 %
 INFORMATION **** READM2 **** NEW DEFAULT: FULL DIRECT SCF MODE
 INFORMATION **** READM2 **** NEW DEFAULT: COULOMB BIPOLAR BUFFER SET TO 32 Mb
 INFORMATION **** READM2 **** NEW DEFAULT: EXCHANGE BIPOLAR BUFFER SET TO 32 Mb

 *******************************************************************************
 NEW DEFAULT: DFT INTEGRATION GRID INCREASED TO XLGRID
 NEW DEFAULT: DIIS ACCELERATOR ACTIVE
 USE KEYWORD NODIIS TO TURN IT OFF
 *******************************************************************************

 INFORMATION **** DFTD3_INPUT **** PERFORM DISPERSION CORRECTION DFT-D3(BJ) IN THE BECKE-JOHNSON DAMPING SCHEME

 PLEASE CITE:
 (1) DFT-D3 Reference
  S. Grimme, J. Antony, S. Ehrlich, and H. Krieg, J. Chem. Phys. 132 (2010), 154104
 (2) BJ-Damping Reference
  S. Grimme, S. Ehrlich, and L. Goerigk, J. Comput. Chem. 32 (2011), 1456-1465
 (3) General DFT-D Review
  S. Grimme, A. Hansen, J. G. Brandenburg, and C. Bannwarth,
  Chem. Rev. 116 (2016), 5105-5154

 INFORMATION **** TOLINTEG **** COULOMB AND EXCHANGE SERIES TOLERANCES MODIFIED
 INFORMATION **** BIPOSIZE **** COULOMB BIPOLAR BUFFER SET TO   100000000
 INFORMATION **** MAXCYCLE **** MAX NUMBER OF SCF CYCLES SET TO          50
 *******************************************************************************
 N. OF ATOMS PER CELL        62  COULOMB OVERLAP TOL         (T1) 10**  -12
 NUMBER OF SHELLS           484  COULOMB PENETRATION TOL     (T2) 10**  -12
 NUMBER OF AO              1288  EXCHANGE OVERLAP TOL        (T3) 10**   20
 N. OF ELECTRONS PER CELL   768  EXCHANGE PSEUDO OVP (F(G))  (T4) 10**   20
 CORE ELECTRONS PER CELL    460  EXCHANGE PSEUDO OVP (P(G))  (T5) 10**   20
 N. OF SYMMETRY OPERATORS     4  POLE ORDER IN MONO ZONE                  4
 *******************************************************************************
 TYPE OF CALCULATION :  RESTRICTED CLOSED SHELL
 KOHN-SHAM HAMILTONIAN

 (EXCHANGE)[CORRELATION] FUNCTIONAL:(PERDEW-BURKE-ERNZERHOF)[PERDEW-BURKE-ERNZERHOF]


 CAPPA:IS1  3;IS2  3;IS3  3; K PTS MONK NET   6; SYMMOPS:K SPACE   8;G SPACE   4

 *******************************************************************************
 MAX NUMBER OF SCF CYCLES      50  CONVERGENCE ON DELTAP        10**-16
 WEIGHT OF F(I) IN F(I+1)      30% CONVERGENCE ON ENERGY        10**- 6
 SHRINK. FACT.(MONKH.)    3  3  3  NUMBER OF K POINTS IN THE IBZ      6
 SHRINKING FACTOR(GILAT NET)    3  NUMBER OF K POINTS(GILAT NET)      6
 *******************************************************************************
 *** K POINTS COORDINATES (OBLIQUE COORDINATES IN UNITS OF IS =  3)
   1-R(  0  0  0)   2-C(  1  0  0)   3-C(  1  1  0)   4-C(  2  1  0)
   5-C(  2  1  1)   6-C(  2  2  1)

 DIRECT LATTICE VECTORS COMPON. (A.U.)     RECIP. LATTICE VECTORS COMPON. (A.U.) 
        X            Y            Z              X            Y            Z
  -11.0835345   11.0835345   12.2425338      0.0000000    0.2834468    0.2566129
   11.0835345  -11.0835345   12.2425338      0.2834468    0.0000000    0.2566129
   11.0835345   11.0835345  -12.2425338      0.2834468    0.2834468    0.0000000

 DISK SPACE FOR EIGENVECTORS (FTN 10)    18248384 REALS

 SYMMETRY ADAPTION OF THE BLOCH FUNCTIONS ENABLED
 TTTTTTTTTTTTTTTTTTTTTTTTTTTTTT gordsh1     TELAPSE       13.01 TCPU        0.07

 MATRIX SIZE: P(G) 2035696, F(G) 1018612, P(G) IRR  257078, F(G) IRR  257078
 MAX G-VECTOR INDEX FOR 1- AND 2-ELECTRON INTEGRALS  59

 TTTTTTTTTTTTTTTTTTTTTTTTTTTTTT INPUT       TELAPSE       13.32 TCPU        0.38

 NEIGHBORS OF THE NON-EQUIVALENT ATOMS

 N = NUMBER OF NEIGHBORS AT DISTANCE R
    ATOM  N     R/ANG      R/AU   NEIGHBORS (ATOM LABELS AND CELL INDICES)
   1 H    1     1.0928     2.0650   21 C    0 0 0
   1 H    1     2.0594     3.8917   45 N    0 0 0
   1 H    1     2.1740     4.1083    5 C    0 0 0
   1 H    1     2.5483     4.8157   29 N    0 0-1
   1 H    1     2.5988     4.9111   49 ZN   0 1-1
   1 H    1     2.6464     5.0010    9 C    0 0-1

   5 C    1     1.4097     2.6640   13 C    0 0 0
   5 C    1     1.4114     2.6671   21 C    0 0 0
   5 C    1     1.4512     2.7423    9 C    0 0-1
   5 C    1     2.1740     4.1083    1 H    0 0 0
   5 C    1     2.4079     4.5503   26 C    0 0 0
   5 C    1     2.4279     4.5880   45 N    0 0 0

   9 C    1     1.3626     2.5750   37 N    0 0 0
   9 C    1     1.3727     2.5940   29 N    0 0 0
   9 C    1     1.4512     2.7423    5 C    0 0 1
   9 C    1     2.1825     4.1244   41 N    0 0 0
   9 C    1     2.1971     4.1519   33 N   -1 0 0
   9 C    1     2.4418     4.6144   21 C    0 0 1

  13 C    1     1.3997     2.6450   26 C    0 0 0
  13 C    1     1.4097     2.6640    5 C    0 0 0
  13 C    1     1.8916     3.5745   51 BR   0 0-1
  13 C    1     2.4035     4.5419   21 C    0 0 0
  13 C    1     2.4312     4.5943   17 C    0 0 0
  13 C    1     2.5491     4.8171    9 C    0 0-1

  17 C    1     1.3310     2.5153   45 N    0 0 0
  17 C    1     1.4012     2.6479   26 C    0 0 0
  17 C    1     1.8908     3.5731   59 BR   0 0 0
  17 C    1     2.2943     4.3357   21 C    0 0 0
  17 C    1     2.4312     4.5943   13 C    0 0 0
  17 C    1     2.7719     5.2381    5 C    0 0 0

  21 C    1     1.0928     2.0650    1 H    0 0 0
  21 C    1     1.3343     2.5216   45 N    0 0 0
  21 C    1     1.4114     2.6671    5 C    0 0 0
  21 C    1     2.2943     4.3357   17 C    0 0 0
  21 C    1     2.4035     4.5419   13 C    0 0 0
  21 C    1     2.4418     4.6144    9 C    0 0-1

  25 C    1     1.3997     2.6450   14 C    0 0 0
  25 C    1     1.4012     2.6479   18 C    0 0 0
  25 C    1     1.8576     3.5103   56 BR   0 0 0
  25 C    1     2.3830     4.5033   46 N    0 0 0
  25 C    1     2.4079     4.5503    6 C    0 0 0
  25 C    1     2.7045     5.1107   22 C    0 0 0

  29 N    1     1.3727     2.5940    9 C    0 0 0
  29 N    1     1.3791     2.6062   33 N   -1 0 0
  29 N    1     2.1744     4.1091   49 ZN   0 1 0
  29 N    1     2.1974     4.1524   41 N    0 0 0
  29 N    1     2.2397     4.2324   37 N    0 0 0
  29 N    1     2.4581     4.6451    5 C    0 0 1

  33 N    1     1.3245     2.5030   41 N    1 0 0
  33 N    1     1.3791     2.6062   29 N    1 0 0
  33 N    1     2.1971     4.1519    9 C    1 0 0
  33 N    1     2.2169     4.1894   37 N    1 0 0
  33 N    1     2.9285     5.5340    2 H    0 0 0
  33 N    1     3.0016     5.6723   24 C    1 0 0

  37 N    1     1.3626     2.5750    9 C    0 0 0
  37 N    1     1.3814     2.6104   41 N    0 0 0
  37 N    1     2.2169     4.1894   33 N   -1 0 0
  37 N    1     2.2397     4.2324   29 N    0 0 0
  37 N    1     2.3492     4.4394   50 ZN  -1-1 0
  37 N    1     2.5400     4.7999    5 C    0 0 1

  41 N    1     1.3245     2.5030   33 N   -1 0 0
  41 N    1     1.3814     2.6104   37 N    0 0 0
  41 N    1     2.1825     4.1244    9 C    0 0 0
  41 N    1     2.1974     4.1524   29 N    0 0 0
  41 N    1     2.8466     5.3793   52 BR   0 0 0
  41 N    1     3.1748     5.9994   50 ZN  -1-1 0

  45 N    1     1.3310     2.5153   17 C    0 0 0
  45 N    1     1.3343     2.5216   21 C    0 0 0
  45 N    1     2.0594     3.8917    1 H    0 0 0
  45 N    1     2.3830     4.5033   26 C    0 0 0
  45 N    1     2.4279     4.5880    5 C    0 0 0
  45 N    1     2.8060     5.3026   13 C    0 0 0

  49 ZN   4     2.1744     4.1091   29 N    0-1 0   30 N    0 0 1   31 N    0-1 1
                                    32 N   -1-1 0
  49 ZN   4     2.5988     4.9111    1 H    0-1 1    2 H   -1-1 0    3 H    0 0 1
                                     4 H    0-1 0
  49 ZN   4     3.0834     5.8268   33 N   -1-1 0   34 N    0-1 1   35 N    0-1 0
                                    36 N    0 0 1
  49 ZN   4     3.2500     6.1417   21 C    0-1 1   22 C   -1-1 0   23 C    0 0 1
                                    24 C    0-1 0
  49 ZN   4     3.2852     6.2082    9 C    0-1 0   10 C    0 0 1   11 C    0-1 1
                                    12 C   -1-1 0
  49 ZN   4     3.6752     6.9451    5 C    0-1 1    6 C   -1-1 0    7 C    0 0 1
                                     8 C    0-1 0

  50 ZN   4     2.3492     4.4394   37 N    1 1 0   38 N    1 1 0   39 N    0 0 0
                                    40 N    0 0 0
  50 ZN   4     3.0711     5.8035   51 BR   1 1 0   52 BR   1 1 0   53 BR   0 0 0
                                    54 BR   0 0 0
  50 ZN   4     3.1748     5.9994   41 N    1 1 0   42 N    1 1 0   43 N    0 0 0
                                    44 N    0 0 0
  50 ZN   4     3.4890     6.5932    9 C    1 1 0   10 C    1 1 0   11 C    0 0 0
                                    12 C    0 0 0
  50 ZN   4     4.0080     7.5740   13 C    1 1 1   14 C    0 0-1   15 C    0 1 0
                                    16 C    1 0 0
  50 ZN   4     4.0717     7.6945    5 C    1 1 1    6 C    0 0-1    7 C    0 1 0
                                     8 C    1 0 0

  51 BR   1     1.8916     3.5745   13 C    0 0 1
  51 BR   1     2.8377     5.3625   26 C    0 0 1
  51 BR   1     2.8466     5.3793   42 N    0 0 0
  51 BR   1     2.9190     5.5161    5 C    0 0 1
  51 BR   1     3.0636     5.7894   40 N   -1-1 0
  51 BR   1     3.0711     5.8035   50 ZN  -1-1 0

  55 BR   1     1.8576     3.5103   26 C    0 0 0
  55 BR   1     2.7968     5.2853   56 BR   0-1-1
  55 BR   1     2.7999     5.2910   17 C    0 0 0
  55 BR   1     2.8544     5.3940   13 C    0 0 0
  55 BR   1     3.0158     5.6991    3 H    0 0 0
  55 BR   1     3.1414     5.9364   59 BR   0 0 0

  59 BR   1     1.8908     3.5731   17 C    0 0 0
  59 BR   1     2.8176     5.3245   45 N    0 0 0
  59 BR   1     2.8265     5.3412   26 C    0 0 0
  59 BR   1     2.8884     5.4583   46 N    0 0 0
  59 BR   1     3.1061     5.8697   60 BR   0 0 0
  59 BR   1     3.1414     5.9364   55 BR   0 0 0


 SYMMETRY ALLOWED INTERNAL DEGREE(S) OF FREEDOM:  45
 TTTTTTTTTTTTTTTTTTTTTTTTTTTTTT SYMM        TELAPSE       15.93 TCPU        2.85
 TTTTTTTTTTTTTTTTTTTTTTTTTTTTTT INT_SCREEN  TELAPSE       15.95 TCPU        2.87
 INFORMATION **** EXCBUF **** EXCH. BIPO BUFFER: WORDS USED =           0

 DFT PARAMETERS

     ATOM       ELECTRONS   NET CHARGE   R(ANGSTROM)
   1   1  H       1.0000      0.0000     1.11000000
   5   6  C       6.0000      0.0000     0.77000000
  29   7  N       7.0000      0.0000     0.74000000
  49  30  ZN     30.0000      0.0000     1.37000000
  51  35  BR     35.0000      0.0000     1.14000000

 SIZE OF GRID=     478014
 TTTTTTTTTTTTTTTTTTTTTTTTTTTTTT MAKE_GRID2  TELAPSE       17.37 TCPU        4.27
 BECKE WEIGHT FUNCTION
 RADSAFE =     2.00
 TOLERANCES - DENSITY:10**- 6; POTENTIAL:10**- 9; GRID WGT:10**-14

 RADIAL INTEGRATION  - INTERVALS (POINTS,UPPER LIMIT):            1( 75,  4.0*R)

 ANGULAR INTEGRATION - INTERVALS (ACCURACY LEVEL [N. POINTS] UPPER LIMIT):
  1(  4[  86]   0.2)  2(  8[ 194]   0.5)  3( 12[ 350]   0.9)  4( 16[ 974]   3.5)
  5( 12[ 350]9999.0)
 TTTTTTTTTTTTTTTTTTTTTTTTTTTTTT INT_CALC    TELAPSE       17.41 TCPU        4.32
 EEEEEEEEEE INT_CALC TERMINATION  DATE 09 03 2024 TIME 13:58:40.1

 *******************************************************************************
 Z:\home\sanoj\Downloads\tmp_p\newconn.mol                                       
 CRYSTAL - SCF - TYPE OF CALCULATION :  RESTRICTED CLOSED SHELL
 *******************************************************************************

 CAPPA:IS1  3;IS2  3;IS3  3; K PTS MONK NET   6; SYMMOPS:K SPACE   8;G SPACE   4

 TTTTTTTTTTTTTTTTTTTTTTTTTTTTTT SDIK        TELAPSE       17.59 TCPU        4.50

 AAAAAAAAAAAAAAAAAAAAAAAAAAAAAAAAAAAAAAAAAAAAAAAAAAAAAAAAAAAAAAAAAAAAAAAAAAAAAAA
         ATOMIC WAVEFUNCTION(S)


 NUCLEAR CHARGE  1.0  SYMMETRY SPECIES            S
 N. ELECTRONS    1.0  NUMBER OF PRIMITIVE GTOS    4
                      NUMBER OF CONTRACTED GTOS   2
                      NUMBER OF CLOSED SHELLS     0
                      OPEN SHELL OCCUPATION       1

  ZNUC SCFIT  TOTAL HF ENERGY   KINETIC ENERGY   VIRIAL THEOREM ACCURACY
   1.0   1   -4.946643675E-01  4.917913167E-01 -2.005842012E+00  9.4E-17

 NUCLEAR CHARGE  6.0  SYMMETRY SPECIES            S    P
 N. ELECTRONS    6.0  NUMBER OF PRIMITIVE GTOS    7    4
                      NUMBER OF CONTRACTED GTOS   3    2
                      NUMBER OF CLOSED SHELLS     2    0
                      OPEN SHELL OCCUPATION       0    2

  ZNUC SCFIT  TOTAL HF ENERGY   KINETIC ENERGY   VIRIAL THEOREM ACCURACY
   6.0   6   -3.750912652E+01  3.905246519E+01 -1.960480378E+00  3.7E-06

 NUCLEAR CHARGE  7.0  SYMMETRY SPECIES            S    P
 N. ELECTRONS    7.0  NUMBER OF PRIMITIVE GTOS    7    4
                      NUMBER OF CONTRACTED GTOS   3    2
                      NUMBER OF CLOSED SHELLS     2    0
                      OPEN SHELL OCCUPATION       0    3

  ZNUC SCFIT  TOTAL HF ENERGY   KINETIC ENERGY   VIRIAL THEOREM ACCURACY
   7.0   9   -5.432196661E+01  5.425066284E+01 -2.001314339E+00  1.2E-06

 NUCLEAR CHARGE 30.0  SYMMETRY SPECIES            S    P    D
 N. ELECTRONS   30.0  NUMBER OF PRIMITIVE GTOS   14    9    5
                      NUMBER OF CONTRACTED GTOS   5    3    2
                      NUMBER OF CLOSED SHELLS     4    2    1
                      OPEN SHELL OCCUPATION       0    0    0

  ZNUC SCFIT  TOTAL HF ENERGY   KINETIC ENERGY   VIRIAL THEOREM ACCURACY
  30.0  10   -1.777404290E+03  1.777325716E+03 -2.000044209E+00  2.5E-06

 NUCLEAR CHARGE 35.0  SYMMETRY SPECIES            S    P    D
 N. ELECTRONS   35.0  NUMBER OF PRIMITIVE GTOS   14   10    7
                      NUMBER OF CONTRACTED GTOS   5    4    4
                      NUMBER OF CLOSED SHELLS     4    2    1
                      OPEN SHELL OCCUPATION       0    5    0

  ZNUC SCFIT  TOTAL HF ENERGY   KINETIC ENERGY   VIRIAL THEOREM ACCURACY
  35.0  13   -2.572060514E+03  2.572021521E+03 -2.000015161E+00  3.6E-06

 AAAAAAAAAAAAAAAAAAAAAAAAAAAAAAAAAAAAAAAAAAAAAAAAAAAAAAAAAAAAAAAAAAAAAAAAAAAAAAA

 TOTAL ATOMIC CHARGES:
   1.0000000   1.0000000   1.0000000   1.0000000   6.0000000   6.0000000
   6.0000000   6.0000000   6.0000000   6.0000000   6.0000000   6.0000000
   6.0000000   6.0000000   6.0000000   6.0000000   6.0000000   6.0000000
   6.0000000   6.0000000   6.0000000   6.0000000   6.0000000   6.0000000
   6.0000000   6.0000000   6.0000000   6.0000000   7.0000000   7.0000000
   7.0000000   7.0000000   7.0000000   7.0000000   7.0000000   7.0000000
   7.0000000   7.0000000   7.0000000   7.0000000   7.0000000   7.0000000
   7.0000000   7.0000000   7.0000000   7.0000000   7.0000000   7.0000000
  30.0000000  30.0000000  35.0000000  35.0000000  35.0000000  35.0000000
  35.0000000  35.0000000  35.0000000  35.0000000  35.0000000  35.0000000
  35.0000000  35.0000000
 TTTTTTTTTTTTTTTTTTTTTTTTTTTTTT MOQGAD      TELAPSE       19.05 TCPU        5.95
 TTTTTTTTTTTTTTTTTTTTTTTTTTTTTT SHELLXN     TELAPSE       41.66 TCPU       28.28
 TTTTTTTTTTTTTTTTTTTTTTTTTTTTTT MONMO3      TELAPSE       49.03 TCPU       35.62
 NUMERICALLY INTEGRATED DENSITY    768.0000340766
 TTTTTTTTTTTTTTTTTTTTTTTTTTTTTT NUMDFT      TELAPSE       49.61 TCPU       36.20
 CYC   0 ETOT(AU) -3.645175481639E+04 DETOT -3.65E+04 tst  0.00E+00 PX  1.00E+00
 TTTTTTTTTTTTTTTTTTTTTTTTTTTTTT DIIS        TELAPSE       49.68 TCPU       36.27
 TTTTTTTTTTTTTTTTTTTTTTTTTTTTTT FDIK        TELAPSE       83.06 TCPU       69.35
 INSULATING STATE
 TOP OF VALENCE BANDS -    BAND    384; K    4; EIG -1.3753529E-01 AU
 TOP OF VALENCE BANDS -    BAND    384; K    1; EIG -1.3799177E-01 AU
 BOTTOM OF VIRTUAL BANDS - BAND    385; K    6; EIG -9.4361841E-02 AU
 INDIRECT ENERGY BAND GAP:   1.1748 eV
 BOTTOM OF VIRTUAL BANDS - BAND    385; K    1; EIG -9.3939602E-02 AU
 TTTTTTTTTTTTTTTTTTTTTTTTTTTTTT PDIG        TELAPSE       84.13 TCPU       70.42
 TOTAL ATOMIC CHARGES:
   1.4193453   1.4193453   1.4193453   1.4193453   6.2115203   6.2115203
   6.2115203   6.2115203   5.4769727   5.4769727   5.4769727   5.4769727
   5.7220740   5.7220740   5.7220740   5.7220740   5.4193743   5.4193743
   5.4193743   5.4193743   5.9349438   5.9349438   5.9349438   5.9349438
   5.8869688   5.8869688   5.8869688   5.8869688   7.4232562   7.4232562
   7.4232562   7.4232562   7.1854336   7.1854336   7.1854336   7.1854336
   7.4573195   7.4573195   7.4573195   7.4573195   7.1316430   7.1316430
   7.1316430   7.1316430   7.5792735   7.5792735   7.5792735   7.5792735
  27.7755636  28.0438838  35.0860967  35.0860967  35.0860967  35.0860967
  35.0231684  35.0231684  35.0231684  35.0231684  35.0877479  35.0877479
  35.0877479  35.0877479
 TTTTTTTTTTTTTTTTTTTTTTTTTTTTTT MOQGAD      TELAPSE       84.15 TCPU       70.44
 TTTTTTTTTTTTTTTTTTTTTTTTTTTTTT SHELLXN     TELAPSE      113.03 TCPU       96.94
 TTTTTTTTTTTTTTTTTTTTTTTTTTTTTT MONMO3      TELAPSE      117.00 TCPU      100.90
 NUMERICALLY INTEGRATED DENSITY    768.0000449467
 TTTTTTTTTTTTTTTTTTTTTTTTTTTTTT NUMDFT      TELAPSE      118.63 TCPU      102.52
 CYC   1 ETOT(AU) -3.644620755703E+04 DETOT  5.55E+00 tst  0.00E+00 PX  1.00E+00
 TTTTTTTTTTTTTTTTTTTTTTTTTTTTTT DIIS        TELAPSE      118.83 TCPU      102.72
 DIIS TEST: 0.88443E+01 AT SCF   CYCLE   1 - MIX   30 %
 TTTTTTTTTTTTTTTTTTTTTTTTTTTTTT FDIK        TELAPSE      128.88 TCPU      112.60
 INSULATING STATE
 TOP OF VALENCE BANDS -    BAND    384; K    6; EIG -1.4544101E-01 AU
 TOP OF VALENCE BANDS -    BAND    384; K    1; EIG -1.4562309E-01 AU
 BOTTOM OF VIRTUAL BANDS - BAND    385; K    1; EIG -1.4137366E-01 AU
 INDIRECT ENERGY BAND GAP:   0.1107 eV
 TTTTTTTTTTTTTTTTTTTTTTTTTTTTTT PDIG        TELAPSE      129.96 TCPU      113.67
 TOTAL ATOMIC CHARGES:
   1.4209661   1.4209661   1.4209661   1.4209661   6.1647634   6.1647634
   6.1647634   6.1647634   6.3142939   6.3142939   6.3142939   6.3142939
   6.3864846   6.3864846   6.3864846   6.3864846   6.3272177   6.3272177
   6.3272177   6.3272177   6.2172353   6.2172353   6.2172353   6.2172353
   6.1396559   6.1396559   6.1396559   6.1396559   6.9120522   6.9120522
   6.9120522   6.9120522   6.9086238   6.9086238   6.9086238   6.9086238
   6.7948216   6.7948216   6.7948216   6.7948216   6.9217825   6.9217825
   6.9217825   6.9217825   6.0325585   6.0325585   6.0325585   6.0325585
  29.6403749  29.4120622  34.9936851  34.9936851  34.9936851  34.9936851
  34.8871385  34.8871385  34.8871385  34.8871385  34.8156118  34.8156118
  34.8156118  34.8156118
 TTTTTTTTTTTTTTTTTTTTTTTTTTTTTT MOQGAD      TELAPSE      129.98 TCPU      113.69
 TTTTTTTTTTTTTTTTTTTTTTTTTTTTTT SHELLXN     TELAPSE      156.75 TCPU      140.17
 TTTTTTTTTTTTTTTTTTTTTTTTTTTTTT MONMO3      TELAPSE      160.48 TCPU      143.88
 NUMERICALLY INTEGRATED DENSITY    768.0000495152
 TTTTTTTTTTTTTTTTTTTTTTTTTTTTTT NUMDFT      TELAPSE      162.05 TCPU      145.44
 CYC   2 ETOT(AU) -3.644489443348E+04 DETOT  1.31E+00 tst  2.68E-02 PX  7.96E-01
 TTTTTTTTTTTTTTTTTTTTTTTTTTTTTT DIIS        TELAPSE      162.24 TCPU      145.63
 DIIS TEST: 0.16926E+02 AT SCF   CYCLE   2 - DIIS ACTIVE - HISTORY:     2 CYCLES
 TTTTTTTTTTTTTTTTTTTTTTTTTTTTTT FDIK        TELAPSE      174.73 TCPU      155.84
 INSULATING STATE
 TOP OF VALENCE BANDS -    BAND    384; K    2; EIG -2.1094277E-01 AU
 TOP OF VALENCE BANDS -    BAND    384; K    1; EIG -2.1117022E-01 AU
 BOTTOM OF VIRTUAL BANDS - BAND    385; K    1; EIG -1.2977204E-01 AU
 INDIRECT ENERGY BAND GAP:   2.2088 eV
 TTTTTTTTTTTTTTTTTTTTTTTTTTTTTT PDIG        TELAPSE      175.80 TCPU      156.91
 TOTAL ATOMIC CHARGES:
   1.3445254   1.3445254   1.3445254   1.3445254   6.0132010   6.0132010
   6.0132010   6.0132010   5.8276768   5.8276768   5.8276768   5.8276768
   5.7698814   5.7698814   5.7698814   5.7698814   5.9145231   5.9145231
   5.9145231   5.9145231   6.1212034   6.1212034   6.1212034   6.1212034
   5.8333204   5.8333204   5.8333204   5.8333204   7.1104602   7.1104602
   7.1104602   7.1104602   7.1149032   7.1149032   7.1149032   7.1149032
   7.1441926   7.1441926   7.1441926   7.1441926   7.0574921   7.0574921
   7.0574921   7.0574921   7.3474117   7.3474117   7.3474117   7.3474117
  29.0659683  28.9602830  35.0145831  35.0145831  35.0145831  35.0145831
  34.9260558  34.9260558  34.9260558  34.9260558  34.9540068  34.9540068
  34.9540068  34.9540068
 TTTTTTTTTTTTTTTTTTTTTTTTTTTTTT MOQGAD      TELAPSE      175.83 TCPU      156.93
 TTTTTTTTTTTTTTTTTTTTTTTTTTTTTT SHELLXN     TELAPSE      202.50 TCPU      183.41
 TTTTTTTTTTTTTTTTTTTTTTTTTTTTTT MONMO3      TELAPSE      206.34 TCPU      187.24
 NUMERICALLY INTEGRATED DENSITY    768.0000490808
 TTTTTTTTTTTTTTTTTTTTTTTTTTTTTT NUMDFT      TELAPSE      207.95 TCPU      188.83
 CYC   3 ETOT(AU) -3.644755131243E+04 DETOT -2.66E+00 tst  5.62E-03 PX  5.17E-01
 TTTTTTTTTTTTTTTTTTTTTTTTTTTTTT DIIS        TELAPSE      208.16 TCPU      189.04
 DIIS TEST: 0.22159E+01 AT SCF   CYCLE   3 - DIIS ACTIVE - HISTORY:     3 CYCLES
 TTTTTTTTTTTTTTTTTTTTTTTTTTTTTT FDIK        TELAPSE      217.39 TCPU      198.10
 INSULATING STATE
 TOP OF VALENCE BANDS -    BAND    384; K    4; EIG -1.9747159E-01 AU
 TOP OF VALENCE BANDS -    BAND    384; K    1; EIG -1.9859577E-01 AU
 BOTTOM OF VIRTUAL BANDS - BAND    385; K    6; EIG -1.2343164E-01 AU
 INDIRECT ENERGY BAND GAP:   2.0147 eV
 BOTTOM OF VIRTUAL BANDS - BAND    385; K    1; EIG -1.2042187E-01 AU
 TTTTTTTTTTTTTTTTTTTTTTTTTTTTTT PDIG        TELAPSE      218.47 TCPU      199.17
 TOTAL ATOMIC CHARGES:
   1.3619645   1.3619645   1.3619645   1.3619645   6.2049258   6.2049258
   6.2049258   6.2049258   5.7766243   5.7766243   5.7766243   5.7766243
   6.0481260   6.0481260   6.0481260   6.0481260   5.7208853   5.7208853
   5.7208853   5.7208853   6.0436830   6.0436830   6.0436830   6.0436830
   6.0093439   6.0093439   6.0093439   6.0093439   7.2189672   7.2189672
   7.2189672   7.2189672   7.0844316   7.0844316   7.0844316   7.0844316
   7.2345916   7.2345916   7.2345916   7.2345916   7.0669201   7.0669201
   7.0669201   7.0669201   6.9880254   6.9880254   6.9880254   6.9880254
  28.6734967  28.6957678  34.9978054  34.9978054  34.9978054  34.9978054
  34.9681624  34.9681624  34.9681624  34.9681624  34.9332274  34.9332274
  34.9332274  34.9332274
 TTTTTTTTTTTTTTTTTTTTTTTTTTTTTT MOQGAD      TELAPSE      218.49 TCPU      199.19
 TTTTTTTTTTTTTTTTTTTTTTTTTTTTTT SHELLXN     TELAPSE      247.35 TCPU      225.68
 TTTTTTTTTTTTTTTTTTTTTTTTTTTTTT MONMO3      TELAPSE      251.16 TCPU      229.48
 NUMERICALLY INTEGRATED DENSITY    768.0000502221
 TTTTTTTTTTTTTTTTTTTTTTTTTTTTTT NUMDFT      TELAPSE      252.72 TCPU      231.03
 CYC   4 ETOT(AU) -3.644778388399E+04 DETOT -2.33E-01 tst  1.91E-03 PX  2.00E-01
 TTTTTTTTTTTTTTTTTTTTTTTTTTTTTT DIIS        TELAPSE      253.02 TCPU      231.33
 DIIS TEST: 0.69352E+00 AT SCF   CYCLE   4 - DIIS ACTIVE - HISTORY:     4 CYCLES
 TTTTTTTTTTTTTTTTTTTTTTTTTTTTTT FDIK        TELAPSE      262.06 TCPU      240.16
 INSULATING STATE
 TOP OF VALENCE BANDS -    BAND    384; K    2; EIG -2.0962501E-01 AU
 TOP OF VALENCE BANDS -    BAND    384; K    1; EIG -2.0985126E-01 AU
 BOTTOM OF VIRTUAL BANDS - BAND    385; K    6; EIG -1.2380163E-01 AU
 INDIRECT ENERGY BAND GAP:   2.3354 eV
 BOTTOM OF VIRTUAL BANDS - BAND    385; K    1; EIG -1.2092582E-01 AU
 TTTTTTTTTTTTTTTTTTTTTTTTTTTTTT PDIG        TELAPSE      263.14 TCPU      241.23
 TOTAL ATOMIC CHARGES:
   1.3632421   1.3632421   1.3632421   1.3632421   6.1442022   6.1442022
   6.1442022   6.1442022   5.8237122   5.8237122   5.8237122   5.8237122
   5.9533324   5.9533324   5.9533324   5.9533324   5.8757267   5.8757267
   5.8757267   5.8757267   6.0828785   6.0828785   6.0828785   6.0828785
   5.9725910   5.9725910   5.9725910   5.9725910   7.1969373   7.1969373
   7.1969373   7.1969373   7.1093156   7.1093156   7.1093156   7.1093156
   7.1316656   7.1316656   7.1316656   7.1316656   7.0416176   7.0416176
   7.0416176   7.0416176   7.0631356   7.0631356   7.0631356   7.0631356
  28.7307033  28.7254207  35.0057166  35.0057166  35.0057166  35.0057166
  34.9313716  34.9313716  34.9313716  34.9313716  34.9405241  34.9405241
  34.9405241  34.9405241
 TTTTTTTTTTTTTTTTTTTTTTTTTTTTTT MOQGAD      TELAPSE      263.16 TCPU      241.25
 TTTTTTTTTTTTTTTTTTTTTTTTTTTTTT SHELLXN     TELAPSE      289.95 TCPU      267.75
 TTTTTTTTTTTTTTTTTTTTTTTTTTTTTT MONMO3      TELAPSE      293.72 TCPU      271.51
 NUMERICALLY INTEGRATED DENSITY    768.0000491394
 TTTTTTTTTTTTTTTTTTTTTTTTTTTTTT NUMDFT      TELAPSE      295.28 TCPU      273.06
 CYC   5 ETOT(AU) -3.644788079282E+04 DETOT -9.69E-02 tst  2.80E-04 PX  8.05E-02
 TTTTTTTTTTTTTTTTTTTTTTTTTTTTTT DIIS        TELAPSE      295.48 TCPU      273.26
 DIIS TEST: 0.94279E-01 AT SCF   CYCLE   5 - DIIS ACTIVE - HISTORY:     5 CYCLES
 TTTTTTTTTTTTTTTTTTTTTTTTTTTTTT FDIK        TELAPSE      304.30 TCPU      281.88
 INSULATING STATE
 TOP OF VALENCE BANDS -    BAND    384; K    5; EIG -2.0685572E-01 AU
 TOP OF VALENCE BANDS -    BAND    384; K    1; EIG -2.0701893E-01 AU
 BOTTOM OF VIRTUAL BANDS - BAND    385; K    6; EIG -1.2295274E-01 AU
 INDIRECT ENERGY BAND GAP:   2.2831 eV
 BOTTOM OF VIRTUAL BANDS - BAND    385; K    1; EIG -1.1978331E-01 AU
 TTTTTTTTTTTTTTTTTTTTTTTTTTTTTT PDIG        TELAPSE      305.37 TCPU      282.96
 TOTAL ATOMIC CHARGES:
   1.3632053   1.3632053   1.3632053   1.3632053   6.1528160   6.1528160
   6.1528160   6.1528160   5.8214891   5.8214891   5.8214891   5.8214891
   5.9601452   5.9601452   5.9601452   5.9601452   5.8031273   5.8031273
   5.8031273   5.8031273   6.0659313   6.0659313   6.0659313   6.0659313
   5.9386848   5.9386848   5.9386848   5.9386848   7.1500987   7.1500987
   7.1500987   7.1500987   7.0662988   7.0662988   7.0662988   7.0662988
   7.2075870   7.2075870   7.2075870   7.2075870   7.0733492   7.0733492
   7.0733492   7.0733492   7.0864015   7.0864015   7.0864015   7.0864015
  28.7609608  28.7584249  35.0268816  35.0268816  35.0268816  35.0268816
  34.9552239  34.9552239  34.9552239  34.9552239  34.9489139  34.9489139
  34.9489139  34.9489139
 TTTTTTTTTTTTTTTTTTTTTTTTTTTTTT MOQGAD      TELAPSE      305.39 TCPU      282.98
 TTTTTTTTTTTTTTTTTTTTTTTTTTTTTT SHELLXN     TELAPSE      332.15 TCPU      309.47
 TTTTTTTTTTTTTTTTTTTTTTTTTTTTTT MONMO3      TELAPSE      336.09 TCPU      313.39
 NUMERICALLY INTEGRATED DENSITY    768.0000496126
 TTTTTTTTTTTTTTTTTTTTTTTTTTTTTT NUMDFT      TELAPSE      337.66 TCPU      314.96
 CYC   6 ETOT(AU) -3.644788949676E+04 DETOT -8.70E-03 tst  5.41E-05 PX  3.23E-02
 TTTTTTTTTTTTTTTTTTTTTTTTTTTTTT DIIS        TELAPSE      337.86 TCPU      315.15
 DIIS TEST: 0.44592E-01 AT SCF   CYCLE   6 - DIIS ACTIVE - HISTORY:     6 CYCLES
 TTTTTTTTTTTTTTTTTTTTTTTTTTTTTT FDIK        TELAPSE      346.87 TCPU      324.00
 INSULATING STATE
 TOP OF VALENCE BANDS -    BAND    384; K    5; EIG -2.0702940E-01 AU
 TOP OF VALENCE BANDS -    BAND    384; K    1; EIG -2.0719548E-01 AU
 BOTTOM OF VIRTUAL BANDS - BAND    385; K    6; EIG -1.2303530E-01 AU
 INDIRECT ENERGY BAND GAP:   2.2856 eV
 BOTTOM OF VIRTUAL BANDS - BAND    385; K    1; EIG -1.1991358E-01 AU
 TTTTTTTTTTTTTTTTTTTTTTTTTTTTTT PDIG        TELAPSE      347.94 TCPU      325.07
 TOTAL ATOMIC CHARGES:
   1.3632292   1.3632292   1.3632292   1.3632292   6.1417127   6.1417127
   6.1417127   6.1417127   5.8225112   5.8225112   5.8225112   5.8225112
   5.9650827   5.9650827   5.9650827   5.9650827   5.8066983   5.8066983
   5.8066983   5.8066983   6.0698727   6.0698727   6.0698727   6.0698727
   5.9585286   5.9585286   5.9585286   5.9585286   7.1909919   7.1909919
   7.1909919   7.1909919   7.1109702   7.1109702   7.1109702   7.1109702
   7.1524252   7.1524252   7.1524252   7.1524252   7.0422400   7.0422400
   7.0422400   7.0422400   7.0881034   7.0881034   7.0881034   7.0881034
  28.7633922  28.7571918  35.0137040  35.0137040  35.0137040  35.0137040
  34.9522081  34.9522081  34.9522081  34.9522081  34.9415760  34.9415760
  34.9415760  34.9415760
 TTTTTTTTTTTTTTTTTTTTTTTTTTTTTT MOQGAD      TELAPSE      347.97 TCPU      325.09
 TTTTTTTTTTTTTTTTTTTTTTTTTTTTTT SHELLXN     TELAPSE      376.79 TCPU      351.55
 TTTTTTTTTTTTTTTTTTTTTTTTTTTTTT MONMO3      TELAPSE      380.63 TCPU      355.39
 NUMERICALLY INTEGRATED DENSITY    768.0000489879
 TTTTTTTTTTTTTTTTTTTTTTTTTTTTTT NUMDFT      TELAPSE      382.24 TCPU      356.98
 CYC   7 ETOT(AU) -3.644789431438E+04 DETOT -4.82E-03 tst  4.04E-05 PX  1.59E-02
 TTTTTTTTTTTTTTTTTTTTTTTTTTTTTT DIIS        TELAPSE      382.47 TCPU      357.20
 DIIS TEST: 0.16412E-01 AT SCF   CYCLE   7 - DIIS ACTIVE - HISTORY:     7 CYCLES
 TTTTTTTTTTTTTTTTTTTTTTTTTTTTTT FDIK        TELAPSE      393.57 TCPU      366.04
 INSULATING STATE
 TOP OF VALENCE BANDS -    BAND    384; K    5; EIG -2.0776149E-01 AU
 TOP OF VALENCE BANDS -    BAND    384; K    1; EIG -2.0793337E-01 AU
 BOTTOM OF VIRTUAL BANDS - BAND    385; K    6; EIG -1.2357013E-01 AU
 INDIRECT ENERGY BAND GAP:   2.2910 eV
 BOTTOM OF VIRTUAL BANDS - BAND    385; K    1; EIG -1.2057288E-01 AU
 TTTTTTTTTTTTTTTTTTTTTTTTTTTTTT PDIG        TELAPSE      394.64 TCPU      367.11
 TOTAL ATOMIC CHARGES:
   1.3612981   1.3612981   1.3612981   1.3612981   6.1404419   6.1404419
   6.1404419   6.1404419   5.8235968   5.8235968   5.8235968   5.8235968
   5.9614668   5.9614668   5.9614668   5.9614668   5.8319198   5.8319198
   5.8319198   5.8319198   6.0673372   6.0673372   6.0673372   6.0673372
   5.9612820   5.9612820   5.9612820   5.9612820   7.1706550   7.1706550
   7.1706550   7.1706550   7.0886695   7.0886695   7.0886695   7.0886695
   7.1714567   7.1714567   7.1714567   7.1714567   7.0616522   7.0616522
   7.0616522   7.0616522   7.0814753   7.0814753   7.0814753   7.0814753
  28.7602834  28.7564955  35.0147319  35.0147319  35.0147319  35.0147319
  34.9449510  34.9449510  34.9449510  34.9449510  34.9398709  34.9398709
  34.9398709  34.9398709
 TTTTTTTTTTTTTTTTTTTTTTTTTTTTTT MOQGAD      TELAPSE      394.67 TCPU      367.14
 TTTTTTTTTTTTTTTTTTTTTTTTTTTTTT SHELLXN     TELAPSE      423.59 TCPU      393.60
 TTTTTTTTTTTTTTTTTTTTTTTTTTTTTT MONMO3      TELAPSE      427.31 TCPU      397.31
 NUMERICALLY INTEGRATED DENSITY    768.0000492153
 TTTTTTTTTTTTTTTTTTTTTTTTTTTTTT NUMDFT      TELAPSE      428.88 TCPU      398.86
 CYC   8 ETOT(AU) -3.644789642938E+04 DETOT -2.11E-03 tst  9.23E-06 PX  7.78E-03
 TTTTTTTTTTTTTTTTTTTTTTTTTTTTTT DIIS        TELAPSE      429.08 TCPU      399.06
 DIIS TEST: 0.24264E-02 AT SCF   CYCLE   8 - DIIS ACTIVE - HISTORY:     8 CYCLES
 TTTTTTTTTTTTTTTTTTTTTTTTTTTTTT FDIK        TELAPSE      438.89 TCPU      406.73
 INSULATING STATE
 TOP OF VALENCE BANDS -    BAND    384; K    5; EIG -2.0727615E-01 AU
 TOP OF VALENCE BANDS -    BAND    384; K    1; EIG -2.0743546E-01 AU
 BOTTOM OF VIRTUAL BANDS - BAND    385; K    6; EIG -1.2343427E-01 AU
 INDIRECT ENERGY BAND GAP:   2.2815 eV
 BOTTOM OF VIRTUAL BANDS - BAND    385; K    1; EIG -1.2031818E-01 AU
 TTTTTTTTTTTTTTTTTTTTTTTTTTTTTT PDIG        TELAPSE      439.97 TCPU      407.80
 TOTAL ATOMIC CHARGES:
   1.3614488   1.3614488   1.3614488   1.3614488   6.1483318   6.1483318
   6.1483318   6.1483318   5.8239637   5.8239637   5.8239637   5.8239637
   5.9596600   5.9596600   5.9596600   5.9596600   5.8241192   5.8241192
   5.8241192   5.8241192   6.0751458   6.0751458   6.0751458   6.0751458
   5.9506748   5.9506748   5.9506748   5.9506748   7.1770837   7.1770837
   7.1770837   7.1770837   7.0899744   7.0899744   7.0899744   7.0899744
   7.1706705   7.1706705   7.1706705   7.1706705   7.0527656   7.0527656
   7.0527656   7.0527656   7.0807859   7.0807859   7.0807859   7.0807859
  28.7653135  28.7578363  35.0155425  35.0155425  35.0155425  35.0155425
  34.9471658  34.9471658  34.9471658  34.9471658  34.9418800  34.9418800
  34.9418800  34.9418800
 TTTTTTTTTTTTTTTTTTTTTTTTTTTTTT MOQGAD      TELAPSE      439.99 TCPU      407.82
 TTTTTTTTTTTTTTTTTTTTTTTTTTTTTT SHELLXN     TELAPSE      466.65 TCPU      434.30
 TTTTTTTTTTTTTTTTTTTTTTTTTTTTTT MONMO3      TELAPSE      470.68 TCPU      438.31
 NUMERICALLY INTEGRATED DENSITY    768.0000492203
 TTTTTTTTTTTTTTTTTTTTTTTTTTTTTT NUMDFT      TELAPSE      472.30 TCPU      439.92
 CYC   9 ETOT(AU) -3.644789660535E+04 DETOT -1.76E-04 tst  1.60E-06 PX  3.42E-03
 TTTTTTTTTTTTTTTTTTTTTTTTTTTTTT DIIS        TELAPSE      472.52 TCPU      440.14
 DIIS TEST: 0.12162E-02 AT SCF   CYCLE   9 - DIIS ACTIVE - HISTORY:     9 CYCLES
 TTTTTTTTTTTTTTTTTTTTTTTTTTTTTT FDIK        TELAPSE      480.96 TCPU      448.38
 INSULATING STATE
 TOP OF VALENCE BANDS -    BAND    384; K    5; EIG -2.0745903E-01 AU
 TOP OF VALENCE BANDS -    BAND    384; K    1; EIG -2.0762757E-01 AU
 BOTTOM OF VIRTUAL BANDS - BAND    385; K    6; EIG -1.2325969E-01 AU
 INDIRECT ENERGY BAND GAP:   2.2912 eV
 BOTTOM OF VIRTUAL BANDS - BAND    385; K    1; EIG -1.2019777E-01 AU
 TTTTTTTTTTTTTTTTTTTTTTTTTTTTTT PDIG        TELAPSE      482.03 TCPU      449.45
 TOTAL ATOMIC CHARGES:
   1.3615700   1.3615700   1.3615700   1.3615700   6.1439125   6.1439125
   6.1439125   6.1439125   5.8217652   5.8217652   5.8217652   5.8217652
   5.9616639   5.9616639   5.9616639   5.9616639   5.8233385   5.8233385
   5.8233385   5.8233385   6.0689415   6.0689415   6.0689415   6.0689415
   5.9567877   5.9567877   5.9567877   5.9567877   7.1737281   7.1737281
   7.1737281   7.1737281   7.0929656   7.0929656   7.0929656   7.0929656
   7.1690765   7.1690765   7.1690765   7.1690765   7.0564585   7.0564585
   7.0564585   7.0564585   7.0837898   7.0837898   7.0837898   7.0837898
  28.7655465  28.7590711  35.0157678  35.0157678  35.0157678  35.0157678
  34.9474234  34.9474234  34.9474234  34.9474234  34.9416567  34.9416567
  34.9416567  34.9416567
 TTTTTTTTTTTTTTTTTTTTTTTTTTTTTT MOQGAD      TELAPSE      482.06 TCPU      449.47
 TTTTTTTTTTTTTTTTTTTTTTTTTTTTTT SHELLXN     TELAPSE      510.91 TCPU      475.94
 TTTTTTTTTTTTTTTTTTTTTTTTTTTTTT MONMO3      TELAPSE      514.77 TCPU      479.79
 NUMERICALLY INTEGRATED DENSITY    768.0000493051
 TTTTTTTTTTTTTTTTTTTTTTTTTTTTTT NUMDFT      TELAPSE      516.34 TCPU      481.35
 CYC  10 ETOT(AU) -3.644789674511E+04 DETOT -1.40E-04 tst  4.20E-07 PX  2.01E-03
 TTTTTTTTTTTTTTTTTTTTTTTTTTTTTT DIIS        TELAPSE      516.54 TCPU      481.55
 DIIS TEST: 0.19828E-03 AT SCF   CYCLE  10 - DIIS ACTIVE - HISTORY:    10 CYCLES
 TTTTTTTTTTTTTTTTTTTTTTTTTTTTTT FDIK        TELAPSE      526.18 TCPU      491.00
 INSULATING STATE
 TOP OF VALENCE BANDS -    BAND    384; K    5; EIG -2.0748226E-01 AU
 TOP OF VALENCE BANDS -    BAND    384; K    1; EIG -2.0764575E-01 AU
 BOTTOM OF VIRTUAL BANDS - BAND    385; K    6; EIG -1.2346279E-01 AU
 INDIRECT ENERGY BAND GAP:   2.2863 eV
 BOTTOM OF VIRTUAL BANDS - BAND    385; K    1; EIG -1.2039762E-01 AU
 TTTTTTTTTTTTTTTTTTTTTTTTTTTTTT PDIG        TELAPSE      527.26 TCPU      492.08
 TOTAL ATOMIC CHARGES:
   1.3613709   1.3613709   1.3613709   1.3613709   6.1438459   6.1438459
   6.1438459   6.1438459   5.8237133   5.8237133   5.8237133   5.8237133
   5.9609403   5.9609403   5.9609403   5.9609403   5.8246135   5.8246135
   5.8246135   5.8246135   6.0703876   6.0703876   6.0703876   6.0703876
   5.9559280   5.9559280   5.9559280   5.9559280   7.1757351   7.1757351
   7.1757351   7.1757351   7.0901931   7.0901931   7.0901931   7.0901931
   7.1706205   7.1706205   7.1706205   7.1706205   7.0560148   7.0560148
   7.0560148   7.0560148   7.0830434   7.0830434   7.0830434   7.0830434
  28.7627697  28.7574951  35.0154311  35.0154311  35.0154311  35.0154311
  34.9467779  34.9467779  34.9467779  34.9467779  34.9413182  34.9413182
  34.9413182  34.9413182
 TTTTTTTTTTTTTTTTTTTTTTTTTTTTTT MOQGAD      TELAPSE      527.28 TCPU      492.10
 TTTTTTTTTTTTTTTTTTTTTTTTTTTTTT SHELLXN     TELAPSE      555.22 TCPU      518.59
 TTTTTTTTTTTTTTTTTTTTTTTTTTTTTT MONMO3      TELAPSE      558.79 TCPU      522.15
 NUMERICALLY INTEGRATED DENSITY    768.0000491939
 TTTTTTTTTTTTTTTTTTTTTTTTTTTTTT NUMDFT      TELAPSE      560.36 TCPU      523.71
 CYC  11 ETOT(AU) -3.644789676419E+04 DETOT -1.91E-05 tst  7.70E-08 PX  1.44E-03
 TTTTTTTTTTTTTTTTTTTTTTTTTTTTTT DIIS        TELAPSE      560.56 TCPU      523.91
 DIIS TEST: 0.55641E-04 AT SCF   CYCLE  11 - DIIS ACTIVE - HISTORY:    11 CYCLES
 TTTTTTTTTTTTTTTTTTTTTTTTTTTTTT FDIK        TELAPSE      570.22 TCPU      531.42
 INSULATING STATE
 TOP OF VALENCE BANDS -    BAND    384; K    5; EIG -2.0752634E-01 AU
 TOP OF VALENCE BANDS -    BAND    384; K    1; EIG -2.0769408E-01 AU
 BOTTOM OF VIRTUAL BANDS - BAND    385; K    6; EIG -1.2333716E-01 AU
 INDIRECT ENERGY BAND GAP:   2.2909 eV
 BOTTOM OF VIRTUAL BANDS - BAND    385; K    1; EIG -1.2026739E-01 AU
 TTTTTTTTTTTTTTTTTTTTTTTTTTTTTT PDIG        TELAPSE      571.29 TCPU      532.49
 TOTAL ATOMIC CHARGES:
   1.3613413   1.3613413   1.3613413   1.3613413   6.1448453   6.1448453
   6.1448453   6.1448453   5.8226856   5.8226856   5.8226856   5.8226856
   5.9608856   5.9608856   5.9608856   5.9608856   5.8240687   5.8240687
   5.8240687   5.8240687   6.0707093   6.0707093   6.0707093   6.0707093
   5.9549667   5.9549667   5.9549667   5.9549667   7.1725497   7.1725497
   7.1725497   7.1725497   7.0929379   7.0929379   7.0929379   7.0929379
   7.1691670   7.1691670   7.1691670   7.1691670   7.0569018   7.0569018
   7.0569018   7.0569018   7.0828161   7.0828161   7.0828161   7.0828161
  28.7645331  28.7577503  35.0159937  35.0159937  35.0159937  35.0159937
  34.9476982  34.9476982  34.9476982  34.9476982  34.9418623  34.9418623
  34.9418623  34.9418623
 TTTTTTTTTTTTTTTTTTTTTTTTTTTTTT MOQGAD      TELAPSE      571.32 TCPU      532.51
 TTTTTTTTTTTTTTTTTTTTTTTTTTTTTT SHELLXN     TELAPSE      600.10 TCPU      559.00
 TTTTTTTTTTTTTTTTTTTTTTTTTTTTTT MONMO3      TELAPSE      603.88 TCPU      562.77
 NUMERICALLY INTEGRATED DENSITY    768.0000492729
 TTTTTTTTTTTTTTTTTTTTTTTTTTTTTT NUMDFT      TELAPSE      605.50 TCPU      564.37
 CYC  12 ETOT(AU) -3.644789676298E+04 DETOT  1.21E-06 tst  8.83E-08 PX  8.06E-04
 TTTTTTTTTTTTTTTTTTTTTTTTTTTTTT DIIS        TELAPSE      605.73 TCPU      564.59
 DIIS TEST: 0.60601E-04 AT SCF   CYCLE  12 - DIIS ACTIVE - HISTORY:    12 CYCLES
 TTTTTTTTTTTTTTTTTTTTTTTTTTTTTT FDIK        TELAPSE      614.76 TCPU      573.44
 INSULATING STATE
 TOP OF VALENCE BANDS -    BAND    384; K    5; EIG -2.0749079E-01 AU
 TOP OF VALENCE BANDS -    BAND    384; K    1; EIG -2.0765640E-01 AU
 BOTTOM OF VIRTUAL BANDS - BAND    385; K    6; EIG -1.2337127E-01 AU
 INDIRECT ENERGY BAND GAP:   2.2890 eV
 BOTTOM OF VIRTUAL BANDS - BAND    385; K    1; EIG -1.2030595E-01 AU
 TTTTTTTTTTTTTTTTTTTTTTTTTTTTTT PDIG        TELAPSE      615.84 TCPU      574.51
 TOTAL ATOMIC CHARGES:
   1.3614465   1.3614465   1.3614465   1.3614465   6.1445507   6.1445507
   6.1445507   6.1445507   5.8224321   5.8224321   5.8224321   5.8224321
   5.9610121   5.9610121   5.9610121   5.9610121   5.8241060   5.8241060
   5.8241060   5.8241060   6.0699200   6.0699200   6.0699200   6.0699200
   5.9558854   5.9558854   5.9558854   5.9558854   7.1748533   7.1748533
   7.1748533   7.1748533   7.0912321   7.0912321   7.0912321   7.0912321
   7.1702814   7.1702814   7.1702814   7.1702814   7.0560045   7.0560045
   7.0560045   7.0560045   7.0833058   7.0833058   7.0833058   7.0833058
  28.7640821  28.7579755  35.0157347  35.0157347  35.0157347  35.0157347
[...]
 TTTTTTTTTTTTTTTTTTTTTTTTTTTTTT CP_MONMON   TELAPSE    52298.99 TCPU    48174.09
 DIIS TEST: 0.64192E-01 AT CPHF  CYCLE   7 - DIIS ACTIVE - HISTORY:     7 CYCLES
 CYCLE   7   ALPHA 2196.099247  EPSILON    5.587478  DELTA    1.5734E+00
 TTTTTTTTTTTTTTTTTTTTTTTTTTTTTT MOQGAD      TELAPSE    52769.95 TCPU    48640.39
 TTTTTTTTTTTTTTTTTTTTTTTTTTTTTT CP_MONMON   TELAPSE    52778.48 TCPU    48648.89
 DIIS TEST: 0.23448E-01 AT CPHF  CYCLE   8 - DIIS ACTIVE - HISTORY:     8 CYCLES
 CYCLE   8   ALPHA 2196.721035  EPSILON    5.588777  DELTA    6.2179E-01
 TTTTTTTTTTTTTTTTTTTTTTTTTTTTTT MOQGAD      TELAPSE    53248.69 TCPU    49115.63
 TTTTTTTTTTTTTTTTTTTTTTTTTTTTTT CP_MONMON   TELAPSE    53257.24 TCPU    49124.14
 DIIS TEST: 0.24966E-02 AT CPHF  CYCLE   9 - DIIS ACTIVE - HISTORY:     9 CYCLES
 CYCLE   9   ALPHA 2196.643332  EPSILON    5.588614  DELTA   -7.7703E-02
 TTTTTTTTTTTTTTTTTTTTTTTTTTTTTT MOQGAD      TELAPSE    53734.33 TCPU    49591.90
 TTTTTTTTTTTTTTTTTTTTTTTTTTTTTT CP_MONMON   TELAPSE    53742.86 TCPU    49600.41
 DIIS TEST: 0.32837E-03 AT CPHF  CYCLE  10 - DIIS ACTIVE - HISTORY:    10 CYCLES
 CYCLE  10   ALPHA 2196.605724  EPSILON    5.588536  DELTA   -3.7608E-02
 TTTTTTTTTTTTTTTTTTTTTTTTTTTTTT MOQGAD      TELAPSE    54219.07 TCPU    50069.29
 TTTTTTTTTTTTTTTTTTTTTTTTTTTTTT CP_MONMON   TELAPSE    54227.63 TCPU    50077.83
 DIIS TEST: 0.99937E-04 AT CPHF  CYCLE  11 - DIIS ACTIVE - HISTORY:    11 CYCLES
 CYCLE  11   ALPHA 2196.576125  EPSILON    5.588474  DELTA   -2.9599E-02
 TTTTTTTTTTTTTTTTTTTTTTTTTTTTTT MOQGAD      TELAPSE    54700.97 TCPU    50544.12
 TTTTTTTTTTTTTTTTTTTTTTTTTTTTTT CP_MONMON   TELAPSE    54709.51 TCPU    50552.61
 DIIS TEST: 0.12053E-03 AT CPHF  CYCLE  12 - DIIS ACTIVE - HISTORY:    12 CYCLES
 CYCLE  12   ALPHA 2196.556497  EPSILON    5.588433  DELTA   -1.9628E-02
 TTTTTTTTTTTTTTTTTTTTTTTTTTTTTT MOQGAD      TELAPSE    55182.85 TCPU    51020.46
 TTTTTTTTTTTTTTTTTTTTTTTTTTTTTT CP_MONMON   TELAPSE    55191.39 TCPU    51028.97
 DIIS TEST: 0.35384E-05 AT CPHF  CYCLE  13 - DIIS ACTIVE - HISTORY:    13 CYCLES
 CYCLE  13   ALPHA 2196.549265  EPSILON    5.588418  DELTA   -7.2315E-03
 TTTTTTTTTTTTTTTTTTTTTTTTTTTTTT MOQGAD      TELAPSE    55661.92 TCPU    51495.90
 TTTTTTTTTTTTTTTTTTTTTTTTTTTTTT CP_MONMON   TELAPSE    55670.46 TCPU    51504.41
 DIIS TEST: 0.46254E-06 AT CPHF  CYCLE  14 - DIIS ACTIVE - HISTORY:    14 CYCLES
 CYCLE  14   ALPHA 2196.546934  EPSILON    5.588413  DELTA   -2.3307E-03
 TTTTTTTTTTTTTTTTTTTTTTTTTTTTTT MOQGAD      TELAPSE    56140.81 TCPU    51970.88
 TTTTTTTTTTTTTTTTTTTTTTTTTTTTTT CP_MONMON   TELAPSE    56149.35 TCPU    51979.38
 DIIS TEST: 0.30336E-07 AT CPHF  CYCLE  15 - DIIS ACTIVE - HISTORY:    15 CYCLES
 CYCLE  15   ALPHA 2196.545459  EPSILON    5.588410  DELTA   -1.4752E-03
 TTTTTTTTTTTTTTTTTTTTTTTTTTTTTT MOQGAD      TELAPSE    56622.13 TCPU    52445.45
 TTTTTTTTTTTTTTTTTTTTTTTTTTTTTT CP_MONMON   TELAPSE    56630.67 TCPU    52453.96
 DIIS TEST: 0.69927E-08 AT CPHF  CYCLE  16 - DIIS ACTIVE - HISTORY:    16 CYCLES
 CYCLE  16   ALPHA 2196.545511  EPSILON    5.588410  DELTA    5.1664E-05
 TTTTTTTTTTTTTTTTTTTTTTTTTTTTTT CP_SC       TELAPSE    56688.02 TCPU    52505.64

 *******************************************************************************

 ELECTRIC FIELD APPLIED ALONG CARTESIAN DIRECTION Z

 *******************************************************************************
 THE NUMBER OF SYMMETRY OPERATORS HAS BEEN REDUCED FROM  4 TO  1

 NEW GRID IN RECIPROCAL SPACE
 *******************************************************************************
 POINTS IN THE IBZ                  14 SHRINKING FACTORS               3  3  3
 *******************************************************************************
 *** K POINTS COORDINATES (OBLIQUE COORDINATES IN UNITS OF SHRINK FAC. )
   1-R(  0  0  0)   2-C(  1  0  0)   3-C(  0  1  2)   4-C(  2  0  1)
   5-C(  0  2  0)   6-C(  1  1  0)   7-C(  1  1  1)   8-C(  1  0  1)
   9-C(  0  1  1)  10-C(  2  1  0)  11-C(  0  0  2)  12-C(  2  1  1)
  13-C(  2  1  2)  14-C(  2  2  1)

 GCALCO - MAX INDICES DIRECT LATTICE VECTOR    14    14    15
 NO.OF VECTORS CREATED 6999 STARS  488 RMAX   215.92170 BOHR
 TTTTTTTTTTTTTTTTTTTTTTTTTTTTTT gordsh1     TELAPSE    56712.63 TCPU    52530.12

 MATRIX SIZE: P(G) 2035696, F(G) 1018612, P(G) IRR 1020490, F(G) IRR 1020490
 MAX G-VECTOR INDEX FOR 1- AND 2-ELECTRON INTEGRALS  59

 TTTTTTTTTTTTTTTTTTTTTTTTTTTTTT INPUT       TELAPSE    56736.15 TCPU    52553.55
 TTTTTTTTTTTTTTTTTTTTTTTTTTTTTT SYMM        TELAPSE    56736.15 TCPU    52553.55

 ***** NEW REFERENCE GEOMETRY *****
 TTTTTTTTTTTTTTTTTTTTTTTTTTTTTT INT_SCREEN  TELAPSE    56736.16 TCPU    52553.56
 INFORMATION **** EXCBUF **** EXCH. BIPO BUFFER: WORDS USED =           0

 DFT PARAMETERS

     ATOM       ELECTRONS   NET CHARGE   R(ANGSTROM)
   1   1  H       1.0000      0.0000     1.11000000
   5   6  C       6.0000      0.0000     0.77000000
  29   7  N       7.0000      0.0000     0.74000000
  49  30  ZN     30.0000      0.0000     1.37000000
  51  35  BR     35.0000      0.0000     1.14000000

 SIZE OF GRID=    1911820
 TTTTTTTTTTTTTTTTTTTTTTTTTTTTTT MAKE_GRID2  TELAPSE    56737.41 TCPU    52554.80
 BECKE WEIGHT FUNCTION
 RADSAFE =     2.00
 TOLERANCES - DENSITY:10**- 6; POTENTIAL:10**- 9; GRID WGT:10**-14

 RADIAL INTEGRATION  - INTERVALS (POINTS,UPPER LIMIT):            1( 75,  4.0*R)

 ANGULAR INTEGRATION - INTERVALS (ACCURACY LEVEL [N. POINTS] UPPER LIMIT):
  1(  4[  86]   0.2)  2(  8[ 194]   0.5)  3( 12[ 350]   0.9)  4( 16[ 974]   3.5)
  5( 12[ 350]9999.0)
 TTTTTTTTTTTTTTTTTTTTTTTTTTTTTT INT_CALC    TELAPSE    56737.46 TCPU    52554.85
 CYCLE   0   ALPHA 1043.486776  EPSILON    3.179761  DELTA    1.0435E+03
 TTTTTTTTTTTTTTTTTTTTTTTTTTTTTT MOQGAD      TELAPSE    57194.51 TCPU    53009.51
 TTTTTTTTTTTTTTTTTTTTTTTTTTTTTT CP_MONMON   TELAPSE    57203.04 TCPU    53018.01
 DIIS TEST: 0.99855E+02 AT CPHF  CYCLE   1 - MIX    0 %
 CYCLE   1   ALPHA  597.377454  EPSILON    2.247874  DELTA   -4.4611E+02
 TTTTTTTTTTTTTTTTTTTTTTTTTTTTTT MOQGAD      TELAPSE    57669.29 TCPU    53480.41
 TTTTTTTTTTTTTTTTTTTTTTTTTTTTTT CP_MONMON   TELAPSE    57677.88 TCPU    53488.96
 DIIS TEST: 0.65575E+03 AT CPHF  CYCLE   2 - DIIS ACTIVE - HISTORY:     2 CYCLES
 CYCLE   2   ALPHA  777.689526  EPSILON    2.624532  DELTA    1.8031E+02
 TTTTTTTTTTTTTTTTTTTTTTTTTTTTTT MOQGAD      TELAPSE    58145.70 TCPU    53950.23
 TTTTTTTTTTTTTTTTTTTTTTTTTTTTTT CP_MONMON   TELAPSE    58154.23 TCPU    53958.73
 DIIS TEST: 0.79110E+02 AT CPHF  CYCLE   3 - DIIS ACTIVE - HISTORY:     3 CYCLES
 CYCLE   3   ALPHA  837.106147  EPSILON    2.748649  DELTA    5.9417E+01
 TTTTTTTTTTTTTTTTTTTTTTTTTTTTTT MOQGAD      TELAPSE    58619.86 TCPU    54420.88
 TTTTTTTTTTTTTTTTTTTTTTTTTTTTTT CP_MONMON   TELAPSE    58628.39 TCPU    54429.38
 DIIS TEST: 0.52594E+01 AT CPHF  CYCLE   4 - DIIS ACTIVE - HISTORY:     4 CYCLES
 CYCLE   4   ALPHA  839.100485  EPSILON    2.752815  DELTA    1.9943E+00
 TTTTTTTTTTTTTTTTTTTTTTTTTTTTTT MOQGAD      TELAPSE    59097.55 TCPU    54894.97
 TTTTTTTTTTTTTTTTTTTTTTTTTTTTTT CP_MONMON   TELAPSE    59106.09 TCPU    54903.47
 DIIS TEST: 0.50096E+00 AT CPHF  CYCLE   5 - DIIS ACTIVE - HISTORY:     5 CYCLES
 CYCLE   5   ALPHA  839.641134  EPSILON    2.753944  DELTA    5.4065E-01
 TTTTTTTTTTTTTTTTTTTTTTTTTTTTTT MOQGAD      TELAPSE    59573.11 TCPU    55366.72
 TTTTTTTTTTTTTTTTTTTTTTTTTTTTTT CP_MONMON   TELAPSE    59581.64 TCPU    55375.22
 DIIS TEST: 0.62350E-01 AT CPHF  CYCLE   6 - DIIS ACTIVE - HISTORY:     6 CYCLES
 CYCLE   6   ALPHA  839.845266  EPSILON    2.754370  DELTA    2.0413E-01
 TTTTTTTTTTTTTTTTTTTTTTTTTTTTTT MOQGAD      TELAPSE    60051.31 TCPU    55838.21
 TTTTTTTTTTTTTTTTTTTTTTTTTTTTTT CP_MONMON   TELAPSE    60059.84 TCPU    55846.71
 DIIS TEST: 0.32154E-01 AT CPHF  CYCLE   7 - DIIS ACTIVE - HISTORY:     7 CYCLES
 CYCLE   7   ALPHA  839.880119  EPSILON    2.754443  DELTA    3.4853E-02
 TTTTTTTTTTTTTTTTTTTTTTTTTTTTTT MOQGAD      TELAPSE    60523.74 TCPU    56305.44
 TTTTTTTTTTTTTTTTTTTTTTTTTTTTTT CP_MONMON   TELAPSE    60532.28 TCPU    56313.95
 DIIS TEST: 0.15444E-02 AT CPHF  CYCLE   8 - DIIS ACTIVE - HISTORY:     8 CYCLES
 CYCLE   8   ALPHA  839.856001  EPSILON    2.754393  DELTA   -2.4117E-02
 TTTTTTTTTTTTTTTTTTTTTTTTTTTTTT MOQGAD      TELAPSE    61000.36 TCPU    56775.41
 TTTTTTTTTTTTTTTTTTTTTTTTTTTTTT CP_MONMON   TELAPSE    61008.90 TCPU    56783.91
 DIIS TEST: 0.34282E-03 AT CPHF  CYCLE   9 - DIIS ACTIVE - HISTORY:     9 CYCLES
 CYCLE   9   ALPHA  839.845800  EPSILON    2.754371  DELTA   -1.0201E-02
 TTTTTTTTTTTTTTTTTTTTTTTTTTTTTT MOQGAD      TELAPSE    61476.63 TCPU    57247.00
 TTTTTTTTTTTTTTTTTTTTTTTTTTTTTT CP_MONMON   TELAPSE    61485.17 TCPU    57255.52
 DIIS TEST: 0.13572E-03 AT CPHF  CYCLE  10 - DIIS ACTIVE - HISTORY:    10 CYCLES
 CYCLE  10   ALPHA  839.842889  EPSILON    2.754365  DELTA   -2.9118E-03
 TTTTTTTTTTTTTTTTTTTTTTTTTTTTTT MOQGAD      TELAPSE    61948.26 TCPU    57714.85
 TTTTTTTTTTTTTTTTTTTTTTTTTTTTTT CP_MONMON   TELAPSE    61956.85 TCPU    57723.37
 DIIS TEST: 0.76192E-04 AT CPHF  CYCLE  11 - DIIS ACTIVE - HISTORY:    11 CYCLES
 CYCLE  11   ALPHA  839.840624  EPSILON    2.754361  DELTA   -2.2642E-03
 TTTTTTTTTTTTTTTTTTTTTTTTTTTTTT MOQGAD      TELAPSE    62426.37 TCPU    58187.51
 TTTTTTTTTTTTTTTTTTTTTTTTTTTTTT CP_MONMON   TELAPSE    62434.90 TCPU    58196.00
 DIIS TEST: 0.44688E-05 AT CPHF  CYCLE  12 - DIIS ACTIVE - HISTORY:    12 CYCLES
 CYCLE  12   ALPHA  839.839113  EPSILON    2.754358  DELTA   -1.5117E-03
 TTTTTTTTTTTTTTTTTTTTTTTTTTTTTT MOQGAD      TELAPSE    62907.72 TCPU    58660.62
 TTTTTTTTTTTTTTTTTTTTTTTTTTTTTT CP_MONMON   TELAPSE    62916.25 TCPU    58669.12
 DIIS TEST: 0.88654E-06 AT CPHF  CYCLE  13 - DIIS ACTIVE - HISTORY:    13 CYCLES
 CYCLE  13   ALPHA  839.838625  EPSILON    2.754356  DELTA   -4.8750E-04
 TTTTTTTTTTTTTTTTTTTTTTTTTTTTTT CP_SC       TELAPSE    62958.34 TCPU    58708.30

 *******************************************************************************

 POLARIZABILITY (ALPHA), DIELECTRIC (EPSILON) AND FIRST-ORDER ELECTRIC
 SUSCEPTIBILITY (CHI(1)) TENSORS (INDEPENDENT COMPONENTS)

  FR.(eV) COMP.   ALPHA(Re,Im)           EPSILON(Re,Im)                CHI(1)
  2.331   XX    2196.5454       0.0000       5.5884       0.0000       4.5884
  2.331   XY       0.0102       0.0000       0.0000       0.0000       0.0000
  2.331   XZ       0.0000       0.0000       0.0000       0.0000       0.0000
  2.331   YY    2196.5455       0.0000       5.5884       0.0000       4.5884
  2.331   YZ      -0.0000       0.0000      -0.0000       0.0000      -0.0000
  2.331   ZZ     839.8386       0.0000       2.7544       0.0000       1.7544

 DIELECTRIC TENSOR

 TENSOR IN PRINCIPAL AXES SYSTEM
 AA  5.588388E+00 BB  5.588431E+00 CC  2.754356E+00

 REFRACTIVE INDICES 
 AA  1.659625E+00 BB  2.363977E+00 CC  2.363986E+00

 OPTICALLY ANISOTROPIC - UNIAXIAL CRYSTAL

 BIREFRINGENCE =  0.7044 (NEGATIVE) - OBLATE OPTICAL ELLIPSOID

 EPSILON=N**2=1+CHI(1)=1+ALPHA*4*PI/V,   4*PI/V=   0.00209 BOHR**(-3)
 ALPHA IN BOHR**3; EPSILON AND CHI(1) ARE DIMENSIONLESS.
 *******************************************************************************


  Pockels Effect beta(-omega;omega,0) with omega=   1.1653 eV


 SIZE OF GRID=    1911820
 TTTTTTTTTTTTTTTTTTTTTTTTTTTTTT MAKE_GRID2  TELAPSE    63425.45 TCPU    59173.65
 BECKE WEIGHT FUNCTION
 RADSAFE =     2.00
 TOLERANCES - DENSITY:10**- 6; POTENTIAL:10**- 9; GRID WGT:10**-14

 RADIAL INTEGRATION  - INTERVALS (POINTS,UPPER LIMIT):            1( 75,  4.0*R)

 ANGULAR INTEGRATION - INTERVALS (ACCURACY LEVEL [N. POINTS] UPPER LIMIT):
  1(  4[  86]   0.2)  2(  8[ 194]   0.5)  3( 12[ 350]   0.9)  4( 16[ 974]   3.5)
  5( 12[ 350]9999.0)

 SIZE OF GRID=    1911820
 TTTTTTTTTTTTTTTTTTTTTTTTTTTTTT MAKE_GRID2  TELAPSE    63427.60 TCPU    59175.29
 BECKE WEIGHT FUNCTION
 RADSAFE =     2.00
 TOLERANCES - DENSITY:10**- 6; POTENTIAL:10**- 9; GRID WGT:10**-14

 RADIAL INTEGRATION  - INTERVALS (POINTS,UPPER LIMIT):            1( 75,  4.0*R)

 ANGULAR INTEGRATION - INTERVALS (ACCURACY LEVEL [N. POINTS] UPPER LIMIT):
  1(  4[  86]   0.2)  2(  8[ 194]   0.5)  3( 12[ 350]   0.9)  4( 16[ 974]   3.5)
  5( 12[ 350]9999.0)
 *******************************************************************************

 DC-POCKELS AND SECOND ELECTRIC SUSCEPTIBILITY (CHI(2))
 TENSORS (INDEPENDENT COMPONENTS)

BETA                                         CHI(2)       d(MKS)       d(cgs)
 *******************************************************************************

     XXX          0.1476E-02   0.1542E-05   0.1499E-05   0.3577E-07
     XXY         -0.5710E-03  -0.5964E-06  -0.5799E-06  -0.1383E-07
     XXZ          0.2998E+03   0.3131E+00   0.3045E+00   0.7264E-02
     XYX         -0.9580E-03  -0.1001E-05  -0.9729E-06  -0.2321E-07
     XYY          0.6224E-03   0.6500E-06   0.6321E-06   0.1508E-07
     XYZ         -0.5643E+03  -0.5894E+00  -0.5731E+00  -0.1367E-01
     XZX          0.2502E+03   0.2613E+00   0.2541E+00   0.6062E-02
     XZY         -0.4866E+03  -0.5083E+00  -0.4942E+00  -0.1179E-01
     XZZ          0.5959E-03   0.6224E-06   0.6052E-06   0.1444E-07
     YXX         -0.1052E-02  -0.1099E-05  -0.1068E-05  -0.2549E-07
     YXY          0.8483E-03   0.8861E-06   0.8616E-06   0.2055E-07
     YXZ         -0.5643E+03  -0.5894E+00  -0.5731E+00  -0.1367E-01
     YYX          0.7934E-03   0.8287E-06   0.8058E-06   0.1922E-07
     YYY          0.1871E-03   0.1955E-06   0.1901E-06   0.4534E-08
     YYZ         -0.2998E+03  -0.3131E+00  -0.3045E+00  -0.7264E-02
     YZX         -0.4866E+03  -0.5083E+00  -0.4942E+00  -0.1179E-01
     YZY         -0.2502E+03  -0.2613E+00  -0.2541E+00  -0.6062E-02
     YZZ         -0.8103E-03  -0.8463E-06  -0.8229E-06  -0.1963E-07
     ZXX          0.2519E+03   0.2631E+00   0.2558E+00   0.6103E-02
     ZXY         -0.4879E+03  -0.5096E+00  -0.4955E+00  -0.1182E-01
     ZXZ          0.5976E-03   0.6242E-06   0.6069E-06   0.1448E-07
     ZYX         -0.4879E+03  -0.5096E+00  -0.4955E+00  -0.1182E-01
     ZYY         -0.2519E+03  -0.2631E+00  -0.2558E+00  -0.6103E-02
     ZYZ         -0.7026E-03  -0.7338E-06  -0.7135E-06  -0.1702E-07
     ZZX          0.1079E-03   0.1127E-06   0.1096E-06   0.2615E-08
     ZZY         -0.6434E-03  -0.6720E-06  -0.6534E-06  -0.1559E-07
     ZZZ         -0.5593E-02  -0.5842E-05  -0.5680E-05  -0.1355E-06
 *******************************************************************************
 CHI(2) = BETA*2PI/V

 BETA AND CHI(2) IN A.U.:    [BETA] = M**(-1/2) L**(7/2) T
                             [CHI(2)] = 1/F
                             (L=LENGTH, M=MASS, T=TIME, F=FIELD INTENSITY)

 ELECTRIC SUSCEPTIBILITY IN THE SECOND HARMONIC GENERATION (SHG) CONVENTION IS:
                   d(A.U.)= 1/2 CHI(2)
                   d(MKS) = d(A.U.)/0.514220632 pm/V
                   d(CGS) = d(A.U.)/(4PI*1.7152535)  10**(-7) esu

 FIELD INTENSITY: 1 A.U. = 0.514220632*10**(11) V/m = 1.7152535*10**7 esu
 BEWARE:                CHI(2)=P/(E0*F**2)   (MKS)
                        CHI(2)=P/F**2        (CGS)
 WHERE P IS THE POLARIZATION VECTOR AND F IS THE APPLIED ELECTRIC FIELD.
 CONSISTENCY IS  PRESERVED BY MULTIPLYING THE CGS VALUE TIMES THE PERMITTIVITY
 OF THE VACUUM, E0 (CONVERSION FACTORS FROM www.physics.nist.gov/constants).
 IN PARENTHESIS: BETA BEFORE SYMMETRIZATION.

  SHG Effect beta(-2omega;omega,omega) with omega=   1.1653 eV


 SIZE OF GRID=    1911820
 TTTTTTTTTTTTTTTTTTTTTTTTTTTTTT MAKE_GRID2  TELAPSE    63910.71 TCPU    59656.71
 BECKE WEIGHT FUNCTION
 RADSAFE =     2.00
 TOLERANCES - DENSITY:10**- 6; POTENTIAL:10**- 9; GRID WGT:10**-14

 RADIAL INTEGRATION  - INTERVALS (POINTS,UPPER LIMIT):            1( 75,  4.0*R)

 ANGULAR INTEGRATION - INTERVALS (ACCURACY LEVEL [N. POINTS] UPPER LIMIT):
  1(  4[  86]   0.2)  2(  8[ 194]   0.5)  3( 12[ 350]   0.9)  4( 16[ 974]   3.5)
  5( 12[ 350]9999.0)

 SIZE OF GRID=    1911820
 TTTTTTTTTTTTTTTTTTTTTTTTTTTTTT MAKE_GRID2  TELAPSE    63912.14 TCPU    59658.13
 BECKE WEIGHT FUNCTION
 RADSAFE =     2.00
 TOLERANCES - DENSITY:10**- 6; POTENTIAL:10**- 9; GRID WGT:10**-14

 RADIAL INTEGRATION  - INTERVALS (POINTS,UPPER LIMIT):            1( 75,  4.0*R)

 ANGULAR INTEGRATION - INTERVALS (ACCURACY LEVEL [N. POINTS] UPPER LIMIT):
  1(  4[  86]   0.2)  2(  8[ 194]   0.5)  3( 12[ 350]   0.9)  4( 16[ 974]   3.5)
  5( 12[ 350]9999.0)
 *******************************************************************************

 SECOND HARMONIC GENERATION (SHG)  AND SECOND ELECTRIC SUSCEPTIBILITY (CHI(2))
 TENSORS (INDEPENDENT COMPONENTS)

BETA                                         CHI(2)       d(MKS)       d(cgs)
 *******************************************************************************

     XXX          0.7275E-02   0.7599E-05   0.7389E-05   0.1763E-06
     XXY         -0.6246E-02  -0.6523E-05  -0.6343E-05  -0.1513E-06
     XXZ         -0.8635E+04  -0.9018E+01  -0.8769E+01  -0.2092E+00
     XYX         -0.6246E-02  -0.6523E-05  -0.6343E-05  -0.1513E-06
     XYY         -0.8392E-02  -0.8765E-05  -0.8523E-05  -0.2033E-06
     XYZ          0.1496E+05   0.1563E+02   0.1520E+02   0.3625E+00
     XZX         -0.8635E+04  -0.9018E+01  -0.8769E+01  -0.2092E+00
     XZY          0.1496E+05   0.1563E+02   0.1520E+02   0.3625E+00
     XZZ          0.8286E-03   0.8655E-06   0.8415E-06   0.2008E-07
     YXX         -0.2245E-01  -0.2345E-04  -0.2280E-04  -0.5439E-06
     YXY          0.6294E-02   0.6574E-05   0.6392E-05   0.1525E-06
     YXZ          0.1496E+05   0.1563E+02   0.1519E+02   0.3625E+00
     YYX          0.6294E-02   0.6574E-05   0.6392E-05   0.1525E-06
     YYY         -0.6650E-02  -0.6945E-05  -0.6753E-05  -0.1611E-06
     YYZ          0.8635E+04   0.9019E+01   0.8769E+01   0.2092E+00
     YZX          0.1496E+05   0.1563E+02   0.1519E+02   0.3625E+00
     YZY          0.8635E+04   0.9019E+01   0.8769E+01   0.2092E+00
     YZZ         -0.8870E-02  -0.9264E-05  -0.9008E-05  -0.2149E-06
     ZXX         -0.4131E+04  -0.4314E+01  -0.4195E+01  -0.1001E+00
     ZXY         -0.1362E+05  -0.1422E+02  -0.1383E+02  -0.3299E+00
     ZXZ          0.5747E-02   0.6003E-05   0.5837E-05   0.1392E-06
     ZYX         -0.1362E+05  -0.1422E+02  -0.1383E+02  -0.3299E+00
     ZYY          0.4132E+04   0.4316E+01   0.4196E+01   0.1001E+00
     ZYZ          0.1073E-01   0.1120E-04   0.1089E-04   0.2599E-06
     ZZX          0.5747E-02   0.6003E-05   0.5837E-05   0.1392E-06
     ZZY          0.1073E-01   0.1120E-04   0.1089E-04   0.2599E-06
     ZZZ         -0.8291E-02  -0.8659E-05  -0.8420E-05  -0.2009E-06
 *******************************************************************************
 CHI(2) = BETA*2PI/V

 BETA AND CHI(2) IN A.U.:    [BETA] = M**(-1/2) L**(7/2) T
                             [CHI(2)] = 1/F
                             (L=LENGTH, M=MASS, T=TIME, F=FIELD INTENSITY)

 ELECTRIC SUSCEPTIBILITY IN THE SECOND HARMONIC GENERATION (SHG) CONVENTION IS:
                   d(A.U.)= 1/2 CHI(2)
                   d(MKS) = d(A.U.)/0.514220632 pm/V
                   d(CGS) = d(A.U.)/(4PI*1.7152535)  10**(-7) esu

 FIELD INTENSITY: 1 A.U. = 0.514220632*10**(11) V/m = 1.7152535*10**7 esu
 BEWARE:                CHI(2)=P/(E0*F**2)   (MKS)
                        CHI(2)=P/F**2        (CGS)
 WHERE P IS THE POLARIZATION VECTOR AND F IS THE APPLIED ELECTRIC FIELD.
 CONSISTENCY IS  PRESERVED BY MULTIPLYING THE CGS VALUE TIMES THE PERMITTIVITY
 OF THE VACUUM, E0 (CONVERSION FACTORS FROM www.physics.nist.gov/constants).
 IN PARENTHESIS: BETA BEFORE SYMMETRIZATION.

 *******************************************************************************


 GCALCO - MAX INDICES DIRECT LATTICE VECTOR    14    14    15
 NO.OF VECTORS CREATED 6999 STARS  488 RMAX   215.92170 BOHR

 CAPPA:IS1  3;IS2  3;IS3  3; K PTS MONK NET   6; SYMMOPS:K SPACE   8;G SPACE   4

 TTTTTTTTTTTTTTTTTTTTTTTTTTTTTT END         TELAPSE    63912.32 TCPU    59658.31
 EEEEEEEEEE TERMINATION  DATE 10 03 2024 TIME 07:43:35.0
NODE    0 CPU TIME =     59658.309
    TOTAL CPU TIME =   3820795.424
