Loading crystal17/1.0.2/intel/19.0
  Loading requirement: intel/19.0 ompi/4.0.1/intel/19.0
          64 PROCESSORS WORKING

         
 *******************************************************************************
 *                                                                             *
 *                               CRYSTAL17                                     *
 *                      public : 1.0.2 - March 1st, 2018                       *
 *                       HTTP://WWW.CRYSTAL.UNITO.IT                           *
 *                                                                             *
 *                              MAIN AUTHORS                                   *
 *                                                                             *
 *  R. DOVESI(1,11), V.R. SAUNDERS(2), C. ROETTI(1,11), R. ORLANDO(1,11),      *
 *  C.M. ZICOVICH-WILSON(1,3), F. PASCALE(4), B. CIVALLERI(1,11),              *
 *  K. DOLL(5), N.M. HARRISON(2,6), I.J. BUSH(7), Ph. D'ARCO(8),               *
 *  M. LLUNELL(9), M. CAUSA'(10), Y. NOEL(8), L. MASCHIO(1,11), A. ERBA(1,11)  *
 *  M. RE'RAT(14), S. CASASSA(1,11)                                            *
 *                                                                             *
 *        CONTRIBUTIONS TO THE CODE HAVE ALSO BEEN GIVEN BY                    *
 *                                                                             *
 *  M. FERRABONE(1,11), M. DE LA PIERRE(1,11), M. FERRERO(1,11),               *
 *  J. BAIMA(1,11), E. ALBANESE(1,11), M.F. PEINTINGER(12), R. BAST(13),       *
 *  B. KIRTMAN(15), V. LACIVITA(1,11), R. DEMICHELIS(1,16)                     *
 *  G. BRANDEBURG(17), S. SALUSTRO(1,11), G. SANSONE(1,11)                     *
 *  M.T. RUGGIERO(18)                                                          *
 *                                                                             *
 * (1) THEORETICAL CHEMISTRY GROUP - UNIVERSITA' DI TORINO - TORINO (ITALY)    *
 * (2) COMPUTATIONAL SCIENCE & ENGINEERING DEPARTMENT - STFC DARESBURY (UK)    *
 * (3) UNIVERSIDAD AUTONOMA DEL ESTADO DE MORELOS - CUERNAVACA (MEXICO)        *
 * (4) UNIVERSITE' DE LORRAINE - NANCY (FRANCE)                                *
 * (5) UNIVERSITAET STUTTGART- STUTTGART (GERMANY)                             *
 * (6) IMPERIAL COLLEGE - LONDON (UK)                                          *
 * (7) OXFORD E-RESEARCH CENTRE - OXFORD (UK)                                  *
 * (8) UPMC - SORBONNE UNIVERSITES - PARIS (FRANCE)                            *
 * (9) UNIVERSIDAD DE BARCELONA - BARCELONA (SPAIN)                            *
 *(10) UNIVERSITA' DI NAPOLI "FEDERICO II" - NAPOLI (ITALY)                    *
 *(11) NIS - NANOSTRUCTURED INTERFACES AND SURFACES - TORINO (ITALY)           *
 *(12) MPI FUER CHEMISCHE ENERGIEKONVERSION - MUELHEIM AN DER RUHR (GERMANY)   *
 *(13) UNIVERSITY OF TROMSO - TROMSO (NORWAY)                                  *
 *(14) UNIVERSITE' DE PAU ET DES PAYS DE L'ADOUR - PAU (FRANCE)                *
 *(15) UNIVERSITY OF CALIFORNIA SANTA BARBARA - SANTA BARBARA (USA)            *
 *(16) CURTIN UNIVERSITY - PERTH (AUSTRALIA)                                   *
 *(17) UNIVERSITY COLLEGE LONDON - LONDON (UK)                                 *
 *(18) CAMBRIDGE UNIVERSITY - CAMBRIDGE (UK)                                   *
 *                                                                             *
 *******************************************************************************
 EEEEEEEEEE STARTING  DATE 21 01 2024 TIME 21:23:02.7
 Z:\home\sanoj\Downloads\tmp_p\newconn.mol                                       

 CRYSTAL CALCULATION
 (INPUT ACCORDING TO THE INTERNATIONAL TABLES FOR X-RAY CRYSTALLOGRAPHY)
 CRYSTAL FAMILY                       :  TETRAGONAL  
 CRYSTAL CLASS  (GROTH - 1921)        :  TETRAGONAL DISPHENOIDAL              

 SPACE GROUP (NONCENTROSYMMETRIC)     :  I -4            

 LATTICE PARAMETERS  (ANGSTROMS AND DEGREES) - CONVENTIONAL CELL
        A           B           C        ALPHA        BETA       GAMMA
    10.81230    10.81230    12.90470    90.00000    90.00000    90.00000


 NUMBER OF IRREDUCIBLE ATOMS IN THE CONVENTIONAL CELL:   17

 INPUT COORDINATES

 ATOM AT. N.              COORDINATES
   1   1     4.762000000000E-01  8.355100000000E-01  4.109900000000E-01
   2   1     1.636600000000E-01  5.086900000000E-01  3.742100000000E-01
   3   1     3.920200000000E-01  4.626800000000E-01  3.886200000000E-01
   4   6     2.800300000000E-01  8.028700000000E-01  3.853300000000E-01
   5   6     2.565300000000E-01 -6.437000000000E-02  3.768300000000E-01
   6   6     1.927400000000E-01  7.064700000000E-01  3.766500000000E-01
   7   6     3.568900000000E-01  5.578100000000E-01  3.896600000000E-01
   8   6     4.042000000000E-01  7.658100000000E-01  3.989800000000E-01
   9   6     7.691400000000E-01  4.164200000000E-01  3.808800000000E-01
  10   7     3.443700000000E-01  1.238000000000E-02  3.364500000000E-01
  11   7     3.021300000000E-01  1.313100000000E-01  3.471200000000E-01
  12   7     1.599000000000E-01  6.050000000000E-03  4.101100000000E-01
  13   7     1.926700000000E-01  1.274900000000E-01  3.909900000000E-01
  14   7     4.423600000000E-01  6.481800000000E-01  3.988900000000E-01
  15  30     0.000000000000E+00  5.000000000000E-01  7.500000000000E-01
  16  30     0.000000000000E+00  0.000000000000E+00  5.000000000000E-01
  17  35     2.341000000000E-02  7.399300000000E-01  3.580200000000E-01

 *******************************************************************************

 << INFORMATION >>: FROM NOW ON, ALL COORDINATES REFER TO THE PRIMITIVE CELL

 *******************************************************************************

 LATTICE PARAMETERS  (ANGSTROMS AND DEGREES) - PRIMITIVE CELL
       A          B          C        ALPHA      BETA     GAMMA        VOLUME
   10.00429   10.00429   10.00429   114.58051 114.58051  99.67486    754.317302

 COORDINATES OF THE EQUIVALENT ATOMS (FRACTIONAL UNITS)

 N. ATOM EQUIV AT. N.          X                  Y                  Z

   1   1   1    1 H     2.46500000000E-01 -1.12810000000E-01  3.11710000000E-01
   2   1   2    1 H    -4.24520000000E-01 -6.52100000000E-02 -3.11710000000E-01
   3   1   3    1 H     1.12810000000E-01  4.24520000000E-01  3.59310000000E-01
   4   1   4    1 H     6.52100000000E-02 -2.46500000000E-01 -3.59310000000E-01

   5   2   1    1 H    -1.17100000000E-01 -4.62130000000E-01 -3.27650000000E-01
   6   2   2    1 H    -1.34480000000E-01  2.10550000000E-01  3.27650000000E-01
   7   2   3    1 H     4.62130000000E-01  1.34480000000E-01  3.45030000000E-01
   8   2   4    1 H    -2.10550000000E-01  1.17100000000E-01 -3.45030000000E-01

   9   3   1    1 H    -1.48700000000E-01 -2.19360000000E-01 -1.45300000000E-01
  10   3   2    1 H    -7.40600000000E-02 -3.40000000000E-03  1.45300000000E-01
  11   3   3    1 H     2.19360000000E-01  7.40600000000E-02  7.06600000000E-02
  12   3   4    1 H     3.40000000000E-03  1.48700000000E-01 -7.06600000000E-02

  13   4   1    6 C     1.88200000000E-01 -3.34640000000E-01  8.29000000000E-02
  14   4   2    6 C    -4.17540000000E-01  1.05300000000E-01 -8.29000000000E-02
  15   4   3    6 C     3.34640000000E-01  4.17540000000E-01 -4.77160000000E-01
  16   4   4    6 C    -1.05300000000E-01 -1.88200000000E-01  4.77160000000E-01

  17   5   1    6 C     3.12460000000E-01 -3.66640000000E-01  1.92160000000E-01
  18   5   2    6 C     4.41200000000E-01  1.20300000000E-01 -1.92160000000E-01
  19   5   3    6 C     3.66640000000E-01 -4.41200000000E-01 -3.20900000000E-01
  20   5   4    6 C    -1.20300000000E-01 -3.12460000000E-01  3.20900000000E-01

  21   6   1    6 C     8.31200000000E-02 -4.30610000000E-01 -1.00790000000E-01
  22   6   2    6 C    -3.29820000000E-01  1.83910000000E-01  1.00790000000E-01
  23   6   3    6 C     4.30610000000E-01  3.29820000000E-01 -4.86270000000E-01
  24   6   4    6 C    -1.83910000000E-01 -8.31200000000E-02  4.86270000000E-01

  25   7   1    6 C    -5.25300000000E-02 -2.53450000000E-01 -8.53000000000E-02
  26   7   2    6 C    -1.68150000000E-01  3.27700000000E-02  8.53000000000E-02
  27   7   3    6 C     2.53450000000E-01  1.68150000000E-01  2.00920000000E-01
  28   7   4    6 C    -3.27700000000E-02  5.25300000000E-02 -2.00920000000E-01

  29   8   1    6 C     1.64790000000E-01 -1.96820000000E-01  1.70010000000E-01
  30   8   2    6 C    -3.66830000000E-01 -5.22000000000E-03 -1.70010000000E-01
  31   8   3    6 C     1.96820000000E-01  3.66830000000E-01  3.61610000000E-01
  32   8   4    6 C     5.22000000000E-03 -1.64790000000E-01 -3.61610000000E-01

  33   9   1    6 C    -2.02700000000E-01  1.50020000000E-01  1.85560000000E-01
  34   9   2    6 C    -3.55400000000E-02 -3.88260000000E-01 -1.85560000000E-01
  35   9   3    6 C    -1.50020000000E-01  3.55400000000E-02 -3.52720000000E-01
  36   9   4    6 C     3.88260000000E-01  2.02700000000E-01  3.52720000000E-01

  37  10   1    7 N     3.48830000000E-01 -3.19180000000E-01  3.56750000000E-01
  38  10   2    7 N     3.24070000000E-01 -7.92000000000E-03 -3.56750000000E-01
  39  10   3    7 N     3.19180000000E-01 -3.24070000000E-01 -3.31990000000E-01
  40  10   4    7 N     7.92000000000E-03 -3.48830000000E-01  3.31990000000E-01

  41  11   1    7 N     4.78430000000E-01 -3.50750000000E-01  4.33440000000E-01
  42  11   2    7 N     2.15810000000E-01  4.49900000000E-02 -4.33440000000E-01
  43  11   3    7 N     3.50750000000E-01 -2.15810000000E-01 -1.70820000000E-01
  44  11   4    7 N    -4.49900000000E-02 -4.78430000000E-01  1.70820000000E-01

  45  12   1    7 N     4.16160000000E-01 -4.29990000000E-01  1.65950000000E-01
  46  12   2    7 N     4.04060000000E-01  2.50210000000E-01 -1.65950000000E-01
  47  12   3    7 N     4.29990000000E-01 -4.04060000000E-01 -1.53850000000E-01
  48  12   4    7 N    -2.50210000000E-01 -4.16160000000E-01  1.53850000000E-01

  49  13   1    7 N    -4.81520000000E-01 -4.16340000000E-01  3.20160000000E-01
  50  13   2    7 N     2.63500000000E-01  1.98320000000E-01 -3.20160000000E-01
  51  13   3    7 N     4.16340000000E-01 -2.63500000000E-01 -6.51800000000E-02
  52  13   4    7 N    -1.98320000000E-01  4.81520000000E-01  6.51800000000E-02

  53  14   1    7 N     4.70700000000E-02 -1.58750000000E-01  9.05400000000E-02
  54  14   2    7 N    -2.49290000000E-01 -4.34700000000E-02 -9.05400000000E-02
  55  14   3    7 N     1.58750000000E-01  2.49290000000E-01  2.05820000000E-01
  56  14   4    7 N     4.34700000000E-02 -4.70700000000E-02 -2.05820000000E-01

  57  15   1   30 ZN    2.50000000000E-01 -2.50000000000E-01 -5.00000000000E-01

  58  16   1   30 ZN   -5.00000000000E-01 -5.00000000000E-01  0.00000000000E+00

  59  17   1   35 BR    9.79500000000E-02  3.81430000000E-01 -2.36660000000E-01
  60  17   2   35 BR   -3.81910000000E-01  3.34610000000E-01  2.36660000000E-01
  61  17   3   35 BR   -3.81430000000E-01  3.81910000000E-01 -2.83480000000E-01
  62  17   4   35 BR   -3.34610000000E-01 -9.79500000000E-02  2.83480000000E-01

 NUMBER OF SYMMETRY OPERATORS         :    4
 *******************************************************************************
 * GEOMETRY EDITING - INPUT COORDINATES ARE GIVEN IN ANGSTROM         
 *******************************************************************************

 GEOMETRY NOW FULLY CONSISTENT WITH THE GROUP

 GCALCO - MAX INDICES DIRECT LATTICE VECTOR    14    14    16
 NO.OF VECTORS CREATED 6999 STARS  485 RMAX   204.94740 BOHR

 GEOMETRY FOR WAVE FUNCTION - DIMENSIONALITY OF THE SYSTEM    3
 (NON PERIODIC DIRECTION: LATTICE PARAMETER FORMALLY SET TO 500)
 *******************************************************************************
 LATTICE PARAMETERS (ANGSTROMS AND DEGREES) - BOHR = 0.5291772083 ANGSTROM
 PRIMITIVE CELL - CENTRING CODE 6/0 VOLUME=   754.317302 - DENSITY  2.254 g/cm^3
         A              B              C           ALPHA      BETA       GAMMA 
    10.00428567    10.00428567    10.00428567   114.580514 114.580514  99.674864
 *******************************************************************************
 ATOMS IN THE ASYMMETRIC UNIT   17 - ATOMS IN THE UNIT CELL:   62
     ATOM                 X/A                 Y/B                 Z/C    
 *******************************************************************************
      1 T   1 H     2.465000000000E-01 -1.128100000000E-01  3.117100000000E-01
      2 F   1 H    -4.245200000000E-01 -6.521000000000E-02 -3.117100000000E-01
      3 F   1 H     1.128100000000E-01  4.245200000000E-01  3.593100000000E-01
      4 F   1 H     6.521000000000E-02 -2.465000000000E-01 -3.593100000000E-01
      5 T   1 H    -1.171000000000E-01 -4.621300000000E-01 -3.276500000000E-01
      6 F   1 H    -1.344800000000E-01  2.105500000000E-01  3.276500000000E-01
      7 F   1 H     4.621300000000E-01  1.344800000000E-01  3.450300000000E-01
      8 F   1 H    -2.105500000000E-01  1.171000000000E-01 -3.450300000000E-01
      9 T   1 H    -1.487000000000E-01 -2.193600000000E-01 -1.453000000000E-01
     10 F   1 H    -7.406000000000E-02 -3.400000000000E-03  1.453000000000E-01
     11 F   1 H     2.193600000000E-01  7.406000000000E-02  7.066000000000E-02
     12 F   1 H     3.400000000000E-03  1.487000000000E-01 -7.066000000000E-02
     13 T   6 C     1.882000000000E-01 -3.346400000000E-01  8.290000000000E-02
     14 F   6 C    -4.175400000000E-01  1.053000000000E-01 -8.290000000000E-02
     15 F   6 C     3.346400000000E-01  4.175400000000E-01 -4.771600000000E-01
     16 F   6 C    -1.053000000000E-01 -1.882000000000E-01  4.771600000000E-01
     17 T   6 C     3.124600000000E-01 -3.666400000000E-01  1.921600000000E-01
     18 F   6 C     4.412000000000E-01  1.203000000000E-01 -1.921600000000E-01
     19 F   6 C     3.666400000000E-01 -4.412000000000E-01 -3.209000000000E-01
     20 F   6 C    -1.203000000000E-01 -3.124600000000E-01  3.209000000000E-01
     21 T   6 C     8.312000000000E-02 -4.306100000000E-01 -1.007900000000E-01
     22 F   6 C    -3.298200000000E-01  1.839100000000E-01  1.007900000000E-01
     23 F   6 C     4.306100000000E-01  3.298200000000E-01 -4.862700000000E-01
     24 F   6 C    -1.839100000000E-01 -8.312000000000E-02  4.862700000000E-01
     25 T   6 C    -5.253000000000E-02 -2.534500000000E-01 -8.530000000000E-02
     26 F   6 C    -1.681500000000E-01  3.277000000000E-02  8.530000000000E-02
     27 F   6 C     2.534500000000E-01  1.681500000000E-01  2.009200000000E-01
     28 F   6 C    -3.277000000000E-02  5.253000000000E-02 -2.009200000000E-01
     29 T   6 C     1.647900000000E-01 -1.968200000000E-01  1.700100000000E-01
     30 F   6 C    -3.668300000000E-01 -5.220000000000E-03 -1.700100000000E-01
     31 F   6 C     1.968200000000E-01  3.668300000000E-01  3.616100000000E-01
     32 F   6 C     5.220000000000E-03 -1.647900000000E-01 -3.616100000000E-01
     33 T   6 C    -2.027000000000E-01  1.500200000000E-01  1.855600000000E-01
     34 F   6 C    -3.554000000000E-02 -3.882600000000E-01 -1.855600000000E-01
     35 F   6 C    -1.500200000000E-01  3.554000000000E-02 -3.527200000000E-01
     36 F   6 C     3.882600000000E-01  2.027000000000E-01  3.527200000000E-01
     37 T   7 N     3.488300000000E-01 -3.191800000000E-01  3.567500000000E-01
     38 F   7 N     3.240700000000E-01 -7.920000000000E-03 -3.567500000000E-01
     39 F   7 N     3.191800000000E-01 -3.240700000000E-01 -3.319900000000E-01
     40 F   7 N     7.920000000000E-03 -3.488300000000E-01  3.319900000000E-01
     41 T   7 N     4.784300000000E-01 -3.507500000000E-01  4.334400000000E-01
     42 F   7 N     2.158100000000E-01  4.499000000000E-02 -4.334400000000E-01
     43 F   7 N     3.507500000000E-01 -2.158100000000E-01 -1.708200000000E-01
     44 F   7 N    -4.499000000000E-02 -4.784300000000E-01  1.708200000000E-01
     45 T   7 N     4.161600000000E-01 -4.299900000000E-01  1.659500000000E-01
     46 F   7 N     4.040600000000E-01  2.502100000000E-01 -1.659500000000E-01
     47 F   7 N     4.299900000000E-01 -4.040600000000E-01 -1.538500000000E-01
     48 F   7 N    -2.502100000000E-01 -4.161600000000E-01  1.538500000000E-01
     49 T   7 N    -4.815200000000E-01 -4.163400000000E-01  3.201600000000E-01
     50 F   7 N     2.635000000000E-01  1.983200000000E-01 -3.201600000000E-01
     51 F   7 N     4.163400000000E-01 -2.635000000000E-01 -6.518000000000E-02
     52 F   7 N    -1.983200000000E-01  4.815200000000E-01  6.518000000000E-02
     53 T   7 N     4.707000000000E-02 -1.587500000000E-01  9.054000000000E-02
     54 F   7 N    -2.492900000000E-01 -4.347000000000E-02 -9.054000000000E-02
     55 F   7 N     1.587500000000E-01  2.492900000000E-01  2.058200000000E-01
     56 F   7 N     4.347000000000E-02 -4.707000000000E-02 -2.058200000000E-01
     57 T  30 ZN    2.500000000000E-01 -2.500000000000E-01 -5.000000000000E-01
     58 T  30 ZN   -5.000000000000E-01 -5.000000000000E-01  0.000000000000E+00
     59 T  35 BR    9.795000000000E-02  3.814300000000E-01 -2.366600000000E-01
     60 F  35 BR   -3.819100000000E-01  3.346100000000E-01  2.366600000000E-01
     61 F  35 BR   -3.814300000000E-01  3.819100000000E-01 -2.834800000000E-01
     62 F  35 BR   -3.346100000000E-01 -9.795000000000E-02  2.834800000000E-01

 TRANSFORMATION MATRIX PRIMITIVE-CRYSTALLOGRAPHIC CELL
  0.0000  1.0000  1.0000  1.0000  0.0000  1.0000  1.0000  1.0000  0.0000

 *******************************************************************************
 CRYSTALLOGRAPHIC CELL (VOLUME=       1508.63460322)
         A              B              C           ALPHA      BETA       GAMMA 
    10.81230003    10.81230003    12.90469926    90.000000  90.000000  90.000000

 COORDINATES IN THE CRYSTALLOGRAPHIC CELL
     ATOM                 X/A                 Y/B                 Z/C    
 *******************************************************************************
      1 T   1 H    -2.380000000000E-02  3.355100000000E-01 -8.901000000000E-02
      2 F   1 H     2.380000000000E-02 -3.355100000000E-01 -8.901000000000E-02
      3 F   1 H     3.355100000000E-01  2.380000000000E-02  8.901000000000E-02
      4 F   1 H    -3.355100000000E-01 -2.380000000000E-02  8.901000000000E-02
      5 T   1 H    -3.363400000000E-01  8.690000000000E-03 -1.257900000000E-01
      6 F   1 H     3.363400000000E-01 -8.690000000000E-03 -1.257900000000E-01
      7 F   1 H     8.690000000000E-03  3.363400000000E-01  1.257900000000E-01
      8 F   1 H    -8.690000000000E-03 -3.363400000000E-01  1.257900000000E-01
      9 T   1 H    -1.079800000000E-01 -3.732000000000E-02 -1.113800000000E-01
     10 F   1 H     1.079800000000E-01  3.732000000000E-02 -1.113800000000E-01
     11 F   1 H    -3.732000000000E-02  1.079800000000E-01  1.113800000000E-01
     12 F   1 H     3.732000000000E-02 -1.079800000000E-01  1.113800000000E-01
     13 T   6 C    -2.199700000000E-01  3.028700000000E-01 -1.146700000000E-01
     14 F   6 C     2.199700000000E-01 -3.028700000000E-01 -1.146700000000E-01
     15 F   6 C     3.028700000000E-01  2.199700000000E-01  1.146700000000E-01
     16 F   6 C    -3.028700000000E-01 -2.199700000000E-01  1.146700000000E-01
     17 T   6 C    -2.434700000000E-01  4.356300000000E-01 -1.231700000000E-01
     18 F   6 C     2.434700000000E-01 -4.356300000000E-01 -1.231700000000E-01
     19 F   6 C     4.356300000000E-01  2.434700000000E-01  1.231700000000E-01
     20 F   6 C    -4.356300000000E-01 -2.434700000000E-01  1.231700000000E-01
     21 T   6 C    -3.072600000000E-01  2.064700000000E-01 -1.233500000000E-01
     22 F   6 C     3.072600000000E-01 -2.064700000000E-01 -1.233500000000E-01
     23 F   6 C     2.064700000000E-01  3.072600000000E-01  1.233500000000E-01
     24 F   6 C    -2.064700000000E-01 -3.072600000000E-01  1.233500000000E-01
     25 T   6 C    -1.431100000000E-01  5.781000000000E-02 -1.103400000000E-01
     26 F   6 C     1.431100000000E-01 -5.781000000000E-02 -1.103400000000E-01
     27 F   6 C     5.781000000000E-02  1.431100000000E-01  1.103400000000E-01
     28 F   6 C    -5.781000000000E-02 -1.431100000000E-01  1.103400000000E-01
     29 T   6 C    -9.580000000000E-02  2.658100000000E-01 -1.010200000000E-01
     30 F   6 C     9.580000000000E-02 -2.658100000000E-01 -1.010200000000E-01
     31 F   6 C     2.658100000000E-01  9.580000000000E-02  1.010200000000E-01
     32 F   6 C    -2.658100000000E-01 -9.580000000000E-02  1.010200000000E-01
     33 T   6 C     2.691400000000E-01 -8.358000000000E-02 -1.191200000000E-01
     34 F   6 C    -2.691400000000E-01  8.358000000000E-02 -1.191200000000E-01
     35 F   6 C    -8.358000000000E-02 -2.691400000000E-01  1.191200000000E-01
     36 F   6 C     8.358000000000E-02  2.691400000000E-01  1.191200000000E-01
     37 T   7 N     3.443700000000E-01  1.238000000000E-02  3.364500000000E-01
     38 F   7 N    -3.443700000000E-01 -1.238000000000E-02  3.364500000000E-01
     39 F   7 N     1.238000000000E-02 -3.443700000000E-01 -3.364500000000E-01
     40 F   7 N    -1.238000000000E-02  3.443700000000E-01 -3.364500000000E-01
     41 T   7 N    -1.978700000000E-01 -3.686900000000E-01 -1.528800000000E-01
     42 F   7 N     1.978700000000E-01  3.686900000000E-01 -1.528800000000E-01
     43 F   7 N    -3.686900000000E-01  1.978700000000E-01  1.528800000000E-01
     44 F   7 N     3.686900000000E-01 -1.978700000000E-01  1.528800000000E-01
     45 T   7 N     1.599000000000E-01  6.050000000000E-03  4.101100000000E-01
     46 F   7 N    -1.599000000000E-01 -6.050000000000E-03  4.101100000000E-01
     47 F   7 N     6.050000000000E-03 -1.599000000000E-01 -4.101100000000E-01
     48 F   7 N    -6.050000000000E-03  1.599000000000E-01 -4.101100000000E-01
     49 T   7 N    -3.073300000000E-01 -3.725100000000E-01 -1.090100000000E-01
     50 F   7 N     3.073300000000E-01  3.725100000000E-01 -1.090100000000E-01
     51 F   7 N    -3.725100000000E-01  3.073300000000E-01  1.090100000000E-01
     52 F   7 N     3.725100000000E-01 -3.073300000000E-01  1.090100000000E-01
     53 T   7 N    -5.764000000000E-02  1.481800000000E-01 -1.011100000000E-01
     54 F   7 N     5.764000000000E-02 -1.481800000000E-01 -1.011100000000E-01
     55 F   7 N     1.481800000000E-01  5.764000000000E-02  1.011100000000E-01
     56 F   7 N    -1.481800000000E-01 -5.764000000000E-02  1.011100000000E-01
     57 T  30 ZN   -5.000000000000E-01 -1.738774452352E-16  2.500000000000E-01
     58 T  30 ZN    0.000000000000E+00  0.000000000000E+00 -5.000000000000E-01
     59 T  35 BR    2.341000000000E-02 -2.600700000000E-01  3.580200000000E-01
     60 F  35 BR   -2.341000000000E-02  2.600700000000E-01  3.580200000000E-01
     61 F  35 BR   -2.600700000000E-01 -2.341000000000E-02 -3.580200000000E-01
     62 F  35 BR    2.600700000000E-01  2.341000000000E-02 -3.580200000000E-01

 T = ATOM BELONGING TO THE ASYMMETRIC UNIT

 ****    4 SYMMOPS - TRANSLATORS IN FRACTIONAL UNITS
 **** MATRICES AND TRANSLATORS IN THE CRYSTALLOGRAPHIC REFERENCE FRAME
   V INV                    ROTATION MATRICES                   TRANSLATORS
   1   1  1.00  0.00  0.00  0.00  1.00  0.00  0.00  0.00  1.00  0.00  0.00  0.00
   2   2  0.00  1.00 -1.00  1.00  0.00 -1.00  0.00  0.00 -1.00  0.00  0.00  0.00
   3   4  0.00 -1.00  0.00 -0.00 -1.00  1.00  1.00 -1.00  0.00  0.00  0.00  0.00
   4   3 -1.00  0.00  1.00 -1.00 -0.00  0.00 -1.00  1.00  0.00  0.00  0.00  0.00

 DIRECT LATTICE VECTORS CARTESIAN COMPONENTS (ANGSTROM)
          X                    Y                    Z
  -0.540615001530E+01   0.540615001530E+01   0.645234963060E+01
   0.540615001530E+01  -0.540615001530E+01   0.645234963060E+01
   0.540615001530E+01   0.540615001530E+01  -0.645234963060E+01


 CARTESIAN COORDINATES - PRIMITIVE CELL
 *******************************************************************************
 *      ATOM          X(ANGSTROM)         Y(ANGSTROM)         Z(ANGSTROM)
 *******************************************************************************
    1     1 H    -2.573327407283E-01  3.627634783267E+00 -1.148647281239E+00
    2     1 H     2.573327407283E-01 -3.627634783267E+00 -1.148647281239E+00
    3     1 H     3.627634783267E+00  2.573327407283E-01  1.148647281239E+00
    4     1 H    -3.627634783267E+00 -2.573327407283E-01  1.148647281239E+00
    5     1 H    -3.636608992292E+00  9.395888726591E-02 -1.623282120066E+00
    6     1 H     3.636608992292E+00 -9.395888726591E-02 -1.623282120066E+00
    7     1 H     9.395888726591E-02  3.636608992292E+00  1.623282120066E+00
    8     1 H    -9.395888726591E-02 -3.636608992292E+00  1.623282120066E+00
    9     1 H    -1.167512157304E+00 -4.035150371420E-01 -1.437325403712E+00
   10     1 H     1.167512157304E+00  4.035150371420E-01 -1.437325403712E+00
   11     1 H    -4.035150371420E-01  1.167512157304E+00  1.437325403712E+00
   12     1 H     4.035150371420E-01 -1.167512157304E+00  1.437325403712E+00
   13     6 C    -2.378381637731E+00  3.274721310268E+00 -1.479781864282E+00
   14     6 C     2.378381637731E+00 -3.274721310268E+00 -1.479781864282E+00
   15     6 C     3.274721310268E+00  2.378381637731E+00  1.479781864282E+00
   16     6 C    -3.274721310268E+00 -2.378381637731E+00  1.479781864282E+00
   17     6 C    -2.632470688450E+00  4.710162262330E+00 -1.589471808002E+00
   18     6 C     2.632470688450E+00 -4.710162262330E+00 -1.589471808002E+00
   19     6 C     4.710162262330E+00  2.632470688450E+00  1.589471808002E+00
   20     6 C    -4.710162262330E+00 -2.632470688450E+00  1.589471808002E+00
   21     6 C    -3.322187307402E+00  2.232415587318E+00 -1.591794653869E+00
   22     6 C     3.322187307402E+00 -2.232415587318E+00 -1.591794653869E+00
   23     6 C     2.232415587318E+00  3.322187307402E+00  1.591794653869E+00
   24     6 C    -2.232415587318E+00 -3.322187307402E+00  1.591794653869E+00
   25     6 C    -1.547348257379E+00  6.250590647690E-01 -1.423904516481E+00
   26     6 C     1.547348257379E+00 -6.250590647690E-01 -1.423904516481E+00
   27     6 C     6.250590647690E-01  1.547348257379E+00  1.423904516481E+00
   28     6 C    -6.250590647690E-01 -1.547348257379E+00  1.423904516481E+00
   29     6 C    -1.035818342931E+00  2.874017471134E+00 -1.303632719366E+00
   30     6 C     1.035818342931E+00 -2.874017471134E+00 -1.303632719366E+00
   31     6 C     2.874017471134E+00  1.035818342931E+00  1.303632719366E+00
   32     6 C    -2.874017471134E+00 -1.035818342931E+00  1.303632719366E+00
   33     6 C     2.910022430236E+00 -9.036920365575E-01 -1.537207775994E+00
   34     6 C    -2.910022430236E+00  9.036920365575E-01 -1.537207775994E+00
   35     6 C    -9.036920365575E-01 -2.910022430236E+00  1.537207775994E+00
   36     6 C     9.036920365575E-01  2.910022430236E+00  1.537207775994E+00
   37     7 N     3.723431761538E+00  1.338562743788E-01  4.341786066431E+00
   38     7 N    -3.723431761538E+00 -1.338562743788E-01  4.341786066431E+00
   39     7 N     1.338562743788E-01 -3.723431761538E+00 -4.341786066431E+00
   40     7 N    -1.338562743788E-01  3.723431761538E+00 -4.341786066431E+00
   41     7 N    -2.139429807055E+00 -3.986386898282E+00 -1.972870423052E+00
   42     7 N     2.139429807055E+00  3.986386898282E+00 -1.972870423052E+00
   43     7 N    -3.986386898282E+00  2.139429807055E+00  1.972870423052E+00
   44     7 N     3.986386898282E+00 -2.139429807055E+00  1.972870423052E+00
   45     7 N     1.728886774893E+00  6.541441518513E-02  5.292346214011E+00
   46     7 N    -1.728886774893E+00 -6.541441518513E-02  5.292346214011E+00
   47     7 N     6.541441518513E-02 -1.728886774893E+00 -5.292346214011E+00
   48     7 N    -6.541441518513E-02  1.728886774893E+00 -5.292346214011E+00
   49     7 N    -3.322944168404E+00 -4.027689884399E+00 -1.406741266463E+00
   50     7 N     3.322944168404E+00  4.027689884399E+00 -1.406741266463E+00
   51     7 N    -4.027689884399E+00  3.322944168404E+00  1.406741266463E+00
   52     7 N     4.027689884399E+00 -3.322944168404E+00  1.406741266463E+00
   53     7 N    -6.232209737638E-01  1.602166618534E+00 -1.304794142300E+00
   54     7 N     6.232209737638E-01 -1.602166618534E+00 -1.304794142300E+00
   55     7 N     1.602166618534E+00  6.232209737638E-01  1.304794142300E+00
   56     7 N    -1.602166618534E+00 -6.232209737638E-01  1.304794142300E+00
   57    30 ZN    5.406150015300E+00 -1.880015106437E-15 -9.678524445900E+00
   58    30 ZN    0.000000000000E+00  0.000000000000E+00  6.452349630600E+00
   59    35 BR    2.531159437163E-01 -2.811954868958E+00  4.620140429495E+00
   60    35 BR   -2.531159437163E-01  2.811954868958E+00  4.620140429495E+00
   61    35 BR   -2.811954868958E+00 -2.531159437163E-01 -4.620140429495E+00
   62    35 BR    2.811954868958E+00  2.531159437163E-01 -4.620140429495E+00

 *******************************************************************************
 STARTING BASIS SET HANDLING 
 *******************************************************************************

 Loading internal basis set: POB-DZVPP           

 Please cite in your publication:
 Peintinger, M. F., Oliveira, D. V. and Bredow, T. (2013), Generally applicable 
 solid-state Gaussian basis sets, in preparation                                
                                                                                
                    

 *******************************************************************************
 LOCAL ATOMIC FUNCTIONS BASIS SET
 *******************************************************************************
   ATOM   X(AU)   Y(AU)   Z(AU)  N. TYPE  EXPONENT  S COEF   P COEF   D/F/G COEF
 *******************************************************************************
   1 H   -0.486   6.855  -2.171
                                  1 S  
                                         2.263E+01 1.441E-02 0.000E+00 0.000E+00
                                         3.236E+00 1.072E-01 0.000E+00 0.000E+00
                                         7.304E-01 3.846E-01 0.000E+00 0.000E+00
                                  2 S  
                                         1.417E-01 1.000E+00 0.000E+00 0.000E+00
                           3-     5 P  
                                         3.944E-01 0.000E+00 1.000E+00 0.000E+00
                           6-     8 P  
                                         1.006E-01 0.000E+00 1.000E+00 0.000E+00
   2 H    0.486  -6.855  -2.171
   3 H    6.855   0.486   2.171
   4 H   -6.855  -0.486   2.171
   5 H   -6.872   0.178  -3.068
   6 H    6.872  -0.178  -3.068
   7 H    0.178   6.872   3.068
   8 H   -0.178  -6.872   3.068
   9 H   -2.206  -0.763  -2.716
  10 H    2.206   0.763  -2.716
  11 H   -0.763   2.206   2.716
  12 H    0.763  -2.206   2.716
  13 C   -4.494   6.188  -2.796
                                 97 S  
                                         1.238E+03 5.457E-03 0.000E+00 0.000E+00
                                         1.863E+02 4.064E-02 0.000E+00 0.000E+00
                                         4.225E+01 1.803E-01 0.000E+00 0.000E+00
                                         1.168E+01 4.632E-01 0.000E+00 0.000E+00
                                         3.593E+00 4.409E-01 0.000E+00 0.000E+00
                                 98 S  
                                         5.281E+00 1.000E+00 0.000E+00 0.000E+00
                                 99 S  
                                         4.447E-01 1.000E+00 0.000E+00 0.000E+00
                         100-   102 P  
                                         9.468E+00 0.000E+00 3.839E-02 0.000E+00
                                         2.010E+00 0.000E+00 2.112E-01 0.000E+00
                                         5.477E-01 0.000E+00 5.133E-01 0.000E+00
                         103-   105 P  
                                         1.604E-01 0.000E+00 1.000E+00 0.000E+00
                         106-   110 D  
                                         6.070E-01 0.000E+00 0.000E+00 1.000E+00
                         111-   115 D  
                                         2.939E-01 0.000E+00 0.000E+00 1.000E+00
  14 C    4.494  -6.188  -2.796
  15 C    6.188   4.494   2.796
  16 C   -6.188  -4.494   2.796
  17 C   -4.975   8.901  -3.004
  18 C    4.975  -8.901  -3.004
  19 C    8.901   4.975   3.004
  20 C   -8.901  -4.975   3.004
  21 C   -6.278   4.219  -3.008
  22 C    6.278  -4.219  -3.008
  23 C    4.219   6.278   3.008
  24 C   -4.219  -6.278   3.008
  25 C   -2.924   1.181  -2.691
  26 C    2.924  -1.181  -2.691
  27 C    1.181   2.924   2.691
  28 C   -1.181  -2.924   2.691
  29 C   -1.957   5.431  -2.464
  30 C    1.957  -5.431  -2.464
  31 C    5.431   1.957   2.464
  32 C   -5.431  -1.957   2.464
  33 C    5.499  -1.708  -2.905
  34 C   -5.499   1.708  -2.905
  35 C   -1.708  -5.499   2.905
  36 C    1.708   5.499   2.905
  37 N    7.036   0.253   8.205
                                553 S  
                                         1.713E+03-5.393E-03 0.000E+00 0.000E+00
                                         2.576E+02-4.022E-02 0.000E+00 0.000E+00
                                         5.846E+01-1.793E-01 0.000E+00 0.000E+00
                                         1.620E+01-4.638E-01 0.000E+00 0.000E+00
                                         5.005E+00-4.417E-01 0.000E+00 0.000E+00
                                554 S  
                                         6.217E-01 1.000E+00 0.000E+00 0.000E+00
                                555 S  
                                         2.921E-01 1.000E+00 0.000E+00 0.000E+00
                         556-   558 P  
                                         1.357E+01 0.000E+00-4.007E-02 0.000E+00
                                         2.926E+00 0.000E+00-2.181E-01 0.000E+00
                                         7.993E-01 0.000E+00-5.129E-01 0.000E+00
                         559-   561 P  
                                         2.244E-01 0.000E+00 1.000E+00 0.000E+00
                         562-   566 D  
                                         3.118E-01 0.000E+00 0.000E+00 1.000E+00
  38 N   -7.036  -0.253   8.205
  39 N    0.253  -7.036  -8.205
  40 N   -0.253   7.036  -8.205
  41 N   -4.043  -7.533  -3.728
  42 N    4.043   7.533  -3.728
  43 N   -7.533   4.043   3.728
  44 N    7.533  -4.043   3.728
  45 N    3.267   0.124  10.001
  46 N   -3.267  -0.124  10.001
  47 N    0.124  -3.267 -10.001
  48 N   -0.124   3.267 -10.001
  49 N   -6.279  -7.611  -2.658
  50 N    6.279   7.611  -2.658
  51 N   -7.611   6.279   2.658
  52 N    7.611  -6.279   2.658
  53 N   -1.178   3.028  -2.466
  54 N    1.178  -3.028  -2.466
  55 N    3.028   1.178   2.466
  56 N   -3.028  -1.178   2.466
  57 ZN  10.216  -0.000 -18.290
                                833 S  
                                         8.200E+04 1.421E-03 0.000E+00 0.000E+00
                                         1.231E+04 1.089E-02 0.000E+00 0.000E+00
                                         2.801E+03 5.406E-02 0.000E+00 0.000E+00
                                         7.910E+02 1.885E-01 0.000E+00 0.000E+00
                                         2.576E+02 3.835E-01 0.000E+00 0.000E+00
                                         8.881E+01 2.972E-01 0.000E+00 0.000E+00
                                834 S  
                                         1.719E+02-1.105E-01 0.000E+00 0.000E+00
                                         2.030E+01 6.461E-01 0.000E+00 0.000E+00
                                         8.346E+00 4.422E-01 0.000E+00 0.000E+00
                                835 S  
                                         1.485E+01-2.271E-01 0.000E+00 0.000E+00
                                         2.450E+00 7.243E-01 0.000E+00 0.000E+00
                                         9.985E-01 4.484E-01 0.000E+00 0.000E+00
                                836 S  
                                         1.493E+00 1.000E+00 0.000E+00 0.000E+00
                                837 S  
                                         1.830E-01 1.000E+00 0.000E+00 0.000E+00
                         838-   840 P  
                                         1.072E+03 0.000E+00 9.277E-03 0.000E+00
                                         2.527E+02 0.000E+00 6.954E-02 0.000E+00
                                         8.010E+01 0.000E+00 2.716E-01 0.000E+00
                                         2.890E+01 0.000E+00 5.340E-01 0.000E+00
                                         1.077E+01 0.000E+00 3.450E-01 0.000E+00
                         841-   843 P  
                                         5.645E+00 0.000E+00 3.413E-01 0.000E+00
                                         2.168E+00 0.000E+00 5.639E-01 0.000E+00
                                         8.054E-01 0.000E+00 2.368E-01 0.000E+00
                         844-   846 P  
                                         2.721E-01 0.000E+00 1.000E+00 0.000E+00
                         847-   851 D  
                                         5.609E+01 0.000E+00 0.000E+00 2.959E-02
                                         1.575E+01 0.000E+00 0.000E+00 1.587E-01
                                         5.312E+00 0.000E+00 0.000E+00 3.798E-01
                                         1.774E+00 0.000E+00 0.000E+00 4.690E-01
                         852-   856 D  
                                         5.073E-01 0.000E+00 0.000E+00 1.000E+00
                         857-   863 F  
                                         2.814E+00 0.000E+00 0.000E+00 1.000E+00
                         864-   870 F  
                                         1.300E+00 0.000E+00 0.000E+00 1.000E+00
  58 ZN   0.000   0.000  12.193
  59 BR   0.478  -5.314   8.731
                                909 S  
                                         1.133E+05 1.428E-03 0.000E+00 0.000E+00
                                         1.701E+04 1.095E-02 0.000E+00 0.000E+00
                                         3.870E+03 5.442E-02 0.000E+00 0.000E+00
                                         1.093E+03 1.905E-01 0.000E+00 0.000E+00
                                         3.564E+02 3.902E-01 0.000E+00 0.000E+00
                                         1.231E+02 3.081E-01 0.000E+00 0.000E+00
                                910 S  
                                         2.367E+02-1.123E-01 0.000E+00 0.000E+00
                                         2.847E+01 6.478E-01 0.000E+00 0.000E+00
                                         1.188E+01 4.424E-01 0.000E+00 0.000E+00
                                911 S  
                                         2.127E+01-2.264E-01 0.000E+00 0.000E+00
                                         3.613E+00 7.382E-01 0.000E+00 0.000E+00
                                         1.663E+00 4.268E-01 0.000E+00 0.000E+00
                                912 S  
                                         3.641E-01 1.000E+00 0.000E+00 0.000E+00
                                913 S  
                                         1.243E-01 1.000E+00 0.000E+00 0.000E+00
                         914-   916 P  
                                         1.560E+03 0.000E+00 8.717E-03 0.000E+00
                                         3.685E+02 0.000E+00 6.624E-02 0.000E+00
                                         1.172E+02 0.000E+00 2.650E-01 0.000E+00
                                         4.265E+01 0.000E+00 5.384E-01 0.000E+00
                                         1.609E+01 0.000E+00 3.658E-01 0.000E+00
                         917-   919 P  
                                         8.635E+00 0.000E+00 3.425E-01 0.000E+00
                                         3.561E+00 0.000E+00 5.750E-01 0.000E+00
                                         1.529E+00 0.000E+00 2.433E-01 0.000E+00
                         920-   922 P  
                                         6.447E-01 0.000E+00 1.000E+00 0.000E+00
                         923-   925 P  
                                         2.103E-01 0.000E+00 1.000E+00 0.000E+00
                         926-   930 D  
                                         1.049E+02 0.000E+00 0.000E+00 2.265E-02
                                         3.028E+01 0.000E+00 0.000E+00 1.346E-01
                                         1.065E+01 0.000E+00 0.000E+00 3.647E-01
                                         3.870E+00 0.000E+00 0.000E+00 4.904E-01
                         931-   935 D  
                                         1.342E+00 0.000E+00 0.000E+00 1.000E+00
                         936-   940 D  
                                         4.101E-01 0.000E+00 0.000E+00 1.000E+00
                         941-   945 D  
                                         1.985E-01 0.000E+00 0.000E+00 1.000E+00
  60 BR  -0.478   5.314   8.731
  61 BR  -5.314  -0.478  -8.731
  62 BR   5.314   0.478  -8.731

 *******************************************************************************
 FINISHED BASIS SET HANDLING 
 *******************************************************************************

 INFORMATION **** SET_MPP **** PCRYSTAL CALCULATION
 INFORMATION **** READM2 **** NEW DEFAULT: FOCK/KS MATRIX MIXING SET TO 30 %
 INFORMATION **** READM2 **** NEW DEFAULT: FULL DIRECT SCF MODE
 INFORMATION **** READM2 **** NEW DEFAULT: COULOMB BIPOLAR BUFFER SET TO 32 Mb
 INFORMATION **** READM2 **** NEW DEFAULT: EXCHANGE BIPOLAR BUFFER SET TO 32 Mb

 *******************************************************************************
 NEW DEFAULT: DFT INTEGRATION GRID INCREASED TO XLGRID
 NEW DEFAULT: DIIS ACCELERATOR ACTIVE
 USE KEYWORD NODIIS TO TURN IT OFF
 *******************************************************************************

 INFORMATION **** DFTD3_INPUT **** PERFORM DISPERSION CORRECTION DFT-D3(BJ) IN THE BECKE-JOHNSON DAMPING SCHEME

 PLEASE CITE:
 (1) DFT-D3 Reference
  S. Grimme, J. Antony, S. Ehrlich, and H. Krieg, J. Chem. Phys. 132 (2010), 154104
 (2) BJ-Damping Reference
  S. Grimme, S. Ehrlich, and L. Goerigk, J. Comput. Chem. 32 (2011), 1456-1465
 (3) General DFT-D Review
  S. Grimme, A. Hansen, J. G. Brandenburg, and C. Bannwarth,
  Chem. Rev. 116 (2016), 5105-5154

 INFORMATION **** TOLINTEG **** COULOMB AND EXCHANGE SERIES TOLERANCES MODIFIED
 INFORMATION **** BIPOSIZE **** COULOMB BIPOLAR BUFFER SET TO   100000000
 INFORMATION **** MAXCYCLE **** MAX NUMBER OF SCF CYCLES SET TO          50
 *******************************************************************************
 N. OF ATOMS PER CELL        62  COULOMB OVERLAP TOL         (T1) 10**  -12
 NUMBER OF SHELLS           412  COULOMB PENETRATION TOL     (T2) 10**  -12
 NUMBER OF AO              1056  EXCHANGE OVERLAP TOL        (T3) 10**   20
 N. OF ELECTRONS PER CELL   496  EXCHANGE PSEUDO OVP (F(G))  (T4) 10**   20
 CORE ELECTRONS PER CELL    236  EXCHANGE PSEUDO OVP (P(G))  (T5) 10**   20
 N. OF SYMMETRY OPERATORS     4  POLE ORDER IN MONO ZONE                  4
 *******************************************************************************
 TYPE OF CALCULATION :  RESTRICTED CLOSED SHELL
 KOHN-SHAM HAMILTONIAN

 (EXCHANGE)[CORRELATION] FUNCTIONAL:(PERDEW-BURKE-ERNZERHOF)[PERDEW-BURKE-ERNZERHOF]


 CAPPA:IS1  3;IS2  3;IS3  3; K PTS MONK NET   6; SYMMOPS:K SPACE   8;G SPACE   4

 *******************************************************************************
 MAX NUMBER OF SCF CYCLES      50  CONVERGENCE ON DELTAP        10**-16
 WEIGHT OF F(I) IN F(I+1)      30% CONVERGENCE ON ENERGY        10**- 6
 SHRINK. FACT.(MONKH.)    3  3  3  NUMBER OF K POINTS IN THE IBZ      6
 SHRINKING FACTOR(GILAT NET)    3  NUMBER OF K POINTS(GILAT NET)      6
 *******************************************************************************
 *** K POINTS COORDINATES (OBLIQUE COORDINATES IN UNITS OF IS =  3)
   1-R(  0  0  0)   2-C(  1  0  0)   3-C(  1  1  0)   4-C(  2  1  0)
   5-C(  2  1  1)   6-C(  2  2  1)

 DIRECT LATTICE VECTORS COMPON. (A.U.)     RECIP. LATTICE VECTORS COMPON. (A.U.) 
        X            Y            Z              X            Y            Z
  -10.2161430   10.2161430   12.1931737      0.0000000    0.3075126    0.2576518
   10.2161430  -10.2161430   12.1931737      0.3075126    0.0000000    0.2576518
   10.2161430   10.2161430  -12.1931737      0.3075126    0.3075126    0.0000000

 DISK SPACE FOR EIGENVECTORS (FTN 10)    12266496 REALS

 SYMMETRY ADAPTION OF THE BLOCH FUNCTIONS ENABLED
 TTTTTTTTTTTTTTTTTTTTTTTTTTTTTT gordsh1     TELAPSE       12.72 TCPU        0.06

 MATRIX SIZE: P(G) 1934676, F(G)  968154, P(G) IRR  244525, F(G) IRR  244525
 MAX G-VECTOR INDEX FOR 1- AND 2-ELECTRON INTEGRALS  59

 TTTTTTTTTTTTTTTTTTTTTTTTTTTTTT INPUT       TELAPSE       12.89 TCPU        0.21

 NEIGHBORS OF THE NON-EQUIVALENT ATOMS

 N = NUMBER OF NEIGHBORS AT DISTANCE R
    ATOM  N     R/ANG      R/AU   NEIGHBORS (ATOM LABELS AND CELL INDICES)
   1 H    1     1.0945     2.0684   29 C    0 0 0
   1 H    1     2.0642     3.9007   53 N    0 0 0
   1 H    1     2.1756     4.1112   13 C    0 0 0
   1 H    1     2.5598     4.8373   42 N    0 0 0
   1 H    1     2.5718     4.8600   37 N    0-1 0
   1 H    1     2.6472     5.0024   17 C    0 0 0

   5 H    1     1.0913     2.0623   34 C    0 0 0
   5 H    1     2.1617     4.0850   21 C    0 0 0
   5 H    1     2.1649     4.0911   25 C    0 0 0
   5 H    1     2.5256     4.7726    9 H    0 0 0
   5 H    1     2.7941     5.2801    4 H    0 0 0
   5 H    1     2.9316     5.5400   59 BR   0-1 0

   9 H    1     1.0965     2.0722   25 C    0 0 0
   9 H    1     2.0824     3.9353   53 N    0 0 0
   9 H    1     2.1589     4.0798   54 N    0 0 0
   9 H    1     2.1806     4.1208   34 C    0 0 0
   9 H    1     2.4706     4.6687   10 H    0 0 0
   9 H    1     2.5256     4.7726    5 H    0 0 0

  13 C    1     1.4106     2.6656   21 C    0 0 0
  13 C    1     1.4121     2.6685   29 C    0 0 0
  13 C    1     1.4619     2.7625   17 C    0 0 0
  13 C    1     2.1756     4.1112    1 H    0 0 0
  13 C    1     2.4306     4.5931   34 C    0 0 0
  13 C    1     2.4308     4.5935   53 N    0 0 0

  17 C    1     1.3623     2.5743   45 N    0-1 0
  17 C    1     1.3646     2.5788   37 N    0-1 0
  17 C    1     1.4619     2.7625   13 C    0 0 0
  17 C    1     2.1940     4.1460   49 N    1 0 1
  17 C    1     2.2060     4.1688   41 N    1 0 1
  17 C    1     2.4500     4.6298   29 C    0 0 0

  21 C    1     1.3923     2.6310   34 C    0 0 0
  21 C    1     1.4106     2.6656   13 C    0 0 0
  21 C    1     1.8817     3.5558   59 BR   0-1 0
  21 C    1     2.1617     4.0850    5 H    0 0 0
  21 C    1     2.3921     4.5204   29 C    0 0 0
  21 C    1     2.4004     4.5361   25 C    0 0 0

  25 C    1     1.0965     2.0722    9 H    0 0 0
  25 C    1     1.3502     2.5514   53 N    0 0 0
  25 C    1     1.3955     2.6371   34 C    0 0 0
  25 C    1     2.1649     4.0911    5 H    0 0 0
  25 C    1     2.3095     4.3644   29 C    0 0 0
  25 C    1     2.4004     4.5361   21 C    0 0 0

  29 C    1     1.0945     2.0684    1 H    0 0 0
  29 C    1     1.3371     2.5268   53 N    0 0 0
  29 C    1     1.4121     2.6685   13 C    0 0 0
  29 C    1     2.3095     4.3644   25 C    0 0 0
  29 C    1     2.3921     4.5204   21 C    0 0 0
  29 C    1     2.4500     4.6298   17 C    0 0 0

  33 C    1     1.0913     2.0623    6 H    0 0 0
  33 C    1     1.3923     2.6310   22 C    0 0 0
  33 C    1     1.3955     2.6371   26 C    0 0 0
  33 C    1     2.1806     4.1208   10 H    0 0 0
  33 C    1     2.4024     4.5398   54 N    0 0 0
  33 C    1     2.4306     4.5931   14 C    0 0 0

  37 N    1     1.3646     2.5788   17 C    0 1 0
  37 N    1     1.3715     2.5918   41 N    1 1 1
  37 N    1     2.0234     3.8236   57 ZN   1 1 0
  37 N    1     2.1759     4.1119   49 N    1 1 1
  37 N    1     2.2105     4.1773   45 N    0 0 0
  37 N    1     2.4522     4.6340   13 C    0 1 0

  41 N    1     1.3126     2.4805   49 N    0 0 0
  41 N    1     1.3715     2.5918   37 N   -1-1-1
  41 N    1     2.2045     4.1660   45 N   -1-1-1
  41 N    1     2.2060     4.1688   17 C   -1 0-1
  41 N    1     2.5598     4.8373    2 H    0 0 0
  41 N    1     2.8572     5.3993   57 ZN   0 0-1

  45 N    1     1.3623     2.5743   17 C    0 1 0
  45 N    1     1.3822     2.6120   49 N    1 1 1
  45 N    1     2.0830     3.9363   58 ZN   0 0 0
  45 N    1     2.2045     4.1660   41 N    1 1 1
  45 N    1     2.2105     4.1773   37 N    0 0 0
  45 N    1     2.5721     4.8605   13 C    0 1 0

  49 N    1     1.3126     2.4805   41 N    0 0 0
  49 N    1     1.3822     2.6120   45 N   -1-1-1
  49 N    1     2.1759     4.1119   37 N   -1-1-1
  49 N    1     2.1940     4.1460   17 C   -1 0-1
  49 N    1     2.7739     5.2418   60 BR  -1-1-1
  49 N    1     2.8668     5.4176   58 ZN  -1-1-1

  53 N    1     1.3371     2.5268   29 C    0 0 0
  53 N    1     1.3502     2.5514   25 C    0 0 0
  53 N    1     2.0642     3.9007    1 H    0 0 0
  53 N    1     2.0824     3.9353    9 H    0 0 0
  53 N    1     2.1589     4.0798   10 H    0 0 0
  53 N    1     2.4024     4.5398   34 C    0 0 0

  57 ZN   4     2.0234     3.8236   37 N   -1-1 0   38 N   -1 0 1   39 N    0 0 1
                                    40 N   -1 0 0
  57 ZN   4     2.7469     5.1909    1 H   -1 0 0    2 H    0 0 1    3 H   -1-1 0
                                     4 H   -1 0 1
  57 ZN   4     2.8572     5.3993   41 N    0 0 1   42 N   -1 0 0   43 N   -1 0 1
                                    44 N   -1-1 0
  57 ZN   4     3.1770     6.0036   17 C   -1 0 0   18 C    0 0 1   19 C   -1-1 0
                                    20 C   -1 0 1
  57 ZN   4     3.3438     6.3188   29 C   -1 0 0   30 C    0 0 1   31 C   -1-1 0
                                    32 C   -1 0 1
  57 ZN   4     3.6400     6.8786   13 C   -1 0 0   14 C    0 0 1   15 C   -1-1 0
                                    16 C   -1 0 1

  58 ZN   4     2.0830     3.9363   45 N    0 0 0   46 N    0 0 0   47 N    1 1 0
                                    48 N    1 1 0
  58 ZN   4     2.8668     5.4176   49 N    1 1 1   50 N    0 0-1   51 N    0 1 0
                                    52 N    1 0 0
  58 ZN   4     3.2717     6.1826   17 C    0 1 0   18 C    1 0 0   19 C    0 0-1
                                    20 C    1 1 1
  58 ZN   4     3.3657     6.3603   59 BR   0 0 0   60 BR   0 0 0   61 BR   1 1 0
                                    62 BR   1 1 0
  58 ZN   4     3.9875     7.5353   13 C    0 1 0   14 C    1 0 0   15 C    0 0-1
                                    16 C    1 1 1
  58 ZN   4     4.0718     7.6946   41 N    1 1 1   42 N    0 0-1   43 N    0 1 0
                                    44 N    1 0 0

  59 BR   1     1.8817     3.5558   21 C    0 1 0
  59 BR   1     2.7739     5.2418   50 N    0 0-1
  59 BR   1     2.8242     5.3369   34 C    0 1 0
  59 BR   1     2.8785     5.4397   13 C    0 1 0
  59 BR   1     2.9316     5.5400    5 H    0 1 0
  59 BR   1     3.1276     5.9102    8 H    0 0 0


 SYMMETRY ALLOWED INTERNAL DEGREE(S) OF FREEDOM:  45
 TTTTTTTTTTTTTTTTTTTTTTTTTTTTTT SYMM        TELAPSE       12.91 TCPU        0.23
 TTTTTTTTTTTTTTTTTTTTTTTTTTTTTT INT_SCREEN  TELAPSE       12.92 TCPU        0.24
 INFORMATION **** EXCBUF **** EXCH. BIPO BUFFER: WORDS USED =           0

 DFT PARAMETERS

     ATOM       ELECTRONS   NET CHARGE   R(ANGSTROM)
   1   1  H       1.0000      0.0000     1.11000000
  13   6  C       6.0000      0.0000     0.77000000
  37   7  N       7.0000      0.0000     0.74000000
  57  30  ZN     30.0000      0.0000     1.37000000
  59  35  BR     35.0000      0.0000     1.14000000

 SIZE OF GRID=     454698
 TTTTTTTTTTTTTTTTTTTTTTTTTTTTTT MAKE_GRID2  TELAPSE       13.70 TCPU        1.02
 BECKE WEIGHT FUNCTION
 RADSAFE =     2.00
 TOLERANCES - DENSITY:10**- 6; POTENTIAL:10**- 9; GRID WGT:10**-14

 RADIAL INTEGRATION  - INTERVALS (POINTS,UPPER LIMIT):            1( 75,  4.0*R)

 ANGULAR INTEGRATION - INTERVALS (ACCURACY LEVEL [N. POINTS] UPPER LIMIT):
  1(  4[  86]   0.2)  2(  8[ 194]   0.5)  3( 12[ 350]   0.9)  4( 16[ 974]   3.5)
  5( 12[ 350]9999.0)
 TTTTTTTTTTTTTTTTTTTTTTTTTTTTTT INT_CALC    TELAPSE       13.75 TCPU        1.07
 EEEEEEEEEE INT_CALC TERMINATION  DATE 21 01 2024 TIME 21:23:16.0

 *******************************************************************************
 Z:\home\sanoj\Downloads\tmp_p\newconn.mol                                       
 CRYSTAL - SCF - TYPE OF CALCULATION :  RESTRICTED CLOSED SHELL
 *******************************************************************************

 CAPPA:IS1  3;IS2  3;IS3  3; K PTS MONK NET   6; SYMMOPS:K SPACE   8;G SPACE   4

 TTTTTTTTTTTTTTTTTTTTTTTTTTTTTT SDIK        TELAPSE       13.92 TCPU        1.24

 AAAAAAAAAAAAAAAAAAAAAAAAAAAAAAAAAAAAAAAAAAAAAAAAAAAAAAAAAAAAAAAAAAAAAAAAAAAAAAA
         ATOMIC WAVEFUNCTION(S)


 NUCLEAR CHARGE  1.0  SYMMETRY SPECIES            S
 N. ELECTRONS    1.0  NUMBER OF PRIMITIVE GTOS    4
                      NUMBER OF CONTRACTED GTOS   2
                      NUMBER OF CLOSED SHELLS     0
                      OPEN SHELL OCCUPATION       1

  ZNUC SCFIT  TOTAL HF ENERGY   KINETIC ENERGY   VIRIAL THEOREM ACCURACY
   1.0   1   -4.946643675E-01  4.917913167E-01 -2.005842012E+00  9.4E-17

 NUCLEAR CHARGE  6.0  SYMMETRY SPECIES            S    P
 N. ELECTRONS    6.0  NUMBER OF PRIMITIVE GTOS    7    4
                      NUMBER OF CONTRACTED GTOS   3    2
                      NUMBER OF CLOSED SHELLS     2    0
                      OPEN SHELL OCCUPATION       0    2

  ZNUC SCFIT  TOTAL HF ENERGY   KINETIC ENERGY   VIRIAL THEOREM ACCURACY
   6.0   6   -3.750912652E+01  3.905246519E+01 -1.960480378E+00  3.7E-06

 NUCLEAR CHARGE  7.0  SYMMETRY SPECIES            S    P
 N. ELECTRONS    7.0  NUMBER OF PRIMITIVE GTOS    7    4
                      NUMBER OF CONTRACTED GTOS   3    2
                      NUMBER OF CLOSED SHELLS     2    0
                      OPEN SHELL OCCUPATION       0    3

  ZNUC SCFIT  TOTAL HF ENERGY   KINETIC ENERGY   VIRIAL THEOREM ACCURACY
   7.0   9   -5.432196661E+01  5.425066284E+01 -2.001314339E+00  1.2E-06

 NUCLEAR CHARGE 30.0  SYMMETRY SPECIES            S    P    D
 N. ELECTRONS   30.0  NUMBER OF PRIMITIVE GTOS   14    9    5
                      NUMBER OF CONTRACTED GTOS   5    3    2
                      NUMBER OF CLOSED SHELLS     4    2    1
                      OPEN SHELL OCCUPATION       0    0    0

  ZNUC SCFIT  TOTAL HF ENERGY   KINETIC ENERGY   VIRIAL THEOREM ACCURACY
  30.0  10   -1.777404290E+03  1.777325716E+03 -2.000044209E+00  2.5E-06

 NUCLEAR CHARGE 35.0  SYMMETRY SPECIES            S    P    D
 N. ELECTRONS   35.0  NUMBER OF PRIMITIVE GTOS   14   10    7
                      NUMBER OF CONTRACTED GTOS   5    4    4
                      NUMBER OF CLOSED SHELLS     4    2    1
                      OPEN SHELL OCCUPATION       0    5    0

  ZNUC SCFIT  TOTAL HF ENERGY   KINETIC ENERGY   VIRIAL THEOREM ACCURACY
  35.0  13   -2.572060514E+03  2.572021521E+03 -2.000015161E+00  3.6E-06

 AAAAAAAAAAAAAAAAAAAAAAAAAAAAAAAAAAAAAAAAAAAAAAAAAAAAAAAAAAAAAAAAAAAAAAAAAAAAAAA

 TOTAL ATOMIC CHARGES:
   1.0000000   1.0000000   1.0000000   1.0000000   1.0000000   1.0000000
   1.0000000   1.0000000   1.0000000   1.0000000   1.0000000   1.0000000
   6.0000000   6.0000000   6.0000000   6.0000000   6.0000000   6.0000000
   6.0000000   6.0000000   6.0000000   6.0000000   6.0000000   6.0000000
   6.0000000   6.0000000   6.0000000   6.0000000   6.0000000   6.0000000
   6.0000000   6.0000000   6.0000000   6.0000000   6.0000000   6.0000000
   7.0000000   7.0000000   7.0000000   7.0000000   7.0000000   7.0000000
   7.0000000   7.0000000   7.0000000   7.0000000   7.0000000   7.0000000
   7.0000000   7.0000000   7.0000000   7.0000000   7.0000000   7.0000000
   7.0000000   7.0000000  30.0000000  30.0000000  35.0000000  35.0000000
  35.0000000  35.0000000
 TTTTTTTTTTTTTTTTTTTTTTTTTTTTTT MOQGAD      TELAPSE       14.79 TCPU        2.10
 TTTTTTTTTTTTTTTTTTTTTTTTTTTTTT SHELLXN     TELAPSE       42.72 TCPU       27.69
 TTTTTTTTTTTTTTTTTTTTTTTTTTTTTT MONMO3      TELAPSE       46.35 TCPU       31.30
 NUMERICALLY INTEGRATED DENSITY    495.9997268443
 TTTTTTTTTTTTTTTTTTTTTTTTTTTTTT NUMDFT      TELAPSE       46.97 TCPU       31.92
 CYC   0 ETOT(AU) -1.586794069344E+04 DETOT -1.59E+04 tst  0.00E+00 PX  1.00E+00
 TTTTTTTTTTTTTTTTTTTTTTTTTTTTTT DIIS        TELAPSE       47.03 TCPU       31.98
 TTTTTTTTTTTTTTTTTTTTTTTTTTTTTT FDIK        TELAPSE       64.26 TCPU       47.12
 INSULATING STATE
 TOP OF VALENCE BANDS -    BAND    248; K    4; EIG -1.3411547E-01 AU
 TOP OF VALENCE BANDS -    BAND    248; K    1; EIG -1.3454549E-01 AU
 BOTTOM OF VIRTUAL BANDS - BAND    249; K    1; EIG -1.0047542E-01 AU
 INDIRECT ENERGY BAND GAP:   0.9154 eV
 TTTTTTTTTTTTTTTTTTTTTTTTTTTTTT PDIG        TELAPSE       64.82 TCPU       47.69
 TOTAL ATOMIC CHARGES:
   1.2968322   1.2968322   1.2968322   1.2968322   1.1879696   1.1879696
   1.1879696   1.1879696   1.2087258   1.2087258   1.2087258   1.2087258
   6.1544810   6.1544810   6.1544810   6.1544810   5.4649485   5.4649485
   5.4649485   5.4649485   5.5293802   5.5293802   5.5293802   5.5293802
   5.6700233   5.6700233   5.6700233   5.6700233   5.8002202   5.8002202
   5.8002202   5.8002202   6.1827319   6.1827319   6.1827319   6.1827319
   7.3932191   7.3932191   7.3932191   7.3932191   7.1878884   7.1878884
   7.1878884   7.1878884   7.4181790   7.4181790   7.4181790   7.4181790
   7.1459458   7.1459458   7.1459458   7.1459458   7.4881364   7.4881364
   7.4881364   7.4881364  27.7147451  27.9441869  34.9565857  34.9565857
  34.9565857  34.9565857
 TTTTTTTTTTTTTTTTTTTTTTTTTTTTTT MOQGAD      TELAPSE       64.85 TCPU       47.71
 TTTTTTTTTTTTTTTTTTTTTTTTTTTTTT SHELLXN     TELAPSE       97.58 TCPU       78.06
 TTTTTTTTTTTTTTTTTTTTTTTTTTTTTT MONMO3      TELAPSE      101.68 TCPU       82.14
 NUMERICALLY INTEGRATED DENSITY    495.9997027266
 TTTTTTTTTTTTTTTTTTTTTTTTTTTTTT NUMDFT      TELAPSE      103.66 TCPU       84.12
 CYC   1 ETOT(AU) -1.586324405526E+04 DETOT  4.70E+00 tst  0.00E+00 PX  1.00E+00
 TTTTTTTTTTTTTTTTTTTTTTTTTTTTTT DIIS        TELAPSE      103.80 TCPU       84.26
 DIIS TEST: 0.11578E+02 AT SCF   CYCLE   1 - MIX   30 %
 TTTTTTTTTTTTTTTTTTTTTTTTTTTTTT FDIK        TELAPSE      113.92 TCPU       91.54
 INSULATING STATE
 TOP OF VALENCE BANDS -    BAND    248; K    3; EIG -1.2154016E-01 AU
 TOP OF VALENCE BANDS -    BAND    248; K    1; EIG -1.2538293E-01 AU
 BOTTOM OF VIRTUAL BANDS - BAND    249; K    5; EIG -1.2022135E-01 AU
 INDIRECT ENERGY BAND GAP:   0.0359 eV
 BOTTOM OF VIRTUAL BANDS - BAND    249; K    1; EIG -1.1515124E-01 AU
 TTTTTTTTTTTTTTTTTTTTTTTTTTTTTT PDIG        TELAPSE      114.48 TCPU       92.09
 TOTAL ATOMIC CHARGES:
   1.2797176   1.2797176   1.2797176   1.2797176   1.1344426   1.1344426
   1.1344426   1.1344426   1.1558598   1.1558598   1.1558598   1.1558598
   6.3326176   6.3326176   6.3326176   6.3326176   6.3247840   6.3247840
   6.3247840   6.3247840   6.3875901   6.3875901   6.3875901   6.3875901
   5.8957134   5.8957134   5.8957134   5.8957134   6.2859037   6.2859037
   6.2859037   6.2859037   5.8694217   5.8694217   5.8694217   5.8694217
   7.0648534   7.0648534   7.0648534   7.0648534   6.8795908   6.8795908
   6.8795908   6.8795908   7.0093082   7.0093082   7.0093082   7.0093082
   6.8757898   6.8757898   6.8757898   6.8757898   5.6995818   5.6995818
   5.6995818   5.6995818  29.8806858  29.5598397  34.9446942  34.9446942
  34.9446942  34.9446942
 TTTTTTTTTTTTTTTTTTTTTTTTTTTTTT MOQGAD      TELAPSE      114.50 TCPU       92.11
 TTTTTTTTTTTTTTTTTTTTTTTTTTTTTT SHELLXN     TELAPSE      145.07 TCPU      122.40
 TTTTTTTTTTTTTTTTTTTTTTTTTTTTTT MONMO3      TELAPSE      151.44 TCPU      128.75
 NUMERICALLY INTEGRATED DENSITY    495.9996902981
 TTTTTTTTTTTTTTTTTTTTTTTTTTTTTT NUMDFT      TELAPSE      153.29 TCPU      130.58
 CYC   2 ETOT(AU) -1.586046389926E+04 DETOT  2.78E+00 tst  6.88E-02 PX  8.42E-01
 TTTTTTTTTTTTTTTTTTTTTTTTTTTTTT DIIS        TELAPSE      153.40 TCPU      130.69
 DIIS TEST: 0.32525E+02 AT SCF   CYCLE   2 - DIIS ACTIVE - HISTORY:     2 CYCLES
 TTTTTTTTTTTTTTTTTTTTTTTTTTTTTT FDIK        TELAPSE      159.10 TCPU      136.20
 INSULATING STATE
 TOP OF VALENCE BANDS -    BAND    248; K    2; EIG -2.3441135E-01 AU
 TOP OF VALENCE BANDS -    BAND    248; K    1; EIG -2.3468005E-01 AU
 BOTTOM OF VIRTUAL BANDS - BAND    249; K    1; EIG -1.2816178E-01 AU
 INDIRECT ENERGY BAND GAP:   2.8912 eV
 TTTTTTTTTTTTTTTTTTTTTTTTTTTTTT PDIG        TELAPSE      159.66 TCPU      136.76
 TOTAL ATOMIC CHARGES:
   1.1956084   1.1956084   1.1956084   1.1956084   1.0980185   1.0980185
   1.0980185   1.0980185   1.1144193   1.1144193   1.1144193   1.1144193
   5.8890667   5.8890667   5.8890667   5.8890667   5.9072835   5.9072835
   5.9072835   5.9072835   5.7180623   5.7180623   5.7180623   5.7180623
   6.1224839   6.1224839   6.1224839   6.1224839   5.9682563   5.9682563
   5.9682563   5.9682563   5.9468188   5.9468188   5.9468188   5.9468188
   6.9097775   6.9097775   6.9097775   6.9097775   7.0796489   7.0796489
   7.0796489   7.0796489   6.9169268   6.9169268   6.9169268   6.9169268
   7.0571726   7.0571726   7.0571726   7.0571726   7.4866922   7.4866922
   7.4866922   7.4866922  29.4450063  29.2721707  34.9104702  34.9104702
  34.9104702  34.9104702
 TTTTTTTTTTTTTTTTTTTTTTTTTTTTTT MOQGAD      TELAPSE      159.69 TCPU      136.78
 TTTTTTTTTTTTTTTTTTTTTTTTTTTTTT SHELLXN     TELAPSE      194.54 TCPU      166.97
 TTTTTTTTTTTTTTTTTTTTTTTTTTTTTT MONMO3      TELAPSE      198.09 TCPU      170.49
 NUMERICALLY INTEGRATED DENSITY    495.9996896323
 TTTTTTTTTTTTTTTTTTTTTTTTTTTTTT NUMDFT      TELAPSE      199.93 TCPU      172.33
 CYC   3 ETOT(AU) -1.586409112310E+04 DETOT -3.63E+00 tst  9.88E-01 PX  4.47E-01
 TTTTTTTTTTTTTTTTTTTTTTTTTTTTTT DIIS        TELAPSE      200.05 TCPU      172.45
 DIIS TEST: 0.66832E+01 AT SCF   CYCLE   3 - DIIS ACTIVE - HISTORY:     3 CYCLES
 TTTTTTTTTTTTTTTTTTTTTTTTTTTTTT FDIK        TELAPSE      206.22 TCPU      178.45
 INSULATING STATE
 TOP OF VALENCE BANDS -    BAND    248; K    4; EIG -2.1058737E-01 AU
 TOP OF VALENCE BANDS -    BAND    248; K    1; EIG -2.1068261E-01 AU
 BOTTOM OF VIRTUAL BANDS - BAND    249; K    6; EIG -1.2158441E-01 AU
 INDIRECT ENERGY BAND GAP:   2.4219 eV
 BOTTOM OF VIRTUAL BANDS - BAND    249; K    1; EIG -1.1799921E-01 AU
 TTTTTTTTTTTTTTTTTTTTTTTTTTTTTT PDIG        TELAPSE      206.78 TCPU      179.01
 TOTAL ATOMIC CHARGES:
   1.2205768   1.2205768   1.2205768   1.2205768   1.1206140   1.1206140
   1.1206140   1.1206140   1.1591745   1.1591745   1.1591745   1.1591745
   6.2461537   6.2461537   6.2461537   6.2461537   5.7256665   5.7256665
   5.7256665   5.7256665   5.8770084   5.8770084   5.8770084   5.8770084
   5.6672474   5.6672474   5.6672474   5.6672474   5.9675112   5.9675112
   5.9675112   5.9675112   6.1389480   6.1389480   6.1389480   6.1389480
   7.2297601   7.2297601   7.2297601   7.2297601   7.0450211   7.0450211
   7.0450211   7.0450211   7.2644919   7.2644919   7.2644919   7.2644919
   7.0517937   7.0517937   7.0517937   7.0517937   6.9642308   6.9642308
   6.9642308   6.9642308  28.7451765  28.7527988  34.9473082  34.9473082
  34.9473082  34.9473082
 TTTTTTTTTTTTTTTTTTTTTTTTTTTTTT MOQGAD      TELAPSE      206.81 TCPU      179.03
 TTTTTTTTTTTTTTTTTTTTTTTTTTTTTT SHELLXN     TELAPSE      239.62 TCPU      209.33
 TTTTTTTTTTTTTTTTTTTTTTTTTTTTTT MONMO3      TELAPSE      243.74 TCPU      213.44
 NUMERICALLY INTEGRATED DENSITY    495.9997006959
 TTTTTTTTTTTTTTTTTTTTTTTTTTTTTT NUMDFT      TELAPSE      245.60 TCPU      215.29
 CYC   4 ETOT(AU) -1.586498218660E+04 DETOT -8.91E-01 tst  5.26E-03 PX  4.04E-01
 TTTTTTTTTTTTTTTTTTTTTTTTTTTTTT DIIS        TELAPSE      245.71 TCPU      215.39
 DIIS TEST: 0.10725E+01 AT SCF   CYCLE   4 - DIIS ACTIVE - HISTORY:     4 CYCLES
 TTTTTTTTTTTTTTTTTTTTTTTTTTTTTT FDIK        TELAPSE      254.41 TCPU      221.93
 INSULATING STATE
 TOP OF VALENCE BANDS -    BAND    248; K    1; EIG -2.2374954E-01 AU
 BOTTOM OF VIRTUAL BANDS - BAND    249; K    6; EIG -1.2340879E-01 AU
 INDIRECT ENERGY BAND GAP:   2.7304 eV
 BOTTOM OF VIRTUAL BANDS - BAND    249; K    1; EIG -1.1882931E-01 AU
 TTTTTTTTTTTTTTTTTTTTTTTTTTTTTT PDIG        TELAPSE      254.97 TCPU      222.49
 TOTAL ATOMIC CHARGES:
   1.2160095   1.2160095   1.2160095   1.2160095   1.1275613   1.1275613
   1.1275613   1.1275613   1.1482981   1.1482981   1.1482981   1.1482981
   6.1450858   6.1450858   6.1450858   6.1450858   5.8162466   5.8162466
   5.8162466   5.8162466   5.8278120   5.8278120   5.8278120   5.8278120
   5.8923060   5.8923060   5.8923060   5.8923060   6.0387763   6.0387763
   6.0387763   6.0387763   6.0333283   6.0333283   6.0333283   6.0333283
   7.2031963   7.2031963   7.2031963   7.2031963   7.1355409   7.1355409
   7.1355409   7.1355409   7.0887122   7.0887122   7.0887122   7.0887122
   7.0248591   7.0248591   7.0248591   7.0248591   6.9837171   6.9837171
   6.9837171   6.9837171  28.8196727  28.7779896  34.9191348  34.9191348
  34.9191348  34.9191348
 TTTTTTTTTTTTTTTTTTTTTTTTTTTTTT MOQGAD      TELAPSE      254.99 TCPU      222.51
 TTTTTTTTTTTTTTTTTTTTTTTTTTTTTT SHELLXN     TELAPSE      287.68 TCPU      252.79
 TTTTTTTTTTTTTTTTTTTTTTTTTTTTTT MONMO3      TELAPSE      291.81 TCPU      256.92
 NUMERICALLY INTEGRATED DENSITY    495.9996983940
 TTTTTTTTTTTTTTTTTTTTTTTTTTTTTT NUMDFT      TELAPSE      293.72 TCPU      258.81
 CYC   5 ETOT(AU) -1.586511587373E+04 DETOT -1.34E-01 tst  7.70E-04 PX  1.46E-01
 TTTTTTTTTTTTTTTTTTTTTTTTTTTTTT DIIS        TELAPSE      293.95 TCPU      259.04
 DIIS TEST: 0.20691E+00 AT SCF   CYCLE   5 - DIIS ACTIVE - HISTORY:     5 CYCLES
 TTTTTTTTTTTTTTTTTTTTTTTTTTTTTT FDIK        TELAPSE      300.41 TCPU      265.33
 INSULATING STATE
 TOP OF VALENCE BANDS -    BAND    248; K    1; EIG -2.2644263E-01 AU
 BOTTOM OF VIRTUAL BANDS - BAND    249; K    6; EIG -1.2277776E-01 AU
 INDIRECT ENERGY BAND GAP:   2.8209 eV
 BOTTOM OF VIRTUAL BANDS - BAND    249; K    1; EIG -1.1994859E-01 AU
 TTTTTTTTTTTTTTTTTTTTTTTTTTTTTT PDIG        TELAPSE      300.96 TCPU      265.88
 TOTAL ATOMIC CHARGES:
   1.2129412   1.2129412   1.2129412   1.2129412   1.1182940   1.1182940
   1.1182940   1.1182940   1.1484457   1.1484457   1.1484457   1.1484457
   6.1474485   6.1474485   6.1474485   6.1474485   5.8006028   5.8006028
   5.8006028   5.8006028   5.8591608   5.8591608   5.8591608   5.8591608
   5.8264704   5.8264704   5.8264704   5.8264704   5.9778358   5.9778358
   5.9778358   5.9778358   6.0593533   6.0593533   6.0593533   6.0593533
   7.1158316   7.1158316   7.1158316   7.1158316   7.0277644   7.0277644
   7.0277644   7.0277644   7.2098425   7.2098425   7.2098425   7.2098425
   7.0891142   7.0891142   7.0891142   7.0891142   7.0540607   7.0540607
   7.0540607   7.0540607  28.8402682  28.8205592  34.9376272  34.9376272
  34.9376272  34.9376272
 TTTTTTTTTTTTTTTTTTTTTTTTTTTTTT MOQGAD      TELAPSE      300.99 TCPU      265.90
 TTTTTTTTTTTTTTTTTTTTTTTTTTTTTT SHELLXN     TELAPSE      331.53 TCPU      296.20
 TTTTTTTTTTTTTTTTTTTTTTTTTTTTTT MONMO3      TELAPSE      337.90 TCPU      302.55
 NUMERICALLY INTEGRATED DENSITY    495.9996987066
 TTTTTTTTTTTTTTTTTTTTTTTTTTTTTT NUMDFT      TELAPSE      339.75 TCPU      304.39
 CYC   6 ETOT(AU) -1.586513117492E+04 DETOT -1.53E-02 tst  2.29E-04 PX  3.62E-02
 TTTTTTTTTTTTTTTTTTTTTTTTTTTTTT DIIS        TELAPSE      339.88 TCPU      304.51
 DIIS TEST: 0.10602E+00 AT SCF   CYCLE   6 - DIIS ACTIVE - HISTORY:     6 CYCLES
 TTTTTTTTTTTTTTTTTTTTTTTTTTTTTT FDIK        TELAPSE      347.55 TCPU      309.94
 INSULATING STATE
 TOP OF VALENCE BANDS -    BAND    248; K    1; EIG -2.2772593E-01 AU
 BOTTOM OF VIRTUAL BANDS - BAND    249; K    6; EIG -1.2256795E-01 AU
 INDIRECT ENERGY BAND GAP:   2.8615 eV
 BOTTOM OF VIRTUAL BANDS - BAND    249; K    1; EIG -1.1860154E-01 AU
 TTTTTTTTTTTTTTTTTTTTTTTTTTTTTT PDIG        TELAPSE      348.12 TCPU      310.51
 TOTAL ATOMIC CHARGES:
   1.2125441   1.2125441   1.2125441   1.2125441   1.1159296   1.1159296
   1.1159296   1.1159296   1.1467979   1.1467979   1.1467979   1.1467979
   6.1499723   6.1499723   6.1499723   6.1499723   5.7925462   5.7925462
   5.7925462   5.7925462   5.8535698   5.8535698   5.8535698   5.8535698
   5.8009362   5.8009362   5.8009362   5.8009362   5.9916420   5.9916420
   5.9916420   5.9916420   6.0700684   6.0700684   6.0700684   6.0700684
   7.1788164   7.1788164   7.1788164   7.1788164   7.0789692   7.0789692
   7.0789692   7.0789692   7.1485579   7.1485579   7.1485579   7.1485579
   7.0308825   7.0308825   7.0308825   7.0308825   7.0715428   7.0715428
   7.0715428   7.0715428  28.8576658  28.8302549  34.9352446  34.9352446
  34.9352446  34.9352446
 TTTTTTTTTTTTTTTTTTTTTTTTTTTTTT MOQGAD      TELAPSE      348.14 TCPU      310.53
 TTTTTTTTTTTTTTTTTTTTTTTTTTTTTT SHELLXN     TELAPSE      380.86 TCPU      340.88
 TTTTTTTTTTTTTTTTTTTTTTTTTTTTTT MONMO3      TELAPSE      385.01 TCPU      345.01
 NUMERICALLY INTEGRATED DENSITY    495.9996983736
 TTTTTTTTTTTTTTTTTTTTTTTTTTTTTT NUMDFT      TELAPSE      386.86 TCPU      346.85
 CYC   7 ETOT(AU) -1.586514420688E+04 DETOT -1.30E-02 tst  4.99E-05 PX  1.94E-02
 TTTTTTTTTTTTTTTTTTTTTTTTTTTTTT DIIS        TELAPSE      386.99 TCPU      346.97
 DIIS TEST: 0.17381E-01 AT SCF   CYCLE   7 - DIIS ACTIVE - HISTORY:     7 CYCLES
 TTTTTTTTTTTTTTTTTTTTTTTTTTTTTT FDIK        TELAPSE      392.61 TCPU      352.42
 INSULATING STATE
 TOP OF VALENCE BANDS -    BAND    248; K    1; EIG -2.2643691E-01 AU
 BOTTOM OF VIRTUAL BANDS - BAND    249; K    6; EIG -1.2253704E-01 AU
 INDIRECT ENERGY BAND GAP:   2.8273 eV
 BOTTOM OF VIRTUAL BANDS - BAND    249; K    1; EIG -1.1899512E-01 AU
 TTTTTTTTTTTTTTTTTTTTTTTTTTTTTT PDIG        TELAPSE      393.17 TCPU      352.98
 TOTAL ATOMIC CHARGES:
   1.2107141   1.2107141   1.2107141   1.2107141   1.1159239   1.1159239
   1.1159239   1.1159239   1.1467235   1.1467235   1.1467235   1.1467235
   6.1472647   6.1472647   6.1472647   6.1472647   5.7948903   5.7948903
   5.7948903   5.7948903   5.8399175   5.8399175   5.8399175   5.8399175
   5.8381448   5.8381448   5.8381448   5.8381448   6.0006551   6.0006551
   6.0006551   6.0006551   6.0609214   6.0609214   6.0609214   6.0609214
   7.1563365   7.1563365   7.1563365   7.1563365   7.0712776   7.0712776
   7.0712776   7.0712776   7.1563775   7.1563775   7.1563775   7.1563775
   7.0563048   7.0563048   7.0563048   7.0563048   7.0446724   7.0446724
   7.0446724   7.0446724  28.8558961  28.8273868  34.9390553  34.9390553
  34.9390553  34.9390553
 TTTTTTTTTTTTTTTTTTTTTTTTTTTTTT MOQGAD      TELAPSE      393.19 TCPU      353.00
 TTTTTTTTTTTTTTTTTTTTTTTTTTTTTT SHELLXN     TELAPSE      425.90 TCPU      383.35
 TTTTTTTTTTTTTTTTTTTTTTTTTTTTTT MONMO3      TELAPSE      430.04 TCPU      387.47
 NUMERICALLY INTEGRATED DENSITY    495.9996983990
 TTTTTTTTTTTTTTTTTTTTTTTTTTTTTT NUMDFT      TELAPSE      431.93 TCPU      389.36
 CYC   8 ETOT(AU) -1.586514660171E+04 DETOT -2.39E-03 tst  6.15E-06 PX  9.52E-03
 TTTTTTTTTTTTTTTTTTTTTTTTTTTTTT DIIS        TELAPSE      432.10 TCPU      389.53
 DIIS TEST: 0.15460E-02 AT SCF   CYCLE   8 - DIIS ACTIVE - HISTORY:     8 CYCLES
 TTTTTTTTTTTTTTTTTTTTTTTTTTTTTT FDIK        TELAPSE      439.65 TCPU      395.31
 INSULATING STATE
 TOP OF VALENCE BANDS -    BAND    248; K    1; EIG -2.2727734E-01 AU
 BOTTOM OF VIRTUAL BANDS - BAND    249; K    6; EIG -1.2294018E-01 AU
 INDIRECT ENERGY BAND GAP:   2.8392 eV
 BOTTOM OF VIRTUAL BANDS - BAND    249; K    1; EIG -1.1929886E-01 AU
 TTTTTTTTTTTTTTTTTTTTTTTTTTTTTT PDIG        TELAPSE      440.21 TCPU      395.87
 TOTAL ATOMIC CHARGES:
   1.2105618   1.2105618   1.2105618   1.2105618   1.1167211   1.1167211
   1.1167211   1.1167211   1.1465890   1.1465890   1.1465890   1.1465890
   6.1478916   6.1478916   6.1478916   6.1478916   5.7955826   5.7955826
   5.7955826   5.7955826   5.8460865   5.8460865   5.8460865   5.8460865
   5.8331862   5.8331862   5.8331862   5.8331862   5.9957550   5.9957550
   5.9957550   5.9957550   6.0572618   6.0572618   6.0572618   6.0572618
   7.1635436   7.1635436   7.1635436   7.1635436   7.0709510   7.0709510
   7.0709510   7.0709510   7.1612540   7.1612540   7.1612540   7.1612540
   7.0465960   7.0465960   7.0465960   7.0465960   7.0549859   7.0549859
   7.0549859   7.0549859  28.8560489  28.8255424  34.9326359  34.9326359
  34.9326359  34.9326359
 TTTTTTTTTTTTTTTTTTTTTTTTTTTTTT MOQGAD      TELAPSE      440.24 TCPU      395.89
 TTTTTTTTTTTTTTTTTTTTTTTTTTTTTT SHELLXN     TELAPSE      472.83 TCPU      426.12
 TTTTTTTTTTTTTTTTTTTTTTTTTTTTTT MONMO3      TELAPSE      475.14 TCPU      428.42
 NUMERICALLY INTEGRATED DENSITY    495.9996985837
 TTTTTTTTTTTTTTTTTTTTTTTTTTTTTT NUMDFT      TELAPSE      477.04 TCPU      430.31
 CYC   9 ETOT(AU) -1.586514676395E+04 DETOT -1.62E-04 tst  1.31E-06 PX  3.27E-03
 TTTTTTTTTTTTTTTTTTTTTTTTTTTTTT DIIS        TELAPSE      477.22 TCPU      430.49
 DIIS TEST: 0.48527E-03 AT SCF   CYCLE   9 - DIIS ACTIVE - HISTORY:     9 CYCLES
 TTTTTTTTTTTTTTTTTTTTTTTTTTTTTT FDIK        TELAPSE      484.35 TCPU      435.44
 INSULATING STATE
 TOP OF VALENCE BANDS -    BAND    248; K    1; EIG -2.2719169E-01 AU
 BOTTOM OF VIRTUAL BANDS - BAND    249; K    6; EIG -1.2264466E-01 AU
 INDIRECT ENERGY BAND GAP:   2.8449 eV
 BOTTOM OF VIRTUAL BANDS - BAND    249; K    1; EIG -1.1903639E-01 AU
 TTTTTTTTTTTTTTTTTTTTTTTTTTTTTT PDIG        TELAPSE      484.91 TCPU      436.00
 TOTAL ATOMIC CHARGES:
   1.2107491   1.2107491   1.2107491   1.2107491   1.1165447   1.1165447
   1.1165447   1.1165447   1.1464569   1.1464569   1.1464569   1.1464569
   6.1461134   6.1461134   6.1461134   6.1461134   5.7950629   5.7950629
   5.7950629   5.7950629   5.8452028   5.8452028   5.8452028   5.8452028
   5.8312561   5.8312561   5.8312561   5.8312561   5.9969102   5.9969102
   5.9969102   5.9969102   6.0620403   6.0620403   6.0620403   6.0620403
   7.1592191   7.1592191   7.1592191   7.1592191   7.0729429   7.0729429
   7.0729429   7.0729429   7.1548397   7.1548397   7.1548397   7.1548397
   7.0528579   7.0528579   7.0528579   7.0528579   7.0535652   7.0535652
   7.0535652   7.0535652  28.8562997  28.8274248  34.9353077  34.9353077
  34.9353077  34.9353077
 TTTTTTTTTTTTTTTTTTTTTTTTTTTTTT MOQGAD      TELAPSE      484.94 TCPU      436.02
 TTTTTTTTTTTTTTTTTTTTTTTTTTTTTT SHELLXN     TELAPSE      515.52 TCPU      466.14
 TTTTTTTTTTTTTTTTTTTTTTTTTTTTTT MONMO3      TELAPSE      519.88 TCPU      470.48
 NUMERICALLY INTEGRATED DENSITY    495.9996984949
 TTTTTTTTTTTTTTTTTTTTTTTTTTTTTT NUMDFT      TELAPSE      521.78 TCPU      472.36
 CYC  10 ETOT(AU) -1.586514682011E+04 DETOT -5.62E-05 tst  5.51E-07 PX  1.67E-03
 TTTTTTTTTTTTTTTTTTTTTTTTTTTTTT DIIS        TELAPSE      521.92 TCPU      472.50
 DIIS TEST: 0.15586E-03 AT SCF   CYCLE  10 - DIIS ACTIVE - HISTORY:    10 CYCLES
 TTTTTTTTTTTTTTTTTTTTTTTTTTTTTT FDIK        TELAPSE      529.65 TCPU      480.09
 INSULATING STATE
 TOP OF VALENCE BANDS -    BAND    248; K    1; EIG -2.2723309E-01 AU
 BOTTOM OF VIRTUAL BANDS - BAND    249; K    6; EIG -1.2272003E-01 AU
 INDIRECT ENERGY BAND GAP:   2.8439 eV
 BOTTOM OF VIRTUAL BANDS - BAND    249; K    1; EIG -1.1910618E-01 AU
 TTTTTTTTTTTTTTTTTTTTTTTTTTTTTT PDIG        TELAPSE      530.21 TCPU      480.65
 TOTAL ATOMIC CHARGES:
   1.2106741   1.2106741   1.2106741   1.2106741   1.1163412   1.1163412
   1.1163412   1.1163412   1.1463548   1.1463548   1.1463548   1.1463548
   6.1469622   6.1469622   6.1469622   6.1469622   5.7949512   5.7949512
   5.7949512   5.7949512   5.8433888   5.8433888   5.8433888   5.8433888
   5.8322239   5.8322239   5.8322239   5.8322239   5.9976626   5.9976626
   5.9976626   5.9976626   6.0606457   6.0606457   6.0606457   6.0606457
   7.1609800   7.1609800   7.1609800   7.1609800   7.0713129   7.0713129
   7.0713129   7.0713129   7.1578484   7.1578484   7.1578484   7.1578484
   7.0500484   7.0500484   7.0500484   7.0500484   7.0536734   7.0536734
   7.0536734   7.0536734  28.8559087  28.8267739  34.9362618  34.9362618
  34.9362618  34.9362618
 TTTTTTTTTTTTTTTTTTTTTTTTTTTTTT MOQGAD      TELAPSE      530.23 TCPU      480.67
 TTTTTTTTTTTTTTTTTTTTTTTTTTTTTT SHELLXN     TELAPSE      560.68 TCPU      510.80
 TTTTTTTTTTTTTTTTTTTTTTTTTTTTTT MONMO3      TELAPSE      565.05 TCPU      515.15
 NUMERICALLY INTEGRATED DENSITY    495.9996984555
 TTTTTTTTTTTTTTTTTTTTTTTTTTTTTT NUMDFT      TELAPSE      566.96 TCPU      517.05
 CYC  11 ETOT(AU) -1.586514684152E+04 DETOT -2.14E-05 tst  9.44E-08 PX  7.40E-04
 TTTTTTTTTTTTTTTTTTTTTTTTTTTTTT DIIS        TELAPSE      567.16 TCPU      517.25
 DIIS TEST: 0.19956E-04 AT SCF   CYCLE  11 - DIIS ACTIVE - HISTORY:    11 CYCLES
 TTTTTTTTTTTTTTTTTTTTTTTTTTTTTT FDIK        TELAPSE      573.84 TCPU      522.05
 INSULATING STATE
 TOP OF VALENCE BANDS -    BAND    248; K    1; EIG -2.2721370E-01 AU
 BOTTOM OF VIRTUAL BANDS - BAND    249; K    6; EIG -1.2275237E-01 AU
 INDIRECT ENERGY BAND GAP:   2.8425 eV
 BOTTOM OF VIRTUAL BANDS - BAND    249; K    1; EIG -1.1913758E-01 AU
 TTTTTTTTTTTTTTTTTTTTTTTTTTTTTT PDIG        TELAPSE      574.41 TCPU      522.62
 TOTAL ATOMIC CHARGES:
   1.2107303   1.2107303   1.2107303   1.2107303   1.1163822   1.1163822
   1.1163822   1.1163822   1.1463994   1.1463994   1.1463994   1.1463994
   6.1469519   6.1469519   6.1469519   6.1469519   5.7950756   5.7950756
   5.7950756   5.7950756   5.8451262   5.8451262   5.8451262   5.8451262
   5.8325019   5.8325019   5.8325019   5.8325019   5.9966432   5.9966432
   5.9966432   5.9966432   6.0604024   6.0604024   6.0604024   6.0604024
   7.1605471   7.1605471   7.1605471   7.1605471   7.0722356   7.0722356
   7.0722356   7.0722356   7.1571771   7.1571771   7.1571771   7.1571771
   7.0505582   7.0505582   7.0505582   7.0505582   7.0535989   7.0535989
   7.0535989   7.0535989  28.8559317  28.8265281  34.9350550  34.9350550
  34.9350550  34.9350550
 TTTTTTTTTTTTTTTTTTTTTTTTTTTTTT MOQGAD      TELAPSE      574.43 TCPU      522.64
 TTTTTTTTTTTTTTTTTTTTTTTTTTTTTT SHELLXN     TELAPSE      606.89 TCPU      552.69
 TTTTTTTTTTTTTTTTTTTTTTTTTTTTTT MONMO3      TELAPSE      611.32 TCPU      557.10
 NUMERICALLY INTEGRATED DENSITY    495.9996985133
 TTTTTTTTTTTTTTTTTTTTTTTTTTTTTT NUMDFT      TELAPSE      613.22 TCPU      559.00
 CYC  12 ETOT(AU) -1.586514684373E+04 DETOT -2.21E-06 tst  1.13E-08 PX  5.52E-04
 TTTTTTTTTTTTTTTTTTTTTTTTTTTTTT DIIS        TELAPSE      613.40 TCPU      559.17
 DIIS TEST: 0.72592E-05 AT SCF   CYCLE  12 - DIIS ACTIVE - HISTORY:    12 CYCLES
 TTTTTTTTTTTTTTTTTTTTTTTTTTTTTT FDIK        TELAPSE      620.60 TCPU      564.24
 INSULATING STATE
 TOP OF VALENCE BANDS -    BAND    248; K    1; EIG -2.2720156E-01 AU
 BOTTOM OF VIRTUAL BANDS - BAND    249; K    6; EIG -1.2272591E-01 AU
 INDIRECT ENERGY BAND GAP:   2.8429 eV
 BOTTOM OF VIRTUAL BANDS - BAND    249; K    1; EIG -1.1911181E-01 AU
 TTTTTTTTTTTTTTTTTTTTTTTTTTTTTT PDIG        TELAPSE      621.16 TCPU      564.79
 TOTAL ATOMIC CHARGES:
   1.2107057   1.2107057   1.2107057   1.2107057   1.1164697   1.1164697
   1.1164697   1.1164697   1.1464364   1.1464364   1.1464364   1.1464364
   6.1468526   6.1468526   6.1468526   6.1468526   5.7950524   5.7950524
   5.7950524   5.7950524   5.8442996   5.8442996   5.8442996   5.8442996
   5.8321216   5.8321216   5.8321216   5.8321216   5.9971433   5.9971433
   5.9971433   5.9971433   6.0606023   6.0606023   6.0606023   6.0606023
   7.1607818   7.1607818   7.1607818   7.1607818   7.0717145   7.0717145
   7.0717145   7.0717145   7.1573773   7.1573773   7.1573773   7.1573773
   7.0507151   7.0507151   7.0507151   7.0507151   7.0536907   7.0536907
   7.0536907   7.0536907  28.8560353  28.8267542  34.9353394  34.9353394
  34.9353394  34.9353394
 TTTTTTTTTTTTTTTTTTTTTTTTTTTTTT MOQGAD      TELAPSE      621.18 TCPU      564.81
 TTTTTTTTTTTTTTTTTTTTTTTTTTTTTT SHELLXN     TELAPSE      651.64 TCPU      594.92
 TTTTTTTTTTTTTTTTTTTTTTTTTTTTTT MONMO3      TELAPSE      656.03 TCPU      599.29
 NUMERICALLY INTEGRATED DENSITY    495.9996984915
 TTTTTTTTTTTTTTTTTTTTTTTTTTTTTT NUMDFT      TELAPSE      657.93 TCPU      601.18
 CYC  13 ETOT(AU) -1.586514684451E+04 DETOT -7.74E-07 tst  3.19E-09 PX  2.03E-04
 TTTTTTTTTTTTTTTTTTTTTTTTTTTTTT DIIS        TELAPSE      658.08 TCPU      601.33
[...]
  57  30  ZN     30.0000      0.0000     1.37000000
  59  35  BR     35.0000      0.0000     1.14000000

 SIZE OF GRID=    1818564
 TTTTTTTTTTTTTTTTTTTTTTTTTTTTTT MAKE_GRID2  TELAPSE    42912.31 TCPU    42505.50
 BECKE WEIGHT FUNCTION
 RADSAFE =     2.00
 TOLERANCES - DENSITY:10**- 6; POTENTIAL:10**- 9; GRID WGT:10**-14

 RADIAL INTEGRATION  - INTERVALS (POINTS,UPPER LIMIT):            1( 75,  4.0*R)

 ANGULAR INTEGRATION - INTERVALS (ACCURACY LEVEL [N. POINTS] UPPER LIMIT):
  1(  4[  86]   0.2)  2(  8[ 194]   0.5)  3( 12[ 350]   0.9)  4( 16[ 974]   3.5)
  5( 12[ 350]9999.0)
 TTTTTTTTTTTTTTTTTTTTTTTTTTTTTT INT_CALC    TELAPSE    42912.36 TCPU    42505.55
 CYCLE   0   ALPHA 1828.744630  EPSILON    5.514527  DELTA    1.8287E+03
 TTTTTTTTTTTTTTTTTTTTTTTTTTTTTT MOQGAD      TELAPSE    43398.20 TCPU    42988.34
 TTTTTTTTTTTTTTTTTTTTTTTTTTTTTT CP_MONMON   TELAPSE    43407.51 TCPU    42997.55
 DIIS TEST: 0.47325E+03 AT CPHF  CYCLE   1 - MIX    0 %
 CYCLE   1   ALPHA   94.632787  EPSILON    1.233615  DELTA   -1.7341E+03
 TTTTTTTTTTTTTTTTTTTTTTTTTTTTTT MOQGAD      TELAPSE    43895.25 TCPU    43481.50
 TTTTTTTTTTTTTTTTTTTTTTTTTTTTTT CP_MONMON   TELAPSE    43904.55 TCPU    43490.77
 DIIS TEST: 0.45101E+04 AT CPHF  CYCLE   2 - DIIS ACTIVE - HISTORY:     2 CYCLES
 CYCLE   2   ALPHA 1191.577046  EPSILON    3.941584  DELTA    1.0969E+03
 TTTTTTTTTTTTTTTTTTTTTTTTTTTTTT MOQGAD      TELAPSE    44393.19 TCPU    43974.69
 TTTTTTTTTTTTTTTTTTTTTTTTTTTTTT CP_MONMON   TELAPSE    44402.48 TCPU    43983.94
 DIIS TEST: 0.13048E+03 AT CPHF  CYCLE   3 - DIIS ACTIVE - HISTORY:     3 CYCLES
 CYCLE   3   ALPHA 1270.046211  EPSILON    4.135297  DELTA    7.8469E+01
 TTTTTTTTTTTTTTTTTTTTTTTTTTTTTT MOQGAD      TELAPSE    44888.70 TCPU    44466.52
 TTTTTTTTTTTTTTTTTTTTTTTTTTTTTT CP_MONMON   TELAPSE    44897.99 TCPU    44475.78
 DIIS TEST: 0.73669E+01 AT CPHF  CYCLE   4 - DIIS ACTIVE - HISTORY:     4 CYCLES
 CYCLE   4   ALPHA 1293.310804  EPSILON    4.192729  DELTA    2.3265E+01
 TTTTTTTTTTTTTTTTTTTTTTTTTTTTTT MOQGAD      TELAPSE    45384.45 TCPU    44958.44
 TTTTTTTTTTTTTTTTTTTTTTTTTTTTTT CP_MONMON   TELAPSE    45393.73 TCPU    44967.69
 DIIS TEST: 0.24555E+01 AT CPHF  CYCLE   5 - DIIS ACTIVE - HISTORY:     5 CYCLES
 CYCLE   5   ALPHA 1300.110702  EPSILON    4.209516  DELTA    6.7999E+00
 TTTTTTTTTTTTTTTTTTTTTTTTTTTTTT MOQGAD      TELAPSE    45879.55 TCPU    45449.57
 TTTTTTTTTTTTTTTTTTTTTTTTTTTTTT CP_MONMON   TELAPSE    45888.84 TCPU    45458.82
 DIIS TEST: 0.20900E+00 AT CPHF  CYCLE   6 - DIIS ACTIVE - HISTORY:     6 CYCLES
 CYCLE   6   ALPHA 1301.902913  EPSILON    4.213940  DELTA    1.7922E+00
 TTTTTTTTTTTTTTTTTTTTTTTTTTTTTT MOQGAD      TELAPSE    46374.44 TCPU    45940.66
 TTTTTTTTTTTTTTTTTTTTTTTTTTTTTT CP_MONMON   TELAPSE    46383.73 TCPU    45949.92
 DIIS TEST: 0.35964E-01 AT CPHF  CYCLE   7 - DIIS ACTIVE - HISTORY:     7 CYCLES
 CYCLE   7   ALPHA 1302.765690  EPSILON    4.216070  DELTA    8.6278E-01
 TTTTTTTTTTTTTTTTTTTTTTTTTTTTTT MOQGAD      TELAPSE    46869.39 TCPU    46431.42
 TTTTTTTTTTTTTTTTTTTTTTTTTTTTTT CP_MONMON   TELAPSE    46878.74 TCPU    46440.72
 DIIS TEST: 0.40188E-02 AT CPHF  CYCLE   8 - DIIS ACTIVE - HISTORY:     8 CYCLES
 CYCLE   8   ALPHA 1302.849223  EPSILON    4.216276  DELTA    8.3533E-02
 TTTTTTTTTTTTTTTTTTTTTTTTTTTTTT MOQGAD      TELAPSE    47365.65 TCPU    46923.86
 TTTTTTTTTTTTTTTTTTTTTTTTTTTTTT CP_MONMON   TELAPSE    47374.95 TCPU    46933.12
 DIIS TEST: 0.10438E-02 AT CPHF  CYCLE   9 - DIIS ACTIVE - HISTORY:     9 CYCLES
 CYCLE   9   ALPHA 1302.825675  EPSILON    4.216218  DELTA   -2.3548E-02
 TTTTTTTTTTTTTTTTTTTTTTTTTTTTTT MOQGAD      TELAPSE    47862.24 TCPU    47416.26
 TTTTTTTTTTTTTTTTTTTTTTTTTTTTTT CP_MONMON   TELAPSE    47871.54 TCPU    47425.51
 DIIS TEST: 0.29599E-02 AT CPHF  CYCLE  10 - DIIS ACTIVE - HISTORY:    10 CYCLES
 CYCLE  10   ALPHA 1302.825121  EPSILON    4.216217  DELTA   -5.5392E-04
 TTTTTTTTTTTTTTTTTTTTTTTTTTTTTT CP_SC       TELAPSE    47902.11 TCPU    47454.04

 *******************************************************************************

 ELECTRIC FIELD APPLIED ALONG CARTESIAN DIRECTION Z

 *******************************************************************************
 THE NUMBER OF SYMMETRY OPERATORS HAS BEEN REDUCED FROM  4 TO  1

 NEW GRID IN RECIPROCAL SPACE
 *******************************************************************************
 POINTS IN THE IBZ                  14 SHRINKING FACTORS               3  3  3
 *******************************************************************************
 *** K POINTS COORDINATES (OBLIQUE COORDINATES IN UNITS OF SHRINK FAC. )
   1-R(  0  0  0)   2-C(  1  0  0)   3-C(  0  1  2)   4-C(  2  0  1)
   5-C(  0  2  0)   6-C(  1  1  0)   7-C(  1  1  1)   8-C(  1  0  1)
   9-C(  0  1  1)  10-C(  2  1  0)  11-C(  0  0  2)  12-C(  2  1  1)
  13-C(  2  1  2)  14-C(  2  2  1)

 GCALCO - MAX INDICES DIRECT LATTICE VECTOR    14    14    16
 NO.OF VECTORS CREATED 6999 STARS  485 RMAX   204.94740 BOHR
 TTTTTTTTTTTTTTTTTTTTTTTTTTTTTT gordsh1     TELAPSE    47918.53 TCPU    47470.31

 MATRIX SIZE: P(G) 1934676, F(G)  968154, P(G) IRR  969952, F(G) IRR  969952
 MAX G-VECTOR INDEX FOR 1- AND 2-ELECTRON INTEGRALS  59

 TTTTTTTTTTTTTTTTTTTTTTTTTTTTTT INPUT       TELAPSE    47929.52 TCPU    47481.12
 TTTTTTTTTTTTTTTTTTTTTTTTTTTTTT SYMM        TELAPSE    47929.52 TCPU    47481.12

 ***** NEW REFERENCE GEOMETRY *****
 TTTTTTTTTTTTTTTTTTTTTTTTTTTTTT INT_SCREEN  TELAPSE    47929.53 TCPU    47481.13
 INFORMATION **** EXCBUF **** EXCH. BIPO BUFFER: WORDS USED =           0

 DFT PARAMETERS

     ATOM       ELECTRONS   NET CHARGE   R(ANGSTROM)
   1   1  H       1.0000      0.0000     1.11000000
  13   6  C       6.0000      0.0000     0.77000000
  37   7  N       7.0000      0.0000     0.74000000
  57  30  ZN     30.0000      0.0000     1.37000000
  59  35  BR     35.0000      0.0000     1.14000000

 SIZE OF GRID=    1818564
 TTTTTTTTTTTTTTTTTTTTTTTTTTTTTT MAKE_GRID2  TELAPSE    47930.94 TCPU    47482.49
 BECKE WEIGHT FUNCTION
 RADSAFE =     2.00
 TOLERANCES - DENSITY:10**- 6; POTENTIAL:10**- 9; GRID WGT:10**-14

 RADIAL INTEGRATION  - INTERVALS (POINTS,UPPER LIMIT):            1( 75,  4.0*R)

 ANGULAR INTEGRATION - INTERVALS (ACCURACY LEVEL [N. POINTS] UPPER LIMIT):
  1(  4[  86]   0.2)  2(  8[ 194]   0.5)  3( 12[ 350]   0.9)  4( 16[ 974]   3.5)
  5( 12[ 350]9999.0)
 TTTTTTTTTTTTTTTTTTTTTTTTTTTTTT INT_CALC    TELAPSE    47930.99 TCPU    47482.54
 CYCLE   0   ALPHA  752.870737  EPSILON    2.858573  DELTA    7.5287E+02
 TTTTTTTTTTTTTTTTTTTTTTTTTTTTTT MOQGAD      TELAPSE    48425.21 TCPU    47973.78
 TTTTTTTTTTTTTTTTTTTTTTTTTTTTTT CP_MONMON   TELAPSE    48434.50 TCPU    47983.03
 DIIS TEST: 0.83342E+02 AT CPHF  CYCLE   1 - MIX    0 %
 CYCLE   1   ALPHA  403.397612  EPSILON    1.995847  DELTA   -3.4947E+02
 TTTTTTTTTTTTTTTTTTTTTTTTTTTTTT MOQGAD      TELAPSE    48932.22 TCPU    48476.97
 TTTTTTTTTTTTTTTTTTTTTTTTTTTTTT CP_MONMON   TELAPSE    48941.52 TCPU    48486.22
 DIIS TEST: 0.55877E+03 AT CPHF  CYCLE   2 - DIIS ACTIVE - HISTORY:     2 CYCLES
 CYCLE   2   ALPHA  558.814414  EPSILON    2.379516  DELTA    1.5542E+02
 TTTTTTTTTTTTTTTTTTTTTTTTTTTTTT MOQGAD      TELAPSE    49440.09 TCPU    48980.80
 TTTTTTTTTTTTTTTTTTTTTTTTTTTTTT CP_MONMON   TELAPSE    49449.37 TCPU    48990.04
 DIIS TEST: 0.37049E+02 AT CPHF  CYCLE   3 - DIIS ACTIVE - HISTORY:     3 CYCLES
 CYCLE   3   ALPHA  598.451778  EPSILON    2.477367  DELTA    3.9637E+01
 TTTTTTTTTTTTTTTTTTTTTTTTTTTTTT MOQGAD      TELAPSE    49948.17 TCPU    49485.19
 TTTTTTTTTTTTTTTTTTTTTTTTTTTTTT CP_MONMON   TELAPSE    49957.44 TCPU    49494.43
 DIIS TEST: 0.36294E+01 AT CPHF  CYCLE   4 - DIIS ACTIVE - HISTORY:     4 CYCLES
 CYCLE   4   ALPHA  599.513714  EPSILON    2.479988  DELTA    1.0619E+00
 TTTTTTTTTTTTTTTTTTTTTTTTTTTTTT MOQGAD      TELAPSE    50454.90 TCPU    49988.16
 TTTTTTTTTTTTTTTTTTTTTTTTTTTTTT CP_MONMON   TELAPSE    50464.17 TCPU    49997.39
 DIIS TEST: 0.17335E+00 AT CPHF  CYCLE   5 - DIIS ACTIVE - HISTORY:     5 CYCLES
 CYCLE   5   ALPHA  599.992798  EPSILON    2.481171  DELTA    4.7908E-01
 TTTTTTTTTTTTTTTTTTTTTTTTTTTTTT MOQGAD      TELAPSE    50962.63 TCPU    50492.04
 TTTTTTTTTTTTTTTTTTTTTTTTTTTTTT CP_MONMON   TELAPSE    50971.91 TCPU    50501.28
 DIIS TEST: 0.39963E-01 AT CPHF  CYCLE   6 - DIIS ACTIVE - HISTORY:     6 CYCLES
 CYCLE   6   ALPHA  600.170744  EPSILON    2.481610  DELTA    1.7795E-01
 TTTTTTTTTTTTTTTTTTTTTTTTTTTTTT MOQGAD      TELAPSE    51470.78 TCPU    50996.35
 TTTTTTTTTTTTTTTTTTTTTTTTTTTTTT CP_MONMON   TELAPSE    51480.05 TCPU    51005.59
 DIIS TEST: 0.99678E-02 AT CPHF  CYCLE   7 - DIIS ACTIVE - HISTORY:     7 CYCLES
 CYCLE   7   ALPHA  600.206612  EPSILON    2.481699  DELTA    3.5868E-02
 TTTTTTTTTTTTTTTTTTTTTTTTTTTTTT MOQGAD      TELAPSE    51978.32 TCPU    51500.22
 TTTTTTTTTTTTTTTTTTTTTTTTTTTTTT CP_MONMON   TELAPSE    51987.61 TCPU    51509.48
 DIIS TEST: 0.39086E-02 AT CPHF  CYCLE   8 - DIIS ACTIVE - HISTORY:     8 CYCLES
 CYCLE   8   ALPHA  600.203891  EPSILON    2.481692  DELTA   -2.7209E-03
 TTTTTTTTTTTTTTTTTTTTTTTTTTTTTT MOQGAD      TELAPSE    52486.42 TCPU    52004.41
 TTTTTTTTTTTTTTTTTTTTTTTTTTTTTT CP_MONMON   TELAPSE    52495.70 TCPU    52013.65
 DIIS TEST: 0.63822E-02 AT CPHF  CYCLE   9 - DIIS ACTIVE - HISTORY:     9 CYCLES
 CYCLE   9   ALPHA  600.203222  EPSILON    2.481691  DELTA   -6.6857E-04
 TTTTTTTTTTTTTTTTTTTTTTTTTTTTTT CP_SC       TELAPSE    52520.79 TCPU    52037.13

 *******************************************************************************

 POLARIZABILITY (ALPHA), DIELECTRIC (EPSILON) AND FIRST-ORDER ELECTRIC
 SUSCEPTIBILITY (CHI(1)) TENSORS (INDEPENDENT COMPONENTS)

  FR.(eV) COMP.   ALPHA(Re,Im)           EPSILON(Re,Im)                CHI(1)
  2.331   XX    1302.7550       0.0000       4.2160       0.0000       3.2160
  2.331   XY      -0.0010       0.0000      -0.0000       0.0000      -0.0000
  2.331   XZ       0.0000       0.0000       0.0000       0.0000       0.0000
  2.331   YY    1302.8251       0.0000       4.2162       0.0000       3.2162
  2.331   YZ       0.0000       0.0000       0.0000       0.0000       0.0000
  2.331   ZZ     600.2032       0.0000       2.4817       0.0000       1.4817

 DIELECTRIC TENSOR

 TENSOR IN PRINCIPAL AXES SYSTEM
 AA  4.216044E+00 BB  4.216217E+00 CC  2.481691E+00

 REFRACTIVE INDICES 
 AA  1.575338E+00 BB  2.053301E+00 CC  2.053343E+00

 OPTICALLY ANISOTROPIC - BIAXIAL CRYSTAL

 ACUTE ANGLE BETWEEN OPTIC AXES (DEGREES)
 2V=   0.87870
 BIAXIAL NEGATIVE: 2V ANGLE BISECTED BY THE SMALLEST REFRACTIVE INDEX (AA)

 ANGLES BETWEEN OPTICAL AND BASIS LATTICE VECTORS (DEGREES)
             A1           A2           A3
 O.A. 1    90.0062      90.4393       0.4394
 O.A. 2    90.0062      90.4393     179.5606

 EPSILON=N**2=1+CHI(1)=1+ALPHA*4*PI/V,   4*PI/V=   0.00247 BOHR**(-3)
 ALPHA IN BOHR**3; EPSILON AND CHI(1) ARE DIMENSIONLESS.
 *******************************************************************************


  Pockels Effect beta(-omega;omega,0) with omega=   1.1653 eV


 SIZE OF GRID=    1818564
 TTTTTTTTTTTTTTTTTTTTTTTTTTTTTT MAKE_GRID2  TELAPSE    52645.78 TCPU    52161.43
 BECKE WEIGHT FUNCTION
 RADSAFE =     2.00
 TOLERANCES - DENSITY:10**- 6; POTENTIAL:10**- 9; GRID WGT:10**-14

 RADIAL INTEGRATION  - INTERVALS (POINTS,UPPER LIMIT):            1( 75,  4.0*R)

 ANGULAR INTEGRATION - INTERVALS (ACCURACY LEVEL [N. POINTS] UPPER LIMIT):
  1(  4[  86]   0.2)  2(  8[ 194]   0.5)  3( 12[ 350]   0.9)  4( 16[ 974]   3.5)
  5( 12[ 350]9999.0)

 SIZE OF GRID=    1818564
 TTTTTTTTTTTTTTTTTTTTTTTTTTTTTT MAKE_GRID2  TELAPSE    52647.77 TCPU    52162.93
 BECKE WEIGHT FUNCTION
 RADSAFE =     2.00
 TOLERANCES - DENSITY:10**- 6; POTENTIAL:10**- 9; GRID WGT:10**-14

 RADIAL INTEGRATION  - INTERVALS (POINTS,UPPER LIMIT):            1( 75,  4.0*R)

 ANGULAR INTEGRATION - INTERVALS (ACCURACY LEVEL [N. POINTS] UPPER LIMIT):
  1(  4[  86]   0.2)  2(  8[ 194]   0.5)  3( 12[ 350]   0.9)  4( 16[ 974]   3.5)
  5( 12[ 350]9999.0)
 *******************************************************************************

 DC-POCKELS AND SECOND ELECTRIC SUSCEPTIBILITY (CHI(2))
 TENSORS (INDEPENDENT COMPONENTS)

BETA                                         CHI(2)       d(MKS)       d(cgs)
 *******************************************************************************

     XXX         -0.2953E-02  -0.3645E-05  -0.3544E-05  -0.8456E-07
     XXY         -0.6442E-03  -0.7952E-06  -0.7732E-06  -0.1845E-07
     XXZ          0.1660E+04   0.2049E+01   0.1993E+01   0.4754E-01
     XYX          0.2076E-01   0.2563E-04   0.2492E-04   0.5945E-06
     XYY         -0.1365E-02  -0.1685E-05  -0.1638E-05  -0.3909E-07
     XYZ          0.6608E+03   0.8156E+00   0.7931E+00   0.1892E-01
     XZX          0.1630E+04   0.2012E+01   0.1957E+01   0.4668E-01
     XZY          0.6835E+03   0.8437E+00   0.8204E+00   0.1957E-01
     XZZ         -0.2649E-01  -0.3269E-04  -0.3179E-04  -0.7584E-06
     YXX          0.2074E-01   0.2560E-04   0.2489E-04   0.5937E-06
     YXY         -0.1411E-02  -0.1742E-05  -0.1694E-05  -0.4041E-07
     YXZ          0.6608E+03   0.8156E+00   0.7931E+00   0.1892E-01
     YYX         -0.1493E-03  -0.1843E-06  -0.1792E-06  -0.4274E-08
     YYY          0.4128E-01   0.5095E-04   0.4954E-04   0.1182E-05
     YYZ         -0.1660E+04  -0.2049E+01  -0.1993E+01  -0.4754E-01
     YZX          0.6835E+03   0.8437E+00   0.8204E+00   0.1957E-01
     YZY         -0.1630E+04  -0.2012E+01  -0.1957E+01  -0.4668E-01
     YZZ          0.3083E-01   0.3806E-04   0.3700E-04   0.8828E-06
     ZXX          0.1630E+04   0.2012E+01   0.1956E+01   0.4668E-01
     ZXY          0.6835E+03   0.8437E+00   0.8204E+00   0.1957E-01
     ZXZ         -0.2650E-01  -0.3271E-04  -0.3181E-04  -0.7588E-06
     ZYX          0.6835E+03   0.8437E+00   0.8204E+00   0.1957E-01
     ZYY         -0.1630E+04  -0.2012E+01  -0.1957E+01  -0.4668E-01
     ZYZ          0.3084E-01   0.3806E-04   0.3701E-04   0.8830E-06
     ZZX         -0.5689E-04  -0.7022E-07  -0.6828E-07  -0.1629E-08
     ZZY          0.5584E-05   0.6892E-08   0.6701E-08   0.1599E-09
     ZZZ         -0.7595E-01  -0.9375E-04  -0.9115E-04  -0.2175E-05
 *******************************************************************************
 CHI(2) = BETA*2PI/V

 BETA AND CHI(2) IN A.U.:    [BETA] = M**(-1/2) L**(7/2) T
                             [CHI(2)] = 1/F
                             (L=LENGTH, M=MASS, T=TIME, F=FIELD INTENSITY)

 ELECTRIC SUSCEPTIBILITY IN THE SECOND HARMONIC GENERATION (SHG) CONVENTION IS:
                   d(A.U.)= 1/2 CHI(2)
                   d(MKS) = d(A.U.)/0.514220632 pm/V
                   d(CGS) = d(A.U.)/(4PI*1.7152535)  10**(-7) esu

 FIELD INTENSITY: 1 A.U. = 0.514220632*10**(11) V/m = 1.7152535*10**7 esu
 BEWARE:                CHI(2)=P/(E0*F**2)   (MKS)
                        CHI(2)=P/F**2        (CGS)
 WHERE P IS THE POLARIZATION VECTOR AND F IS THE APPLIED ELECTRIC FIELD.
 CONSISTENCY IS  PRESERVED BY MULTIPLYING THE CGS VALUE TIMES THE PERMITTIVITY
 OF THE VACUUM, E0 (CONVERSION FACTORS FROM www.physics.nist.gov/constants).
 IN PARENTHESIS: BETA BEFORE SYMMETRIZATION.

  SHG Effect beta(-2omega;omega,omega) with omega=   1.1653 eV


 SIZE OF GRID=    1818564
 TTTTTTTTTTTTTTTTTTTTTTTTTTTTTT MAKE_GRID2  TELAPSE    52820.66 TCPU    52335.22
 BECKE WEIGHT FUNCTION
 RADSAFE =     2.00
 TOLERANCES - DENSITY:10**- 6; POTENTIAL:10**- 9; GRID WGT:10**-14

 RADIAL INTEGRATION  - INTERVALS (POINTS,UPPER LIMIT):            1( 75,  4.0*R)

 ANGULAR INTEGRATION - INTERVALS (ACCURACY LEVEL [N. POINTS] UPPER LIMIT):
  1(  4[  86]   0.2)  2(  8[ 194]   0.5)  3( 12[ 350]   0.9)  4( 16[ 974]   3.5)
  5( 12[ 350]9999.0)

 SIZE OF GRID=    1818564
 TTTTTTTTTTTTTTTTTTTTTTTTTTTTTT MAKE_GRID2  TELAPSE    52822.12 TCPU    52336.67
 BECKE WEIGHT FUNCTION
 RADSAFE =     2.00
 TOLERANCES - DENSITY:10**- 6; POTENTIAL:10**- 9; GRID WGT:10**-14

 RADIAL INTEGRATION  - INTERVALS (POINTS,UPPER LIMIT):            1( 75,  4.0*R)

 ANGULAR INTEGRATION - INTERVALS (ACCURACY LEVEL [N. POINTS] UPPER LIMIT):
  1(  4[  86]   0.2)  2(  8[ 194]   0.5)  3( 12[ 350]   0.9)  4( 16[ 974]   3.5)
  5( 12[ 350]9999.0)
 *******************************************************************************

 SECOND HARMONIC GENERATION (SHG)  AND SECOND ELECTRIC SUSCEPTIBILITY (CHI(2))
 TENSORS (INDEPENDENT COMPONENTS)

BETA                                         CHI(2)       d(MKS)       d(cgs)
 *******************************************************************************

     XXX          0.3377E-02   0.4168E-05   0.4052E-05   0.9668E-07
     XXY          0.2284E-01   0.2819E-04   0.2741E-04   0.6539E-06
     XXZ          0.3513E+04   0.4336E+01   0.4216E+01   0.1006E+00
     XYX          0.2284E-01   0.2819E-04   0.2741E-04   0.6539E-06
     XYY          0.2601E-03   0.3210E-06   0.3121E-06   0.7446E-08
     XYZ          0.1604E+04   0.1980E+01   0.1926E+01   0.4594E-01
     XZX          0.3513E+04   0.4336E+01   0.4216E+01   0.1006E+00
     XZY          0.1604E+04   0.1980E+01   0.1926E+01   0.4594E-01
     XZZ          0.7728E-04   0.9539E-07   0.9276E-07   0.2213E-08
     YXX          0.1982E-01   0.2446E-04   0.2379E-04   0.5674E-06
     YXY          0.1936E-02   0.2390E-05   0.2324E-05   0.5544E-07
     YXZ          0.1605E+04   0.1981E+01   0.1926E+01   0.4594E-01
     YYX          0.1936E-02   0.2390E-05   0.2324E-05   0.5544E-07
     YYY          0.6667E-01   0.8229E-04   0.8002E-04   0.1909E-05
     YYZ         -0.3513E+04  -0.4336E+01  -0.4216E+01  -0.1006E+00
     YZX          0.1605E+04   0.1981E+01   0.1926E+01   0.4594E-01
     YZY         -0.3513E+04  -0.4336E+01  -0.4216E+01  -0.1006E+00
     YZZ          0.2956E-01   0.3649E-04   0.3548E-04   0.8464E-06
     ZXX          0.3484E+04   0.4300E+01   0.4181E+01   0.9974E-01
     ZXY          0.1767E+04   0.2182E+01   0.2121E+01   0.5061E-01
     ZXZ         -0.2719E-01  -0.3356E-04  -0.3263E-04  -0.7784E-06
     ZYX          0.1767E+04   0.2182E+01   0.2121E+01   0.5061E-01
     ZYY         -0.3484E+04  -0.4300E+01  -0.4181E+01  -0.9974E-01
     ZYZ          0.3269E-01   0.4034E-04   0.3923E-04   0.9359E-06
     ZZX         -0.2719E-01  -0.3356E-04  -0.3263E-04  -0.7784E-06
     ZZY          0.3269E-01   0.4034E-04   0.3923E-04   0.9359E-06
     ZZZ         -0.1322E+00  -0.1631E-03  -0.1586E-03  -0.3784E-05
 *******************************************************************************
 CHI(2) = BETA*2PI/V

 BETA AND CHI(2) IN A.U.:    [BETA] = M**(-1/2) L**(7/2) T
                             [CHI(2)] = 1/F
                             (L=LENGTH, M=MASS, T=TIME, F=FIELD INTENSITY)

 ELECTRIC SUSCEPTIBILITY IN THE SECOND HARMONIC GENERATION (SHG) CONVENTION IS:
                   d(A.U.)= 1/2 CHI(2)
                   d(MKS) = d(A.U.)/0.514220632 pm/V
                   d(CGS) = d(A.U.)/(4PI*1.7152535)  10**(-7) esu

 FIELD INTENSITY: 1 A.U. = 0.514220632*10**(11) V/m = 1.7152535*10**7 esu
 BEWARE:                CHI(2)=P/(E0*F**2)   (MKS)
                        CHI(2)=P/F**2        (CGS)
 WHERE P IS THE POLARIZATION VECTOR AND F IS THE APPLIED ELECTRIC FIELD.
 CONSISTENCY IS  PRESERVED BY MULTIPLYING THE CGS VALUE TIMES THE PERMITTIVITY
 OF THE VACUUM, E0 (CONVERSION FACTORS FROM www.physics.nist.gov/constants).
 IN PARENTHESIS: BETA BEFORE SYMMETRIZATION.

 *******************************************************************************


 GCALCO - MAX INDICES DIRECT LATTICE VECTOR    14    14    16
 NO.OF VECTORS CREATED 6999 STARS  485 RMAX   204.94740 BOHR

 CAPPA:IS1  3;IS2  3;IS3  3; K PTS MONK NET   6; SYMMOPS:K SPACE   8;G SPACE   4

 TTTTTTTTTTTTTTTTTTTTTTTTTTTTTT END         TELAPSE    52822.29 TCPU    52336.83
 EEEEEEEEEE TERMINATION  DATE 22 01 2024 TIME 12:03:24.5
NODE    0 CPU TIME =     52336.828
    TOTAL CPU TIME =   3351696.804
trying normal rsh (/usr/bin/rsh)
exec: No such file or directory
trying normal rsh (/usr/bin/rsh)
exec: No such file or directory
trying normal rsh (/usr/bin/rsh)
exec: No such file or directory
trying normal rsh (/usr/bin/rsh)
exec: No such file or directory
