Loading crystal17/1.0.2/intel/19.0
  Loading requirement: intel/19.0 ompi/4.0.1/intel/19.0
          64 PROCESSORS WORKING

         
 *******************************************************************************
 *                                                                             *
 *                               CRYSTAL17                                     *
 *                      public : 1.0.2 - March 1st, 2018                       *
 *                       HTTP://WWW.CRYSTAL.UNITO.IT                           *
 *                                                                             *
 *                              MAIN AUTHORS                                   *
 *                                                                             *
 *  R. DOVESI(1,11), V.R. SAUNDERS(2), C. ROETTI(1,11), R. ORLANDO(1,11),      *
 *  C.M. ZICOVICH-WILSON(1,3), F. PASCALE(4), B. CIVALLERI(1,11),              *
 *  K. DOLL(5), N.M. HARRISON(2,6), I.J. BUSH(7), Ph. D'ARCO(8),               *
 *  M. LLUNELL(9), M. CAUSA'(10), Y. NOEL(8), L. MASCHIO(1,11), A. ERBA(1,11)  *
 *  M. RE'RAT(14), S. CASASSA(1,11)                                            *
 *                                                                             *
 *        CONTRIBUTIONS TO THE CODE HAVE ALSO BEEN GIVEN BY                    *
 *                                                                             *
 *  M. FERRABONE(1,11), M. DE LA PIERRE(1,11), M. FERRERO(1,11),               *
 *  J. BAIMA(1,11), E. ALBANESE(1,11), M.F. PEINTINGER(12), R. BAST(13),       *
 *  B. KIRTMAN(15), V. LACIVITA(1,11), R. DEMICHELIS(1,16)                     *
 *  G. BRANDEBURG(17), S. SALUSTRO(1,11), G. SANSONE(1,11)                     *
 *  M.T. RUGGIERO(18)                                                          *
 *                                                                             *
 * (1) THEORETICAL CHEMISTRY GROUP - UNIVERSITA' DI TORINO - TORINO (ITALY)    *
 * (2) COMPUTATIONAL SCIENCE & ENGINEERING DEPARTMENT - STFC DARESBURY (UK)    *
 * (3) UNIVERSIDAD AUTONOMA DEL ESTADO DE MORELOS - CUERNAVACA (MEXICO)        *
 * (4) UNIVERSITE' DE LORRAINE - NANCY (FRANCE)                                *
 * (5) UNIVERSITAET STUTTGART- STUTTGART (GERMANY)                             *
 * (6) IMPERIAL COLLEGE - LONDON (UK)                                          *
 * (7) OXFORD E-RESEARCH CENTRE - OXFORD (UK)                                  *
 * (8) UPMC - SORBONNE UNIVERSITES - PARIS (FRANCE)                            *
 * (9) UNIVERSIDAD DE BARCELONA - BARCELONA (SPAIN)                            *
 *(10) UNIVERSITA' DI NAPOLI "FEDERICO II" - NAPOLI (ITALY)                    *
 *(11) NIS - NANOSTRUCTURED INTERFACES AND SURFACES - TORINO (ITALY)           *
 *(12) MPI FUER CHEMISCHE ENERGIEKONVERSION - MUELHEIM AN DER RUHR (GERMANY)   *
 *(13) UNIVERSITY OF TROMSO - TROMSO (NORWAY)                                  *
 *(14) UNIVERSITE' DE PAU ET DES PAYS DE L'ADOUR - PAU (FRANCE)                *
 *(15) UNIVERSITY OF CALIFORNIA SANTA BARBARA - SANTA BARBARA (USA)            *
 *(16) CURTIN UNIVERSITY - PERTH (AUSTRALIA)                                   *
 *(17) UNIVERSITY COLLEGE LONDON - LONDON (UK)                                 *
 *(18) CAMBRIDGE UNIVERSITY - CAMBRIDGE (UK)                                   *
 *                                                                             *
 *******************************************************************************
 EEEEEEEEEE STARTING  DATE 21 01 2024 TIME 21:24:03.7
 Z:\home\sanoj\Downloads\tmp_p\newconn.mol                                       

 CRYSTAL CALCULATION
 (INPUT ACCORDING TO THE INTERNATIONAL TABLES FOR X-RAY CRYSTALLOGRAPHY)
 CRYSTAL FAMILY                       :  TETRAGONAL  
 CRYSTAL CLASS  (GROTH - 1921)        :  TETRAGONAL DISPHENOIDAL              

 SPACE GROUP (NONCENTROSYMMETRIC)     :  I -4            

 LATTICE PARAMETERS  (ANGSTROMS AND DEGREES) - CONVENTIONAL CELL
        A           B           C        ALPHA        BETA       GAMMA
     9.94672     9.94672    14.96659    90.00000    90.00000    90.00000


 NUMBER OF IRREDUCIBLE ATOMS IN THE CONVENTIONAL CELL:   17

 INPUT COORDINATES

 ATOM AT. N.              COORDINATES
   1   1     7.435400000000E-01  4.508900000000E-01  1.644400000000E-01
   2   1    -1.047000000000E-02  3.998500000000E-01  1.922600000000E-01
   3   1     6.947000000000E-02  1.598100000000E-01  1.790300000000E-01
   4   6     6.992600000000E-01  2.452000000000E-01  1.264600000000E-01
   5   6     5.525300000000E-01  2.555300000000E-01  1.283100000000E-01
   6   6     7.840300000000E-01  3.495100000000E-01  1.554500000000E-01
   7   6    -3.397000000000E-02  1.891800000000E-01  1.631200000000E-01
   8   6     7.629200000000E-01  1.225700000000E-01  1.056500000000E-01
   9   6     8.074000000000E-02  6.786700000000E-01  1.723400000000E-01
  10   7     4.742100000000E-01  1.772500000000E-01  1.817800000000E-01
  11   7     3.450600000000E-01  2.257700000000E-01  1.743300000000E-01
  12   7     4.740500000000E-01  3.478000000000E-01  8.739000000000E-02
  13   7     3.444100000000E-01  3.279200000000E-01  1.182900000000E-01
  14   7     8.879600000000E-01  9.290000000000E-02  1.274300000000E-01
  15  30     0.000000000000E+00  5.000000000000E-01  7.500000000000E-01
  16  30     0.000000000000E+00  0.000000000000E+00  5.000000000000E-01
  17  35     6.711500000000E-01  3.100000000000E-04  3.007000000000E-02

 *******************************************************************************

 << INFORMATION >>: FROM NOW ON, ALL COORDINATES REFER TO THE PRIMITIVE CELL

 *******************************************************************************

 LATTICE PARAMETERS  (ANGSTROMS AND DEGREES) - PRIMITIVE CELL
       A          B          C        ALPHA      BETA     GAMMA        VOLUME
   10.26978   10.26978   10.26978   122.07048 122.07048  86.44974    740.377021

 COORDINATES OF THE EQUIVALENT ATOMS (FRACTIONAL UNITS)

 N. ATOM EQUIV AT. N.          X                  Y                  Z

   1   1   1    1 H    -3.84670000000E-01 -9.20200000000E-02  1.94430000000E-01
   2   1   2    1 H    -2.86450000000E-01  4.20900000000E-01 -1.94430000000E-01
   3   1   3    1 H     9.20200000000E-02  2.86450000000E-01 -2.92650000000E-01
   4   1   4    1 H    -4.20900000000E-01  3.84670000000E-01  2.92650000000E-01

   5   2   1    1 H    -4.07890000000E-01  1.81790000000E-01  3.89380000000E-01
   6   2   2    1 H    -2.07590000000E-01  2.02730000000E-01 -3.89380000000E-01
   7   2   3    1 H    -1.81790000000E-01  2.07590000000E-01  4.10320000000E-01
   8   2   4    1 H    -2.02730000000E-01  4.07890000000E-01 -4.10320000000E-01

   9   3   1    1 H     3.38840000000E-01  2.48500000000E-01  2.29280000000E-01
  10   3   2    1 H     1.92200000000E-02  1.09560000000E-01 -2.29280000000E-01
  11   3   3    1 H    -2.48500000000E-01 -1.92200000000E-02  9.03400000000E-02
  12   3   4    1 H    -1.09560000000E-01 -3.38840000000E-01 -9.03400000000E-02

  13   4   1    6 C     3.71660000000E-01 -1.74280000000E-01 -5.55400000000E-02
  14   4   2    6 C    -1.18740000000E-01  4.27200000000E-01  5.55400000000E-02
  15   4   3    6 C     1.74280000000E-01  1.18740000000E-01 -4.54060000000E-01
  16   4   4    6 C    -4.27200000000E-01 -3.71660000000E-01  4.54060000000E-01

  17   5   1    6 C     3.83840000000E-01 -3.19160000000E-01 -1.91940000000E-01
  18   5   2    6 C    -1.27220000000E-01 -4.24220000000E-01  1.91940000000E-01
  19   5   3    6 C     3.19160000000E-01  1.27220000000E-01 -2.97000000000E-01
  20   5   4    6 C     4.24220000000E-01 -3.83840000000E-01  2.97000000000E-01

  21   6   1    6 C    -4.95040000000E-01 -6.05200000000E-02  1.33540000000E-01
  22   6   2    6 C    -1.94060000000E-01  3.71420000000E-01 -1.33540000000E-01
  23   6   3    6 C     6.05200000000E-02  1.94060000000E-01 -4.34520000000E-01
  24   6   4    6 C    -3.71420000000E-01  4.95040000000E-01  4.34520000000E-01

  25   7   1    6 C     3.52300000000E-01  1.29150000000E-01  1.55210000000E-01
  26   7   2    6 C    -2.60600000000E-02  1.97090000000E-01 -1.55210000000E-01
  27   7   3    6 C    -1.29150000000E-01  2.60600000000E-02  2.23150000000E-01
  28   7   4    6 C    -1.97090000000E-01 -3.52300000000E-01 -2.23150000000E-01

  29   8   1    6 C     2.28220000000E-01 -1.31430000000E-01 -1.14510000000E-01
  30   8   2    6 C    -1.69200000000E-02  3.42730000000E-01  1.14510000000E-01
  31   8   3    6 C     1.31430000000E-01  1.69200000000E-02  3.59650000000E-01
  32   8   4    6 C    -3.42730000000E-01 -2.28220000000E-01 -3.59650000000E-01

  33   9   1    6 C    -1.48990000000E-01  2.53080000000E-01 -2.40590000000E-01
  34   9   2    6 C     4.93670000000E-01  9.16000000000E-02  2.40590000000E-01
  35   9   3    6 C    -2.53080000000E-01 -4.93670000000E-01 -4.02070000000E-01
  36   9   4    6 C    -9.16000000000E-02  1.48990000000E-01  4.02070000000E-01

  37  10   1    7 N     3.59030000000E-01 -3.44010000000E-01 -3.48540000000E-01
  38  10   2    7 N     4.53000000000E-03 -2.92430000000E-01  3.48540000000E-01
  39  10   3    7 N     3.44010000000E-01 -4.53000000000E-03 -2.96960000000E-01
  40  10   4    7 N     2.92430000000E-01 -3.59030000000E-01  2.96960000000E-01

  41  11   1    7 N     4.00100000000E-01 -4.80610000000E-01 -4.29170000000E-01
  42  11   2    7 N    -5.14400000000E-02 -1.70730000000E-01  4.29170000000E-01
  43  11   3    7 N     4.80610000000E-01  5.14400000000E-02 -1.19290000000E-01
  44  11   4    7 N     1.70730000000E-01 -4.00100000000E-01  1.19290000000E-01

  45  12   1    7 N     4.35190000000E-01 -4.38560000000E-01 -1.78150000000E-01
  46  12   2    7 N    -2.60410000000E-01 -3.86660000000E-01  1.78150000000E-01
  47  12   3    7 N     4.38560000000E-01  2.60410000000E-01 -1.26250000000E-01
  48  12   4    7 N     3.86660000000E-01 -4.35190000000E-01  1.26250000000E-01

  49  13   1    7 N     4.46210000000E-01  4.62700000000E-01 -3.27670000000E-01
  50  13   2    7 N    -2.09630000000E-01 -2.26120000000E-01  3.27670000000E-01
  51  13   3    7 N    -4.62700000000E-01  2.09630000000E-01 -1.64900000000E-02
  52  13   4    7 N     2.26120000000E-01 -4.46210000000E-01  1.64900000000E-02

  53  14   1    7 N     2.20330000000E-01  1.53900000000E-02 -1.91400000000E-02
  54  14   2    7 N     3.45300000000E-02  2.39470000000E-01  1.91400000000E-02
  55  14   3    7 N    -1.53900000000E-02 -3.45300000000E-02  2.04940000000E-01
  56  14   4    7 N    -2.39470000000E-01 -2.20330000000E-01 -2.04940000000E-01

  57  15   1   30 ZN    2.50000000000E-01 -2.50000000000E-01 -5.00000000000E-01

  58  16   1   30 ZN   -5.00000000000E-01 -5.00000000000E-01  0.00000000000E+00

  59  17   1   35 BR    3.03800000000E-02 -2.98780000000E-01 -3.28540000000E-01
  60  17   2   35 BR    2.97600000000E-02  3.58920000000E-01  3.28540000000E-01
  61  17   3   35 BR    2.98780000000E-01 -2.97600000000E-02  3.29160000000E-01
  62  17   4   35 BR   -3.58920000000E-01 -3.03800000000E-02 -3.29160000000E-01

 NUMBER OF SYMMETRY OPERATORS         :    4
 *******************************************************************************
 * GEOMETRY EDITING - INPUT COORDINATES ARE GIVEN IN ANGSTROM         
 *******************************************************************************

 GEOMETRY NOW FULLY CONSISTENT WITH THE GROUP

 GCALCO - MAX INDICES DIRECT LATTICE VECTOR    14    14    16
 NO.OF VECTORS CREATED 6999 STARS  475 RMAX   203.30522 BOHR

 GEOMETRY FOR WAVE FUNCTION - DIMENSIONALITY OF THE SYSTEM    3
 (NON PERIODIC DIRECTION: LATTICE PARAMETER FORMALLY SET TO 500)
 *******************************************************************************
 LATTICE PARAMETERS (ANGSTROMS AND DEGREES) - BOHR = 0.5291772083 ANGSTROM
 PRIMITIVE CELL - CENTRING CODE 6/0 VOLUME=   740.377021 - DENSITY  2.296 g/cm^3
         A              B              C           ALPHA      BETA       GAMMA 
    10.26977818    10.26977818    10.26977818   122.070477 122.070477  86.449744
 *******************************************************************************
 ATOMS IN THE ASYMMETRIC UNIT   17 - ATOMS IN THE UNIT CELL:   62
     ATOM                 X/A                 Y/B                 Z/C    
 *******************************************************************************
      1 T   1 H    -3.846700000000E-01 -9.202000000000E-02  1.944300000000E-01
      2 F   1 H    -2.864500000000E-01  4.209000000000E-01 -1.944300000000E-01
      3 F   1 H     9.202000000000E-02  2.864500000000E-01 -2.926500000000E-01
      4 F   1 H    -4.209000000000E-01  3.846700000000E-01  2.926500000000E-01
      5 T   1 H    -4.078900000000E-01  1.817900000000E-01  3.893800000000E-01
      6 F   1 H    -2.075900000000E-01  2.027300000000E-01 -3.893800000000E-01
      7 F   1 H    -1.817900000000E-01  2.075900000000E-01  4.103200000000E-01
      8 F   1 H    -2.027300000000E-01  4.078900000000E-01 -4.103200000000E-01
      9 T   1 H     3.388400000000E-01  2.485000000000E-01  2.292800000000E-01
     10 F   1 H     1.922000000000E-02  1.095600000000E-01 -2.292800000000E-01
     11 F   1 H    -2.485000000000E-01 -1.922000000000E-02  9.034000000000E-02
     12 F   1 H    -1.095600000000E-01 -3.388400000000E-01 -9.034000000000E-02
     13 T   6 C     3.716600000000E-01 -1.742800000000E-01 -5.554000000000E-02
     14 F   6 C    -1.187400000000E-01  4.272000000000E-01  5.554000000000E-02
     15 F   6 C     1.742800000000E-01  1.187400000000E-01 -4.540600000000E-01
     16 F   6 C    -4.272000000000E-01 -3.716600000000E-01  4.540600000000E-01
     17 T   6 C     3.838400000000E-01 -3.191600000000E-01 -1.919400000000E-01
     18 F   6 C    -1.272200000000E-01 -4.242200000000E-01  1.919400000000E-01
     19 F   6 C     3.191600000000E-01  1.272200000000E-01 -2.970000000000E-01
     20 F   6 C     4.242200000000E-01 -3.838400000000E-01  2.970000000000E-01
     21 T   6 C    -4.950400000000E-01 -6.052000000000E-02  1.335400000000E-01
     22 F   6 C    -1.940600000000E-01  3.714200000000E-01 -1.335400000000E-01
     23 F   6 C     6.052000000000E-02  1.940600000000E-01 -4.345200000000E-01
     24 F   6 C    -3.714200000000E-01  4.950400000000E-01  4.345200000000E-01
     25 T   6 C     3.523000000000E-01  1.291500000000E-01  1.552100000000E-01
     26 F   6 C    -2.606000000000E-02  1.970900000000E-01 -1.552100000000E-01
     27 F   6 C    -1.291500000000E-01  2.606000000000E-02  2.231500000000E-01
     28 F   6 C    -1.970900000000E-01 -3.523000000000E-01 -2.231500000000E-01
     29 T   6 C     2.282200000000E-01 -1.314300000000E-01 -1.145100000000E-01
     30 F   6 C    -1.692000000000E-02  3.427300000000E-01  1.145100000000E-01
     31 F   6 C     1.314300000000E-01  1.692000000000E-02  3.596500000000E-01
     32 F   6 C    -3.427300000000E-01 -2.282200000000E-01 -3.596500000000E-01
     33 T   6 C    -1.489900000000E-01  2.530800000000E-01 -2.405900000000E-01
     34 F   6 C     4.936700000000E-01  9.160000000000E-02  2.405900000000E-01
     35 F   6 C    -2.530800000000E-01 -4.936700000000E-01 -4.020700000000E-01
     36 F   6 C    -9.160000000000E-02  1.489900000000E-01  4.020700000000E-01
     37 T   7 N     3.590300000000E-01 -3.440100000000E-01 -3.485400000000E-01
     38 F   7 N     4.530000000000E-03 -2.924300000000E-01  3.485400000000E-01
     39 F   7 N     3.440100000000E-01 -4.530000000000E-03 -2.969600000000E-01
     40 F   7 N     2.924300000000E-01 -3.590300000000E-01  2.969600000000E-01
     41 T   7 N     4.001000000000E-01 -4.806100000000E-01 -4.291700000000E-01
     42 F   7 N    -5.144000000000E-02 -1.707300000000E-01  4.291700000000E-01
     43 F   7 N     4.806100000000E-01  5.144000000000E-02 -1.192900000000E-01
     44 F   7 N     1.707300000000E-01 -4.001000000000E-01  1.192900000000E-01
     45 T   7 N     4.351900000000E-01 -4.385600000000E-01 -1.781500000000E-01
     46 F   7 N    -2.604100000000E-01 -3.866600000000E-01  1.781500000000E-01
     47 F   7 N     4.385600000000E-01  2.604100000000E-01 -1.262500000000E-01
     48 F   7 N     3.866600000000E-01 -4.351900000000E-01  1.262500000000E-01
     49 T   7 N     4.462100000000E-01  4.627000000000E-01 -3.276700000000E-01
     50 F   7 N    -2.096300000000E-01 -2.261200000000E-01  3.276700000000E-01
     51 F   7 N    -4.627000000000E-01  2.096300000000E-01 -1.649000000000E-02
     52 F   7 N     2.261200000000E-01 -4.462100000000E-01  1.649000000000E-02
     53 T   7 N     2.203300000000E-01  1.539000000000E-02 -1.914000000000E-02
     54 F   7 N     3.453000000000E-02  2.394700000000E-01  1.914000000000E-02
     55 F   7 N    -1.539000000000E-02 -3.453000000000E-02  2.049400000000E-01
     56 F   7 N    -2.394700000000E-01 -2.203300000000E-01 -2.049400000000E-01
     57 T  30 ZN    2.500000000000E-01 -2.500000000000E-01  5.000000000000E-01
     58 T  30 ZN   -5.000000000000E-01 -5.000000000000E-01  3.330669073875E-16
     59 T  35 BR    3.038000000000E-02 -2.987800000000E-01 -3.285400000000E-01
     60 F  35 BR    2.976000000000E-02  3.589200000000E-01  3.285400000000E-01
     61 F  35 BR    2.987800000000E-01 -2.976000000000E-02  3.291600000000E-01
     62 F  35 BR   -3.589200000000E-01 -3.038000000000E-02 -3.291600000000E-01

 TRANSFORMATION MATRIX PRIMITIVE-CRYSTALLOGRAPHIC CELL
  0.0000  1.0000  1.0000  1.0000  0.0000  1.0000  1.0000  1.0000  0.0000

 *******************************************************************************
 CRYSTALLOGRAPHIC CELL (VOLUME=       1480.75404261)
         A              B              C           ALPHA      BETA       GAMMA 
     9.94672411     9.94672411    14.96658728    90.000000  90.000000  90.000000

 COORDINATES IN THE CRYSTALLOGRAPHIC CELL
     ATOM                 X/A                 Y/B                 Z/C    
 *******************************************************************************
      1 T   1 H     2.435400000000E-01 -4.911000000000E-02 -3.355600000000E-01
      2 F   1 H    -2.435400000000E-01  4.911000000000E-02 -3.355600000000E-01
      3 F   1 H    -4.911000000000E-02 -2.435400000000E-01  3.355600000000E-01
      4 F   1 H     4.911000000000E-02  2.435400000000E-01  3.355600000000E-01
      5 T   1 H    -1.047000000000E-02  3.998500000000E-01  1.922600000000E-01
      6 F   1 H     1.047000000000E-02 -3.998500000000E-01  1.922600000000E-01
      7 F   1 H     3.998500000000E-01  1.047000000000E-02 -1.922600000000E-01
      8 F   1 H    -3.998500000000E-01 -1.047000000000E-02 -1.922600000000E-01
      9 T   1 H     6.947000000000E-02  1.598100000000E-01  1.790300000000E-01
     10 F   1 H    -6.947000000000E-02 -1.598100000000E-01  1.790300000000E-01
     11 F   1 H     1.598100000000E-01 -6.947000000000E-02 -1.790300000000E-01
     12 F   1 H    -1.598100000000E-01  6.947000000000E-02 -1.790300000000E-01
     13 T   6 C    -3.007400000000E-01  2.452000000000E-01  1.264600000000E-01
     14 F   6 C     3.007400000000E-01 -2.452000000000E-01  1.264600000000E-01
     15 F   6 C     2.452000000000E-01  3.007400000000E-01 -1.264600000000E-01
     16 F   6 C    -2.452000000000E-01 -3.007400000000E-01 -1.264600000000E-01
     17 T   6 C    -4.474700000000E-01  2.555300000000E-01  1.283100000000E-01
     18 F   6 C     4.474700000000E-01 -2.555300000000E-01  1.283100000000E-01
     19 F   6 C     2.555300000000E-01  4.474700000000E-01 -1.283100000000E-01
     20 F   6 C    -2.555300000000E-01 -4.474700000000E-01 -1.283100000000E-01
     21 T   6 C    -2.159700000000E-01  3.495100000000E-01  1.554500000000E-01
     22 F   6 C     2.159700000000E-01 -3.495100000000E-01  1.554500000000E-01
     23 F   6 C     3.495100000000E-01  2.159700000000E-01 -1.554500000000E-01
     24 F   6 C    -3.495100000000E-01 -2.159700000000E-01 -1.554500000000E-01
     25 T   6 C    -3.397000000000E-02  1.891800000000E-01  1.631200000000E-01
     26 F   6 C     3.397000000000E-02 -1.891800000000E-01  1.631200000000E-01
     27 F   6 C     1.891800000000E-01  3.397000000000E-02 -1.631200000000E-01
     28 F   6 C    -1.891800000000E-01 -3.397000000000E-02 -1.631200000000E-01
     29 T   6 C    -2.370800000000E-01  1.225700000000E-01  1.056500000000E-01
     30 F   6 C     2.370800000000E-01 -1.225700000000E-01  1.056500000000E-01
     31 F   6 C     1.225700000000E-01  2.370800000000E-01 -1.056500000000E-01
     32 F   6 C    -1.225700000000E-01 -2.370800000000E-01 -1.056500000000E-01
     33 T   6 C     8.074000000000E-02 -3.213300000000E-01  1.723400000000E-01
     34 F   6 C    -8.074000000000E-02  3.213300000000E-01  1.723400000000E-01
     35 F   6 C    -3.213300000000E-01 -8.074000000000E-02 -1.723400000000E-01
     36 F   6 C     3.213300000000E-01  8.074000000000E-02 -1.723400000000E-01
     37 T   7 N     4.742100000000E-01  1.772500000000E-01  1.817800000000E-01
     38 F   7 N    -4.742100000000E-01 -1.772500000000E-01  1.817800000000E-01
     39 F   7 N     1.772500000000E-01 -4.742100000000E-01 -1.817800000000E-01
     40 F   7 N    -1.772500000000E-01  4.742100000000E-01 -1.817800000000E-01
     41 T   7 N     3.450600000000E-01  2.257700000000E-01  1.743300000000E-01
     42 F   7 N    -3.450600000000E-01 -2.257700000000E-01  1.743300000000E-01
     43 F   7 N     2.257700000000E-01 -3.450600000000E-01 -1.743300000000E-01
     44 F   7 N    -2.257700000000E-01  3.450600000000E-01 -1.743300000000E-01
     45 T   7 N     4.740500000000E-01  3.478000000000E-01  8.739000000000E-02
     46 F   7 N    -4.740500000000E-01 -3.478000000000E-01  8.739000000000E-02
     47 F   7 N     3.478000000000E-01 -4.740500000000E-01 -8.739000000000E-02
     48 F   7 N    -3.478000000000E-01  4.740500000000E-01 -8.739000000000E-02
     49 T   7 N     3.444100000000E-01  3.279200000000E-01  1.182900000000E-01
     50 F   7 N    -3.444100000000E-01 -3.279200000000E-01  1.182900000000E-01
     51 F   7 N     3.279200000000E-01 -3.444100000000E-01 -1.182900000000E-01
     52 F   7 N    -3.279200000000E-01  3.444100000000E-01 -1.182900000000E-01
     53 T   7 N    -1.120400000000E-01  9.290000000000E-02  1.274300000000E-01
     54 F   7 N     1.120400000000E-01 -9.290000000000E-02  1.274300000000E-01
     55 F   7 N     9.290000000000E-02  1.120400000000E-01 -1.274300000000E-01
     56 F   7 N    -9.290000000000E-02 -1.120400000000E-01 -1.274300000000E-01
     57 T  30 ZN    5.000000000000E-01  0.000000000000E+00  2.500000000000E-01
     58 T  30 ZN   -5.000000000000E-01 -5.000000000000E-01  0.000000000000E+00
     59 T  35 BR   -3.288500000000E-01  3.100000000000E-04  3.007000000000E-02
     60 F  35 BR    3.288500000000E-01 -3.100000000000E-04  3.007000000000E-02
     61 F  35 BR    3.100000000000E-04  3.288500000000E-01 -3.007000000000E-02
     62 F  35 BR   -3.100000000000E-04 -3.288500000000E-01 -3.007000000000E-02

 T = ATOM BELONGING TO THE ASYMMETRIC UNIT

 ****    4 SYMMOPS - TRANSLATORS IN FRACTIONAL UNITS
 **** MATRICES AND TRANSLATORS IN THE CRYSTALLOGRAPHIC REFERENCE FRAME
   V INV                    ROTATION MATRICES                   TRANSLATORS
   1   1  1.00  0.00  0.00  0.00  1.00  0.00  0.00  0.00  1.00  0.00  0.00  0.00
   2   2  0.00  1.00 -1.00  1.00  0.00 -1.00  0.00  0.00 -1.00  0.00  0.00  0.00
   3   4 -0.00 -1.00  0.00  0.00 -1.00  1.00  1.00 -1.00  0.00  0.00  0.00  0.00
   4   3 -1.00 -0.00  1.00 -1.00  0.00  0.00 -1.00  1.00  0.00  0.00  0.00  0.00

 DIRECT LATTICE VECTORS CARTESIAN COMPONENTS (ANGSTROM)
          X                    Y                    Z
  -0.497336205520E+01   0.497336205520E+01   0.748329363835E+01
   0.497336205520E+01  -0.497336205520E+01   0.748329363835E+01
   0.497336205520E+01   0.497336205520E+01  -0.748329363835E+01


 CARTESIAN COORDINATES - PRIMITIVE CELL
 *******************************************************************************
 *      ATOM          X(ANGSTROM)         Y(ANGSTROM)         Z(ANGSTROM)
 *******************************************************************************
    1     1 H     2.422425189847E+00 -4.884836210617E-01 -5.022188026569E+00
    2     1 H    -2.422425189847E+00  4.884836210617E-01 -5.022188026569E+00
    3     1 H    -4.884836210617E-01 -2.422425189847E+00  5.022188026569E+00
    4     1 H     4.884836210617E-01  2.422425189847E+00  5.022188026569E+00
    5     1 H    -1.041422014359E-01  3.977197635543E+00  2.877476069818E+00
    6     1 H     1.041422014359E-01 -3.977197635543E+00  2.877476069818E+00
    7     1 H     3.977197635543E+00  1.041422014359E-01 -2.877476069818E+00
    8     1 H    -3.977197635543E+00 -1.041422014359E-01 -2.877476069818E+00
    9     1 H     6.909989239495E-01  1.589585980083E+00  2.679468120148E+00
   10     1 H    -6.909989239495E-01 -1.589585980083E+00  2.679468120148E+00
   11     1 H     1.589585980083E+00 -6.909989239495E-01 -2.679468120148E+00
   12     1 H    -1.589585980083E+00  6.909989239495E-01 -2.679468120148E+00
   13     6 C    -2.991377808962E+00  2.438936751870E+00  1.892674627011E+00
   14     6 C     2.991377808962E+00 -2.438936751870E+00  1.892674627011E+00
   15     6 C     2.438936751870E+00  2.991377808962E+00 -1.892674627011E+00
   16     6 C    -2.438936751870E+00 -2.991377808962E+00 -1.892674627011E+00
   17     6 C    -4.450860637681E+00  2.541686411931E+00  1.920362813473E+00
   18     6 C     4.450860637681E+00 -2.541686411931E+00  1.920362813473E+00
   19     6 C     2.541686411931E+00  4.450860637681E+00 -1.920362813473E+00
   20     6 C    -2.541686411931E+00 -4.450860637681E+00 -1.920362813473E+00
   21     6 C    -2.148194006123E+00  3.476479543826E+00  2.326555992163E+00
   22     6 C     2.148194006123E+00 -3.476479543826E+00  2.326555992163E+00
   23     6 C     3.476479543826E+00  2.148194006123E+00 -2.326555992163E+00
   24     6 C    -3.476479543826E+00 -2.148194006123E+00 -2.326555992163E+00
   25     6 C    -3.378902180303E-01  1.881721267205E+00  2.441349716575E+00
   26     6 C     3.378902180303E-01 -1.881721267205E+00  2.441349716575E+00
   27     6 C     1.881721267205E+00  3.378902180303E-01 -2.441349716575E+00
   28     6 C    -1.881721267205E+00 -3.378902180303E-01 -2.441349716575E+00
   29     6 C    -2.358169352094E+00  1.219169974212E+00  1.581219945783E+00
   30     6 C     2.358169352094E+00 -1.219169974212E+00  1.581219945783E+00
   31     6 C     1.219169974212E+00  2.358169352094E+00 -1.581219945783E+00
   32     6 C    -1.219169974212E+00 -2.358169352094E+00 -1.581219945783E+00
   33     6 C     8.030985046737E-01 -3.196180858395E+00  2.579341651266E+00
   34     6 C    -8.030985046737E-01  3.196180858395E+00  2.579341651266E+00
   35     6 C    -3.196180858395E+00 -8.030985046737E-01 -2.579341651266E+00
   36     6 C     3.196180858395E+00  8.030985046737E-01 -2.579341651266E+00
   37     7 N     4.716836040393E+00  1.763056848568E+00  2.720626235159E+00
   38     7 N    -4.716836040393E+00 -1.763056848568E+00  2.720626235159E+00
   39     7 N     1.763056848568E+00 -4.716836040393E+00 -2.720626235159E+00
   40     7 N    -1.763056848568E+00  4.716836040393E+00 -2.720626235159E+00
   41     7 N     3.432216621535E+00  2.245671902405E+00  2.609125159947E+00
   42     7 N    -3.432216621535E+00 -2.245671902405E+00  2.609125159947E+00
   43     7 N     2.245671902405E+00 -3.432216621535E+00 -2.609125159947E+00
   44     7 N    -2.245671902405E+00  3.432216621535E+00 -2.609125159947E+00
   45     7 N     4.715244564535E+00  3.459470645597E+00  1.307930062111E+00
   46     7 N    -4.715244564535E+00 -3.459470645597E+00  1.307930062111E+00
   47     7 N     3.459470645597E+00 -4.715244564535E+00 -1.307930062111E+00
   48     7 N    -3.459470645597E+00  4.715244564535E+00 -1.307930062111E+00
   49     7 N     3.425751250863E+00  3.261729770282E+00  1.770397608961E+00
   50     7 N    -3.425751250863E+00 -3.261729770282E+00  1.770397608961E+00
   51     7 N     3.261729770282E+00 -3.425751250863E+00 -1.770397608961E+00
   52     7 N    -3.261729770282E+00  3.425751250863E+00 -1.770397608961E+00
   53     7 N    -1.114430969329E+00  9.240506698562E-01  1.907192216670E+00
   54     7 N     1.114430969329E+00 -9.240506698562E-01  1.907192216670E+00
   55     7 N     9.240506698562E-01  1.114430969329E+00 -1.907192216670E+00
   56     7 N    -9.240506698562E-01 -1.114430969329E+00 -1.907192216670E+00
   57    30 ZN    4.973362055200E+00  0.000000000000E+00 -1.122494045752E+01
   58    30 ZN   -4.973362055200E+00 -4.973362055200E+00  1.496658727670E+01
   59    35 BR   -3.270980223705E+00  3.083484474224E-03  4.500452794104E-01
   60    35 BR    3.270980223705E+00 -3.083484474224E-03  4.500452794104E-01
   61    35 BR    3.083484474224E-03  3.270980223705E+00 -4.500452794104E-01
   62    35 BR   -3.083484474224E-03 -3.270980223705E+00 -4.500452794104E-01

 *******************************************************************************
 STARTING BASIS SET HANDLING 
 *******************************************************************************

 Loading internal basis set: POB-DZVPP           

 Please cite in your publication:
 Peintinger, M. F., Oliveira, D. V. and Bredow, T. (2013), Generally applicable 
 solid-state Gaussian basis sets, in preparation                                
                                                                                
                    

 *******************************************************************************
 LOCAL ATOMIC FUNCTIONS BASIS SET
 *******************************************************************************
   ATOM   X(AU)   Y(AU)   Z(AU)  N. TYPE  EXPONENT  S COEF   P COEF   D/F/G COEF
 *******************************************************************************
   1 H    4.578  -0.923  -9.491
                                  1 S  
                                         2.263E+01 1.441E-02 0.000E+00 0.000E+00
                                         3.236E+00 1.072E-01 0.000E+00 0.000E+00
                                         7.304E-01 3.846E-01 0.000E+00 0.000E+00
                                  2 S  
                                         1.417E-01 1.000E+00 0.000E+00 0.000E+00
                           3-     5 P  
                                         3.944E-01 0.000E+00 1.000E+00 0.000E+00
                           6-     8 P  
                                         1.006E-01 0.000E+00 1.000E+00 0.000E+00
   2 H   -4.578   0.923  -9.491
   3 H   -0.923  -4.578   9.491
   4 H    0.923   4.578   9.491
   5 H   -0.197   7.516   5.438
   6 H    0.197  -7.516   5.438
   7 H    7.516   0.197  -5.438
   8 H   -7.516  -0.197  -5.438
   9 H    1.306   3.004   5.063
  10 H   -1.306  -3.004   5.063
  11 H    3.004  -1.306  -5.063
  12 H   -3.004   1.306  -5.063
  13 C   -5.653   4.609   3.577
                                 97 S  
                                         1.238E+03 5.457E-03 0.000E+00 0.000E+00
                                         1.863E+02 4.064E-02 0.000E+00 0.000E+00
                                         4.225E+01 1.803E-01 0.000E+00 0.000E+00
                                         1.168E+01 4.632E-01 0.000E+00 0.000E+00
                                         3.593E+00 4.409E-01 0.000E+00 0.000E+00
                                 98 S  
                                         5.281E+00 1.000E+00 0.000E+00 0.000E+00
                                 99 S  
                                         4.447E-01 1.000E+00 0.000E+00 0.000E+00
                         100-   102 P  
                                         9.468E+00 0.000E+00 3.839E-02 0.000E+00
                                         2.010E+00 0.000E+00 2.112E-01 0.000E+00
                                         5.477E-01 0.000E+00 5.133E-01 0.000E+00
                         103-   105 P  
                                         1.604E-01 0.000E+00 1.000E+00 0.000E+00
                         106-   110 D  
                                         6.070E-01 0.000E+00 0.000E+00 1.000E+00
                         111-   115 D  
                                         2.939E-01 0.000E+00 0.000E+00 1.000E+00
  14 C    5.653  -4.609   3.577
  15 C    4.609   5.653  -3.577
  16 C   -4.609  -5.653  -3.577
  17 C   -8.411   4.803   3.629
  18 C    8.411  -4.803   3.629
  19 C    4.803   8.411  -3.629
  20 C   -4.803  -8.411  -3.629
  21 C   -4.059   6.570   4.397
  22 C    4.059  -6.570   4.397
  23 C    6.570   4.059  -4.397
  24 C   -6.570  -4.059  -4.397
  25 C   -0.639   3.556   4.613
  26 C    0.639  -3.556   4.613
  27 C    3.556   0.639  -4.613
  28 C   -3.556  -0.639  -4.613
  29 C   -4.456   2.304   2.988
  30 C    4.456  -2.304   2.988
  31 C    2.304   4.456  -2.988
  32 C   -2.304  -4.456  -2.988
  33 C    1.518  -6.040   4.874
  34 C   -1.518   6.040   4.874
  35 C   -6.040  -1.518  -4.874
  36 C    6.040   1.518  -4.874
  37 N    8.914   3.332   5.141
                                553 S  
                                         1.713E+03-5.393E-03 0.000E+00 0.000E+00
                                         2.576E+02-4.022E-02 0.000E+00 0.000E+00
                                         5.846E+01-1.793E-01 0.000E+00 0.000E+00
                                         1.620E+01-4.638E-01 0.000E+00 0.000E+00
                                         5.005E+00-4.417E-01 0.000E+00 0.000E+00
                                554 S  
                                         6.217E-01 1.000E+00 0.000E+00 0.000E+00
                                555 S  
                                         2.921E-01 1.000E+00 0.000E+00 0.000E+00
                         556-   558 P  
                                         1.357E+01 0.000E+00-4.007E-02 0.000E+00
                                         2.926E+00 0.000E+00-2.181E-01 0.000E+00
                                         7.993E-01 0.000E+00-5.129E-01 0.000E+00
                         559-   561 P  
                                         2.244E-01 0.000E+00 1.000E+00 0.000E+00
                         562-   566 D  
                                         3.118E-01 0.000E+00 0.000E+00 1.000E+00
  38 N   -8.914  -3.332   5.141
  39 N    3.332  -8.914  -5.141
  40 N   -3.332   8.914  -5.141
  41 N    6.486   4.244   4.931
  42 N   -6.486  -4.244   4.931
  43 N    4.244  -6.486  -4.931
  44 N   -4.244   6.486  -4.931
  45 N    8.911   6.537   2.472
  46 N   -8.911  -6.537   2.472
  47 N    6.537  -8.911  -2.472
  48 N   -6.537   8.911  -2.472
  49 N    6.474   6.164   3.346
  50 N   -6.474  -6.164   3.346
  51 N    6.164  -6.474  -3.346
  52 N   -6.164   6.474  -3.346
  53 N   -2.106   1.746   3.604
  54 N    2.106  -1.746   3.604
  55 N    1.746   2.106  -3.604
  56 N   -1.746  -2.106  -3.604
  57 ZN   9.398   0.000 -21.212
                                833 S  
                                         8.200E+04 1.421E-03 0.000E+00 0.000E+00
                                         1.231E+04 1.089E-02 0.000E+00 0.000E+00
                                         2.801E+03 5.406E-02 0.000E+00 0.000E+00
                                         7.910E+02 1.885E-01 0.000E+00 0.000E+00
                                         2.576E+02 3.835E-01 0.000E+00 0.000E+00
                                         8.881E+01 2.972E-01 0.000E+00 0.000E+00
                                834 S  
                                         1.719E+02-1.105E-01 0.000E+00 0.000E+00
                                         2.030E+01 6.461E-01 0.000E+00 0.000E+00
                                         8.346E+00 4.422E-01 0.000E+00 0.000E+00
                                835 S  
                                         1.485E+01-2.271E-01 0.000E+00 0.000E+00
                                         2.450E+00 7.243E-01 0.000E+00 0.000E+00
                                         9.985E-01 4.484E-01 0.000E+00 0.000E+00
                                836 S  
                                         1.493E+00 1.000E+00 0.000E+00 0.000E+00
                                837 S  
                                         1.830E-01 1.000E+00 0.000E+00 0.000E+00
                         838-   840 P  
                                         1.072E+03 0.000E+00 9.277E-03 0.000E+00
                                         2.527E+02 0.000E+00 6.954E-02 0.000E+00
                                         8.010E+01 0.000E+00 2.716E-01 0.000E+00
                                         2.890E+01 0.000E+00 5.340E-01 0.000E+00
                                         1.077E+01 0.000E+00 3.450E-01 0.000E+00
                         841-   843 P  
                                         5.645E+00 0.000E+00 3.413E-01 0.000E+00
                                         2.168E+00 0.000E+00 5.639E-01 0.000E+00
                                         8.054E-01 0.000E+00 2.368E-01 0.000E+00
                         844-   846 P  
                                         2.721E-01 0.000E+00 1.000E+00 0.000E+00
                         847-   851 D  
                                         5.609E+01 0.000E+00 0.000E+00 2.959E-02
                                         1.575E+01 0.000E+00 0.000E+00 1.587E-01
                                         5.312E+00 0.000E+00 0.000E+00 3.798E-01
                                         1.774E+00 0.000E+00 0.000E+00 4.690E-01
                         852-   856 D  
                                         5.073E-01 0.000E+00 0.000E+00 1.000E+00
                         857-   863 F  
                                         2.814E+00 0.000E+00 0.000E+00 1.000E+00
                         864-   870 F  
                                         1.300E+00 0.000E+00 0.000E+00 1.000E+00
  58 ZN  -9.398  -9.398  28.283
  59 BR  -6.181   0.006   0.850
                                909 S  
                                         1.133E+05 1.428E-03 0.000E+00 0.000E+00
                                         1.701E+04 1.095E-02 0.000E+00 0.000E+00
                                         3.870E+03 5.442E-02 0.000E+00 0.000E+00
                                         1.093E+03 1.905E-01 0.000E+00 0.000E+00
                                         3.564E+02 3.902E-01 0.000E+00 0.000E+00
                                         1.231E+02 3.081E-01 0.000E+00 0.000E+00
                                910 S  
                                         2.367E+02-1.123E-01 0.000E+00 0.000E+00
                                         2.847E+01 6.478E-01 0.000E+00 0.000E+00
                                         1.188E+01 4.424E-01 0.000E+00 0.000E+00
                                911 S  
                                         2.127E+01-2.264E-01 0.000E+00 0.000E+00
                                         3.613E+00 7.382E-01 0.000E+00 0.000E+00
                                         1.663E+00 4.268E-01 0.000E+00 0.000E+00
                                912 S  
                                         3.641E-01 1.000E+00 0.000E+00 0.000E+00
                                913 S  
                                         1.243E-01 1.000E+00 0.000E+00 0.000E+00
                         914-   916 P  
                                         1.560E+03 0.000E+00 8.717E-03 0.000E+00
                                         3.685E+02 0.000E+00 6.624E-02 0.000E+00
                                         1.172E+02 0.000E+00 2.650E-01 0.000E+00
                                         4.265E+01 0.000E+00 5.384E-01 0.000E+00
                                         1.609E+01 0.000E+00 3.658E-01 0.000E+00
                         917-   919 P  
                                         8.635E+00 0.000E+00 3.425E-01 0.000E+00
                                         3.561E+00 0.000E+00 5.750E-01 0.000E+00
                                         1.529E+00 0.000E+00 2.433E-01 0.000E+00
                         920-   922 P  
                                         6.447E-01 0.000E+00 1.000E+00 0.000E+00
                         923-   925 P  
                                         2.103E-01 0.000E+00 1.000E+00 0.000E+00
                         926-   930 D  
                                         1.049E+02 0.000E+00 0.000E+00 2.265E-02
                                         3.028E+01 0.000E+00 0.000E+00 1.346E-01
                                         1.065E+01 0.000E+00 0.000E+00 3.647E-01
                                         3.870E+00 0.000E+00 0.000E+00 4.904E-01
                         931-   935 D  
                                         1.342E+00 0.000E+00 0.000E+00 1.000E+00
                         936-   940 D  
                                         4.101E-01 0.000E+00 0.000E+00 1.000E+00
                         941-   945 D  
                                         1.985E-01 0.000E+00 0.000E+00 1.000E+00
  60 BR   6.181  -0.006   0.850
  61 BR   0.006   6.181  -0.850
  62 BR  -0.006  -6.181  -0.850

 *******************************************************************************
 FINISHED BASIS SET HANDLING 
 *******************************************************************************

 INFORMATION **** SET_MPP **** PCRYSTAL CALCULATION
 INFORMATION **** READM2 **** NEW DEFAULT: FOCK/KS MATRIX MIXING SET TO 30 %
 INFORMATION **** READM2 **** NEW DEFAULT: FULL DIRECT SCF MODE
 INFORMATION **** READM2 **** NEW DEFAULT: COULOMB BIPOLAR BUFFER SET TO 32 Mb
 INFORMATION **** READM2 **** NEW DEFAULT: EXCHANGE BIPOLAR BUFFER SET TO 32 Mb

 *******************************************************************************
 NEW DEFAULT: DFT INTEGRATION GRID INCREASED TO XLGRID
 NEW DEFAULT: DIIS ACCELERATOR ACTIVE
 USE KEYWORD NODIIS TO TURN IT OFF
 *******************************************************************************

 INFORMATION **** DFTD3_INPUT **** PERFORM DISPERSION CORRECTION DFT-D3(BJ) IN THE BECKE-JOHNSON DAMPING SCHEME

 PLEASE CITE:
 (1) DFT-D3 Reference
  S. Grimme, J. Antony, S. Ehrlich, and H. Krieg, J. Chem. Phys. 132 (2010), 154104
 (2) BJ-Damping Reference
  S. Grimme, S. Ehrlich, and L. Goerigk, J. Comput. Chem. 32 (2011), 1456-1465
 (3) General DFT-D Review
  S. Grimme, A. Hansen, J. G. Brandenburg, and C. Bannwarth,
  Chem. Rev. 116 (2016), 5105-5154

 INFORMATION **** TOLINTEG **** COULOMB AND EXCHANGE SERIES TOLERANCES MODIFIED
 INFORMATION **** BIPOSIZE **** COULOMB BIPOLAR BUFFER SET TO   100000000
 INFORMATION **** MAXCYCLE **** MAX NUMBER OF SCF CYCLES SET TO          50
 *******************************************************************************
 N. OF ATOMS PER CELL        62  COULOMB OVERLAP TOL         (T1) 10**  -12
 NUMBER OF SHELLS           412  COULOMB PENETRATION TOL     (T2) 10**  -12
 NUMBER OF AO              1056  EXCHANGE OVERLAP TOL        (T3) 10**   20
 N. OF ELECTRONS PER CELL   496  EXCHANGE PSEUDO OVP (F(G))  (T4) 10**   20
 CORE ELECTRONS PER CELL    236  EXCHANGE PSEUDO OVP (P(G))  (T5) 10**   20
 N. OF SYMMETRY OPERATORS     4  POLE ORDER IN MONO ZONE                  4
 *******************************************************************************
 TYPE OF CALCULATION :  RESTRICTED CLOSED SHELL
 KOHN-SHAM HAMILTONIAN

 (EXCHANGE)[CORRELATION] FUNCTIONAL:(PERDEW-BURKE-ERNZERHOF)[PERDEW-BURKE-ERNZERHOF]


 CAPPA:IS1  3;IS2  3;IS3  3; K PTS MONK NET   6; SYMMOPS:K SPACE   8;G SPACE   4

 *******************************************************************************
 MAX NUMBER OF SCF CYCLES      50  CONVERGENCE ON DELTAP        10**-16
 WEIGHT OF F(I) IN F(I+1)      30% CONVERGENCE ON ENERGY        10**- 6
 SHRINK. FACT.(MONKH.)    3  3  3  NUMBER OF K POINTS IN THE IBZ      6
 SHRINKING FACTOR(GILAT NET)    3  NUMBER OF K POINTS(GILAT NET)      6
 *******************************************************************************
 *** K POINTS COORDINATES (OBLIQUE COORDINATES IN UNITS OF IS =  3)
   1-R(  0  0  0)   2-C(  1  0  0)   3-C(  1  1  0)   4-C(  2  1  0)
   5-C(  2  1  1)   6-C(  2  2  1)

 DIRECT LATTICE VECTORS COMPON. (A.U.)     RECIP. LATTICE VECTORS COMPON. (A.U.) 
        X            Y            Z              X            Y            Z
   -9.3982922    9.3982922   14.1413756      0.0000000    0.3342727    0.2221561
    9.3982922   -9.3982922   14.1413756      0.3342727    0.0000000    0.2221561
    9.3982922    9.3982922  -14.1413756      0.3342727    0.3342727    0.0000000

 DISK SPACE FOR EIGENVECTORS (FTN 10)    12266496 REALS

 SYMMETRY ADAPTION OF THE BLOCH FUNCTIONS ENABLED
 TTTTTTTTTTTTTTTTTTTTTTTTTTTTTT gordsh1     TELAPSE       12.12 TCPU        0.06

 MATRIX SIZE: P(G) 1965600, F(G)  983640, P(G) IRR  248384, F(G) IRR  248384
 MAX G-VECTOR INDEX FOR 1- AND 2-ELECTRON INTEGRALS 201

 TTTTTTTTTTTTTTTTTTTTTTTTTTTTTT INPUT       TELAPSE       12.68 TCPU        0.62

 NEIGHBORS OF THE NON-EQUIVALENT ATOMS

 N = NUMBER OF NEIGHBORS AT DISTANCE R
    ATOM  N     R/ANG      R/AU   NEIGHBORS (ATOM LABELS AND CELL INDICES)
   1 H    1     1.0942     2.0677   21 C   -1 0 0
   1 H    1     2.1686     4.0981   13 C   -1 0 0
   1 H    1     2.1748     4.1097   34 C   -1 0 0
   1 H    1     2.4664     4.6607   50 N    0 0 1
   1 H    1     2.4946     4.7141   11 H    0 0 0
   1 H    1     2.5334     4.7874    5 H   -1 0 0

   5 H    1     1.0897     2.0592   34 C    0 0 0
   5 H    1     2.0032     3.7855    6 H    1 0 1
   5 H    1     2.1531     4.0688   25 C    0 0 0
   5 H    1     2.1754     4.1109   21 C    0 0 0
   5 H    2     2.2346     4.2228    7 H    1 0 0    8 H    1 1 1
   5 H    1     2.5243     4.7703    9 H    0 0 0

   9 H    1     1.0957     2.0707   25 C    0 0 0
   9 H    1     2.0734     3.9181   53 N    0 0 0
   9 H    1     2.1962     4.1503   34 C    0 0 0
   9 H    1     2.4946     4.7141    4 H    0 0 0
   9 H    1     2.5243     4.7703    5 H    0 0 0
   9 H    1     2.6635     5.0332   54 N    0 0 0

  13 C    1     1.4056     2.6562   21 C    0 0 0
  13 C    1     1.4092     2.6630   29 C    0 0 0
  13 C    1     1.4634     2.7653   17 C    0 0 0
  13 C    1     2.1686     4.0981    1 H    1 0 0
  13 C    1     2.4121     4.5581   53 N    0 0 0
  13 C    1     2.4153     4.5642   34 C    0 0 0

  17 C    1     1.3516     2.5541   45 N    0-1-1
  17 C    1     1.3615     2.5728   37 N    0-1-1
  17 C    1     1.4634     2.7653   13 C    0 0 0
  17 C    1     2.1956     4.1491   41 N    0-1-1
  17 C    1     2.1969     4.1515   49 N    0-1-1
  17 C    1     2.4987     4.7218   29 C    0 0 0

  21 C    1     1.0942     2.0677    1 H    1 0 0
  21 C    1     1.3971     2.6400   34 C    0 0 0
  21 C    1     1.4056     2.6562   13 C    0 0 0
  21 C    1     2.1754     4.1109    5 H    0 0 0
  21 C    1     2.3864     4.5097   29 C    0 0 0
  21 C    1     2.4153     4.5642   25 C    0 0 0

  25 C    1     1.0957     2.0707    9 H    0 0 0
  25 C    1     1.3437     2.5392   53 N    0 0 0
  25 C    1     1.4012     2.6478   34 C    0 0 0
  25 C    1     2.1531     4.0688    5 H    0 0 0
  25 C    1     2.2935     4.3342   29 C    0 0 0
  25 C    1     2.4153     4.5642   21 C    0 0 0

  29 C    1     1.3192     2.4929   53 N    0 0 0
  29 C    1     1.4092     2.6630   13 C    0 0 0
  29 C    1     1.8952     3.5813   59 BR   0 0 0
  29 C    1     2.2935     4.3342   25 C    0 0 0
  29 C    1     2.3864     4.5097   21 C    0 0 0
  29 C    1     2.4987     4.7218   17 C    0 0 0

  33 C    1     1.0897     2.0592    6 H    0 0 0
  33 C    1     1.3971     2.6400   22 C    0 0 0
  33 C    1     1.4012     2.6478   26 C    0 0 0
  33 C    1     2.1748     4.1097    2 H    0 1 0
  33 C    1     2.1962     4.1503   10 H    0 0 0
  33 C    1     2.3898     4.5161   54 N    0 0 0

  37 N    1     1.3615     2.5728   17 C    0 1 1
  37 N    1     1.3768     2.6018   41 N    0 0 0
  37 N    1     2.0535     3.8805   57 ZN   1 1 0
  37 N    1     2.1945     4.1470   49 N    0 0 0
  37 N    1     2.2076     4.1718   45 N    0 0 0
  37 N    1     2.4806     4.6876   13 C    0 1 1

  41 N    1     1.3175     2.4898   49 N    0 0 0
  41 N    1     1.3768     2.6018   37 N    0 0 0
  41 N    1     2.1938     4.1456   45 N    0 0 0
  41 N    1     2.1956     4.1491   17 C    0 1 1
  41 N    1     2.8195     5.3281    9 H    0 0 0
  41 N    1     2.9497     5.5741   57 ZN   1 1 0

  45 N    1     1.3516     2.5541   17 C    0 1 1
  45 N    1     1.3841     2.6156   49 N    0 0 0
  45 N    1     2.0172     3.8120   58 ZN   0 0 2
  45 N    1     2.1938     4.1456   41 N    0 0 0
  45 N    1     2.2076     4.1718   37 N    0 0 0
  45 N    1     2.5301     4.7812   13 C    0 1 1

  49 N    1     1.3175     2.4898   41 N    0 0 0
  49 N    1     1.3841     2.6156   45 N    0 0 0
  49 N    1     2.1945     4.1470   37 N    0 0 0
  49 N    1     2.1969     4.1515   17 C    0 1 1
  49 N    1     2.4664     4.6607    2 H    1 1 1
  49 N    1     2.9085     5.4962   58 ZN   0 0 2

  53 N    1     1.3192     2.4929   29 C    0 0 0
  53 N    1     1.3437     2.5392   25 C    0 0 0
  53 N    1     2.0734     3.9181    9 H    0 0 0
  53 N    1     2.3898     4.5161   34 C    0 0 0
  53 N    1     2.4121     4.5581   13 C    0 0 0
  53 N    1     2.6635     5.0332   10 H    0 0 0

  57 ZN   4     2.0535     3.8805   37 N   -1-1 0   38 N   -1 0 1   39 N    0 0 1
                                    40 N   -1 0 0
  57 ZN   4     2.9497     5.5741   41 N   -1-1 0   42 N   -1 0 1   43 N    0 0 1
                                    44 N   -1 0 0
  57 ZN   4     3.1702     5.9908   17 C   -1 0 1   18 C   -1-1 0   19 C   -1 0 0
                                    20 C    0 0 1
  57 ZN   4     3.6046     6.8117   29 C   -1 0 1   30 C   -1-1 0   31 C   -1 0 0
                                    32 C    0 0 1
  57 ZN   4     3.6463     6.8905   13 C   -1 0 1   14 C   -1-1 0   15 C   -1 0 0
                                    16 C    0 0 1
  57 ZN   4     3.7058     7.0029   59 BR  -1 0 1   60 BR  -1-1 0   61 BR  -1 0 0
                                    62 BR   0 0 1

  58 ZN   4     2.0172     3.8120   45 N    0 0-2   46 N    1 1 0   47 N    1 0-1
                                    48 N    0 1-1
  58 ZN   4     2.9085     5.4962   49 N    0 0-2   50 N    1 1 0   51 N    1 0-1
                                    52 N    0 1-1
  58 ZN   4     3.1423     5.9380   17 C    0 1-1   18 C    1 0-1   19 C    0 0-2
                                    20 C    1 1 0
  58 ZN   4     3.4877     6.5907    1 H    1 1-1    2 H    1 1-1    3 H    0 0-1
                                     4 H    0 0-1
  58 ZN   4     3.7328     7.0540   13 C    0 1-1   14 C    1 0-1   15 C    0 0-2
                                    16 C    1 1 0
  58 ZN   4     3.9541     7.4722   21 C    0 1-1   22 C    1 0-1   23 C    0 0-2
                                    24 C    1 1 0

  59 BR   1     1.8952     3.5813   29 C    0 0 0
  59 BR   1     2.7608     5.2172   53 N    0 0 0
  59 BR   1     2.8448     5.3758   13 C    0 0 0
  59 BR   1     3.1216     5.8990   42 N    0 0 0
  59 BR   1     3.1357     5.9256   35 C    0 0 0
  59 BR   1     3.1620     5.9754   17 C    0 0 0


 SYMMETRY ALLOWED INTERNAL DEGREE(S) OF FREEDOM:  45
 TTTTTTTTTTTTTTTTTTTTTTTTTTTTTT SYMM        TELAPSE       12.71 TCPU        0.64
 TTTTTTTTTTTTTTTTTTTTTTTTTTTTTT INT_SCREEN  TELAPSE       12.72 TCPU        0.64
 INFORMATION **** EXCBUF **** EXCH. BIPO BUFFER: WORDS USED =           0

 DFT PARAMETERS

     ATOM       ELECTRONS   NET CHARGE   R(ANGSTROM)
   1   1  H       1.0000      0.0000     1.11000000
  13   6  C       6.0000      0.0000     0.77000000
  37   7  N       7.0000      0.0000     0.74000000
  57  30  ZN     30.0000      0.0000     1.37000000
  59  35  BR     35.0000      0.0000     1.14000000

 SIZE OF GRID=     452623
 TTTTTTTTTTTTTTTTTTTTTTTTTTTTTT MAKE_GRID2  TELAPSE       13.50 TCPU        1.43
 BECKE WEIGHT FUNCTION
 RADSAFE =     2.00
 TOLERANCES - DENSITY:10**- 6; POTENTIAL:10**- 9; GRID WGT:10**-14

 RADIAL INTEGRATION  - INTERVALS (POINTS,UPPER LIMIT):            1( 75,  4.0*R)

 ANGULAR INTEGRATION - INTERVALS (ACCURACY LEVEL [N. POINTS] UPPER LIMIT):
  1(  4[  86]   0.2)  2(  8[ 194]   0.5)  3( 12[ 350]   0.9)  4( 16[ 974]   3.5)
  5( 12[ 350]9999.0)
 TTTTTTTTTTTTTTTTTTTTTTTTTTTTTT INT_CALC    TELAPSE       13.55 TCPU        1.48
 EEEEEEEEEE INT_CALC TERMINATION  DATE 21 01 2024 TIME 21:24:16.8

 *******************************************************************************
 Z:\home\sanoj\Downloads\tmp_p\newconn.mol                                       
 CRYSTAL - SCF - TYPE OF CALCULATION :  RESTRICTED CLOSED SHELL
 *******************************************************************************

 CAPPA:IS1  3;IS2  3;IS3  3; K PTS MONK NET   6; SYMMOPS:K SPACE   8;G SPACE   4

 TTTTTTTTTTTTTTTTTTTTTTTTTTTTTT SDIK        TELAPSE       13.73 TCPU        1.65

 AAAAAAAAAAAAAAAAAAAAAAAAAAAAAAAAAAAAAAAAAAAAAAAAAAAAAAAAAAAAAAAAAAAAAAAAAAAAAAA
         ATOMIC WAVEFUNCTION(S)


 NUCLEAR CHARGE  1.0  SYMMETRY SPECIES            S
 N. ELECTRONS    1.0  NUMBER OF PRIMITIVE GTOS    4
                      NUMBER OF CONTRACTED GTOS   2
                      NUMBER OF CLOSED SHELLS     0
                      OPEN SHELL OCCUPATION       1

  ZNUC SCFIT  TOTAL HF ENERGY   KINETIC ENERGY   VIRIAL THEOREM ACCURACY
   1.0   1   -4.946643675E-01  4.917913167E-01 -2.005842012E+00  9.4E-17

 NUCLEAR CHARGE  6.0  SYMMETRY SPECIES            S    P
 N. ELECTRONS    6.0  NUMBER OF PRIMITIVE GTOS    7    4
                      NUMBER OF CONTRACTED GTOS   3    2
                      NUMBER OF CLOSED SHELLS     2    0
                      OPEN SHELL OCCUPATION       0    2

  ZNUC SCFIT  TOTAL HF ENERGY   KINETIC ENERGY   VIRIAL THEOREM ACCURACY
   6.0   6   -3.750912652E+01  3.905246519E+01 -1.960480378E+00  3.7E-06

 NUCLEAR CHARGE  7.0  SYMMETRY SPECIES            S    P
 N. ELECTRONS    7.0  NUMBER OF PRIMITIVE GTOS    7    4
                      NUMBER OF CONTRACTED GTOS   3    2
                      NUMBER OF CLOSED SHELLS     2    0
                      OPEN SHELL OCCUPATION       0    3

  ZNUC SCFIT  TOTAL HF ENERGY   KINETIC ENERGY   VIRIAL THEOREM ACCURACY
   7.0   9   -5.432196661E+01  5.425066284E+01 -2.001314339E+00  1.2E-06

 NUCLEAR CHARGE 30.0  SYMMETRY SPECIES            S    P    D
 N. ELECTRONS   30.0  NUMBER OF PRIMITIVE GTOS   14    9    5
                      NUMBER OF CONTRACTED GTOS   5    3    2
                      NUMBER OF CLOSED SHELLS     4    2    1
                      OPEN SHELL OCCUPATION       0    0    0

  ZNUC SCFIT  TOTAL HF ENERGY   KINETIC ENERGY   VIRIAL THEOREM ACCURACY
  30.0  10   -1.777404290E+03  1.777325716E+03 -2.000044209E+00  2.5E-06

 NUCLEAR CHARGE 35.0  SYMMETRY SPECIES            S    P    D
 N. ELECTRONS   35.0  NUMBER OF PRIMITIVE GTOS   14   10    7
                      NUMBER OF CONTRACTED GTOS   5    4    4
                      NUMBER OF CLOSED SHELLS     4    2    1
                      OPEN SHELL OCCUPATION       0    5    0

  ZNUC SCFIT  TOTAL HF ENERGY   KINETIC ENERGY   VIRIAL THEOREM ACCURACY
  35.0  13   -2.572060514E+03  2.572021521E+03 -2.000015161E+00  3.6E-06

 AAAAAAAAAAAAAAAAAAAAAAAAAAAAAAAAAAAAAAAAAAAAAAAAAAAAAAAAAAAAAAAAAAAAAAAAAAAAAAA

 TOTAL ATOMIC CHARGES:
   1.0000000   1.0000000   1.0000000   1.0000000   1.0000000   1.0000000
   1.0000000   1.0000000   1.0000000   1.0000000   1.0000000   1.0000000
   6.0000000   6.0000000   6.0000000   6.0000000   6.0000000   6.0000000
   6.0000000   6.0000000   6.0000000   6.0000000   6.0000000   6.0000000
   6.0000000   6.0000000   6.0000000   6.0000000   6.0000000   6.0000000
   6.0000000   6.0000000   6.0000000   6.0000000   6.0000000   6.0000000
   7.0000000   7.0000000   7.0000000   7.0000000   7.0000000   7.0000000
   7.0000000   7.0000000   7.0000000   7.0000000   7.0000000   7.0000000
   7.0000000   7.0000000   7.0000000   7.0000000   7.0000000   7.0000000
   7.0000000   7.0000000  30.0000000  30.0000000  35.0000000  35.0000000
  35.0000000  35.0000000
 TTTTTTTTTTTTTTTTTTTTTTTTTTTTTT MOQGAD      TELAPSE       14.56 TCPU        2.47
 TTTTTTTTTTTTTTTTTTTTTTTTTTTTTT SHELLXN     TELAPSE       44.43 TCPU       29.97
 TTTTTTTTTTTTTTTTTTTTTTTTTTTTTT MONMO3      TELAPSE       46.62 TCPU       32.16
 NUMERICALLY INTEGRATED DENSITY    496.0001615901
 TTTTTTTTTTTTTTTTTTTTTTTTTTTTTT NUMDFT      TELAPSE       47.30 TCPU       32.83
 CYC   0 ETOT(AU) -1.586799142935E+04 DETOT -1.59E+04 tst  0.00E+00 PX  1.00E+00
 TTTTTTTTTTTTTTTTTTTTTTTTTTTTTT DIIS        TELAPSE       47.36 TCPU       32.89
 TTTTTTTTTTTTTTTTTTTTTTTTTTTTTT FDIK        TELAPSE       64.60 TCPU       49.84
 INSULATING STATE
 TOP OF VALENCE BANDS -    BAND    248; K    3; EIG -1.2763842E-01 AU
 TOP OF VALENCE BANDS -    BAND    248; K    1; EIG -1.2973513E-01 AU
 BOTTOM OF VIRTUAL BANDS - BAND    249; K    1; EIG -1.0595120E-01 AU
 INDIRECT ENERGY BAND GAP:   0.5901 eV
 TTTTTTTTTTTTTTTTTTTTTTTTTTTTTT PDIG        TELAPSE       65.19 TCPU       50.43
 TOTAL ATOMIC CHARGES:
   1.2783366   1.2783366   1.2783366   1.2783366   1.2362093   1.2362093
   1.2362093   1.2362093   1.2699396   1.2699396   1.2699396   1.2699396
   6.1744652   6.1744652   6.1744652   6.1744652   5.4821193   5.4821193
   5.4821193   5.4821193   6.0351851   6.0351851   6.0351851   6.0351851
   5.6573332   5.6573332   5.6573332   5.6573332   5.3154100   5.3154100
   5.3154100   5.3154100   5.9262415   5.9262415   5.9262415   5.9262415
   7.4118681   7.4118681   7.4118681   7.4118681   7.1685871   7.1685871
   7.1685871   7.1685871   7.3723460   7.3723460   7.3723460   7.3723460
   7.1754713   7.1754713   7.1754713   7.1754713   7.5203958   7.5203958
   7.5203958   7.5203958  27.9080582  27.9072698  35.0222601  35.0222601
  35.0222601  35.0222601
 TTTTTTTTTTTTTTTTTTTTTTTTTTTTTT MOQGAD      TELAPSE       65.21 TCPU       50.45
 TTTTTTTTTTTTTTTTTTTTTTTTTTTTTT SHELLXN     TELAPSE       98.22 TCPU       83.06
 TTTTTTTTTTTTTTTTTTTTTTTTTTTTTT MONMO3      TELAPSE      100.79 TCPU       85.61
 NUMERICALLY INTEGRATED DENSITY    496.0001995355
 TTTTTTTTTTTTTTTTTTTTTTTTTTTTTT NUMDFT      TELAPSE      102.88 TCPU       87.70
 CYC   1 ETOT(AU) -1.586325272454E+04 DETOT  4.74E+00 tst  0.00E+00 PX  1.00E+00
 TTTTTTTTTTTTTTTTTTTTTTTTTTTTTT DIIS        TELAPSE      103.00 TCPU       87.81
 DIIS TEST: 0.10894E+02 AT SCF   CYCLE   1 - MIX   30 %
 TTTTTTTTTTTTTTTTTTTTTTTTTTTTTT FDIK        TELAPSE      109.02 TCPU       93.59
 INSULATING STATE
 TOP OF VALENCE BANDS -    BAND    248; K    1; EIG -1.4839059E-01 AU
 BOTTOM OF VIRTUAL BANDS - BAND    249; K    6; EIG -1.1873278E-01 AU
 INDIRECT ENERGY BAND GAP:   0.8070 eV
 BOTTOM OF VIRTUAL BANDS - BAND    249; K    1; EIG -1.1803993E-01 AU
 TTTTTTTTTTTTTTTTTTTTTTTTTTTTTT PDIG        TELAPSE      109.60 TCPU       94.17
 TOTAL ATOMIC CHARGES:
   1.2259174   1.2259174   1.2259174   1.2259174   1.1847311   1.1847311
   1.1847311   1.1847311   1.2295074   1.2295074   1.2295074   1.2295074
   6.4100515   6.4100515   6.4100515   6.4100515   6.3359733   6.3359733
   6.3359733   6.3359733   6.1489620   6.1489620   6.1489620   6.1489620
   5.9913590   5.9913590   5.9913590   5.9913590   6.5678567   6.5678567
   6.5678567   6.5678567   5.6666179   5.6666179   5.6666179   5.6666179
   6.9744122   6.9744122   6.9744122   6.9744122   6.8112429   6.8112429
   6.8112429   6.8112429   6.9129703   6.9129703   6.9129703   6.9129703
   6.8174530   6.8174530   6.8174530   6.8174530   5.8779974   5.8779974
   5.8779974   5.8779974  29.6989156  29.6348139  35.0115156  35.0115156
  35.0115156  35.0115156
 TTTTTTTTTTTTTTTTTTTTTTTTTTTTTT MOQGAD      TELAPSE      109.62 TCPU       94.19
 TTTTTTTTTTTTTTTTTTTTTTTTTTTTTT SHELLXN     TELAPSE      142.65 TCPU      126.84
 TTTTTTTTTTTTTTTTTTTTTTTTTTTTTT MONMO3      TELAPSE      144.99 TCPU      129.17
 NUMERICALLY INTEGRATED DENSITY    496.0002286163
 TTTTTTTTTTTTTTTTTTTTTTTTTTTTTT NUMDFT      TELAPSE      146.98 TCPU      131.15
 CYC   2 ETOT(AU) -1.586129420447E+04 DETOT  1.96E+00 tst  5.21E-02 PX  6.83E-01
 TTTTTTTTTTTTTTTTTTTTTTTTTTTTTT DIIS        TELAPSE      147.10 TCPU      131.26
 DIIS TEST: 0.24392E+02 AT SCF   CYCLE   2 - DIIS ACTIVE - HISTORY:     2 CYCLES
 TTTTTTTTTTTTTTTTTTTTTTTTTTTTTT FDIK        TELAPSE      155.32 TCPU      137.62
 INSULATING STATE
 TOP OF VALENCE BANDS -    BAND    248; K    5; EIG -2.2176791E-01 AU
 TOP OF VALENCE BANDS -    BAND    248; K    1; EIG -2.2602880E-01 AU
 BOTTOM OF VIRTUAL BANDS - BAND    249; K    1; EIG -1.1709785E-01 AU
 INDIRECT ENERGY BAND GAP:   2.8482 eV
 TTTTTTTTTTTTTTTTTTTTTTTTTTTTTT PDIG        TELAPSE      155.90 TCPU      138.20
 TOTAL ATOMIC CHARGES:
   1.2092059   1.2092059   1.2092059   1.2092059   1.1389000   1.1389000
   1.1389000   1.1389000   1.1611233   1.1611233   1.1611233   1.1611233
   5.9156542   5.9156542   5.9156542   5.9156542   5.8321140   5.8321140
   5.8321140   5.8321140   5.9862617   5.9862617   5.9862617   5.9862617
   6.0779488   6.0779488   6.0779488   6.0779488   5.7577383   5.7577383
   5.7577383   5.7577383   5.8912317   5.8912317   5.8912317   5.8912317
   6.9401828   6.9401828   6.9401828   6.9401828   7.1086232   7.1086232
   7.1086232   7.1086232   6.9857736   6.9857736   6.9857736   6.9857736
   7.1469533   7.1469533   7.1469533   7.1469533   7.3793120   7.3793120
   7.3793120   7.3793120  29.2256673  29.2520614  34.8495450  34.8495450
  34.8495450  34.8495450
 TTTTTTTTTTTTTTTTTTTTTTTTTTTTTT MOQGAD      TELAPSE      155.92 TCPU      138.22
 TTTTTTTTTTTTTTTTTTTTTTTTTTTTTT SHELLXN     TELAPSE      190.84 TCPU      170.81
 TTTTTTTTTTTTTTTTTTTTTTTTTTTTTT MONMO3      TELAPSE      193.31 TCPU      173.28
 NUMERICALLY INTEGRATED DENSITY    496.0002147754
 TTTTTTTTTTTTTTTTTTTTTTTTTTTTTT NUMDFT      TELAPSE      195.30 TCPU      175.26
 CYC   3 ETOT(AU) -1.586449010363E+04 DETOT -3.20E+00 tst  1.46E-02 PX  4.47E-01
 TTTTTTTTTTTTTTTTTTTTTTTTTTTTTT DIIS        TELAPSE      195.43 TCPU      175.38
 DIIS TEST: 0.40523E+01 AT SCF   CYCLE   3 - DIIS ACTIVE - HISTORY:     3 CYCLES
 TTTTTTTTTTTTTTTTTTTTTTTTTTTTTT FDIK        TELAPSE      200.88 TCPU      180.64
 INSULATING STATE
 TOP OF VALENCE BANDS -    BAND    248; K    1; EIG -2.1860385E-01 AU
 BOTTOM OF VIRTUAL BANDS - BAND    249; K    6; EIG -1.1671886E-01 AU
 INDIRECT ENERGY BAND GAP:   2.7724 eV
 BOTTOM OF VIRTUAL BANDS - BAND    249; K    1; EIG -1.1415782E-01 AU
 TTTTTTTTTTTTTTTTTTTTTTTTTTTTTT PDIG        TELAPSE      201.46 TCPU      181.22
 TOTAL ATOMIC CHARGES:
   1.1822340   1.1822340   1.1822340   1.1822340   1.1700070   1.1700070
   1.1700070   1.1700070   1.2100338   1.2100338   1.2100338   1.2100338
   6.2770814   6.2770814   6.2770814   6.2770814   5.7951007   5.7951007
   5.7951007   5.7951007   6.1467097   6.1467097   6.1467097   6.1467097
   5.7706937   5.7706937   5.7706937   5.7706937   5.7473158   5.7473158
   5.7473158   5.7473158   5.9453712   5.9453712   5.9453712   5.9453712
   7.2484888   7.2484888   7.2484888   7.2484888   7.0228139   7.0228139
   7.0228139   7.0228139   7.1827559   7.1827559   7.1827559   7.1827559
   7.0297233   7.0297233   7.0297233   7.0297233   6.9262180   6.9262180
   6.9262180   6.9262180  28.7865924  28.7958415  34.9498443  34.9498443
  34.9498443  34.9498443
 TTTTTTTTTTTTTTTTTTTTTTTTTTTTTT MOQGAD      TELAPSE      201.48 TCPU      181.24
 TTTTTTTTTTTTTTTTTTTTTTTTTTTTTT SHELLXN     TELAPSE      236.42 TCPU      213.79
 TTTTTTTTTTTTTTTTTTTTTTTTTTTTTT MONMO3      TELAPSE      238.91 TCPU      216.27
 NUMERICALLY INTEGRATED DENSITY    496.0002116186
 TTTTTTTTTTTTTTTTTTTTTTTTTTTTTT NUMDFT      TELAPSE      240.94 TCPU      218.28
 CYC   4 ETOT(AU) -1.586497806466E+04 DETOT -4.88E-01 tst  3.39E-03 PX  2.56E-01
 TTTTTTTTTTTTTTTTTTTTTTTTTTTTTT DIIS        TELAPSE      241.18 TCPU      218.53
 DIIS TEST: 0.88041E+00 AT SCF   CYCLE   4 - DIIS ACTIVE - HISTORY:     4 CYCLES
 TTTTTTTTTTTTTTTTTTTTTTTTTTTTTT FDIK        TELAPSE      249.43 TCPU      224.63
 INSULATING STATE
 TOP OF VALENCE BANDS -    BAND    248; K    3; EIG -2.3501134E-01 AU
 TOP OF VALENCE BANDS -    BAND    248; K    1; EIG -2.3823565E-01 AU
 BOTTOM OF VIRTUAL BANDS - BAND    249; K    6; EIG -1.2154291E-01 AU
 INDIRECT ENERGY BAND GAP:   3.0876 eV
 BOTTOM OF VIRTUAL BANDS - BAND    249; K    1; EIG -1.1763561E-01 AU
 TTTTTTTTTTTTTTTTTTTTTTTTTTTTTT PDIG        TELAPSE      250.02 TCPU      225.21
 TOTAL ATOMIC CHARGES:
   1.1979750   1.1979750   1.1979750   1.1979750   1.1595608   1.1595608
   1.1595608   1.1595608   1.1999831   1.1999831   1.1999831   1.1999831
   6.1910556   6.1910556   6.1910556   6.1910556   5.8213351   5.8213351
   5.8213351   5.8213351   6.0631232   6.0631232   6.0631232   6.0631232
   5.8831568   5.8831568   5.8831568   5.8831568   5.8828469   5.8828469
   5.8828469   5.8828469   5.8378499   5.8378499   5.8378499   5.8378499
   7.1279677   7.1279677   7.1279677   7.1279677   7.0641259   7.0641259
   7.0641259   7.0641259   7.1051584   7.1051584   7.1051584   7.1051584
   7.0909718   7.0909718   7.0909718   7.0909718   7.0331999   7.0331999
   7.0331999   7.0331999  28.8289253  28.8244763  34.9283394  34.9283394
  34.9283394  34.9283394
 TTTTTTTTTTTTTTTTTTTTTTTTTTTTTT MOQGAD      TELAPSE      250.04 TCPU      225.23
 TTTTTTTTTTTTTTTTTTTTTTTTTTTTTT SHELLXN     TELAPSE      282.85 TCPU      257.75
 TTTTTTTTTTTTTTTTTTTTTTTTTTTTTT MONMO3      TELAPSE      287.60 TCPU      262.49
 NUMERICALLY INTEGRATED DENSITY    496.0002108425
 TTTTTTTTTTTTTTTTTTTTTTTTTTTTTT NUMDFT      TELAPSE      289.59 TCPU      264.47
 CYC   5 ETOT(AU) -1.586509570996E+04 DETOT -1.18E-01 tst  5.15E-04 PX  9.82E-02
 TTTTTTTTTTTTTTTTTTTTTTTTTTTTTT DIIS        TELAPSE      289.73 TCPU      264.60
 DIIS TEST: 0.14061E+00 AT SCF   CYCLE   5 - DIIS ACTIVE - HISTORY:     5 CYCLES
 TTTTTTTTTTTTTTTTTTTTTTTTTTTTTT FDIK        TELAPSE      297.75 TCPU      270.80
 INSULATING STATE
 TOP OF VALENCE BANDS -    BAND    248; K    3; EIG -2.3288118E-01 AU
 TOP OF VALENCE BANDS -    BAND    248; K    1; EIG -2.3383059E-01 AU
 BOTTOM OF VIRTUAL BANDS - BAND    249; K    6; EIG -1.1921600E-01 AU
 INDIRECT ENERGY BAND GAP:   3.0930 eV
 BOTTOM OF VIRTUAL BANDS - BAND    249; K    1; EIG -1.1641072E-01 AU
 TTTTTTTTTTTTTTTTTTTTTTTTTTTTTT PDIG        TELAPSE      298.34 TCPU      271.38
 TOTAL ATOMIC CHARGES:
   1.1989460   1.1989460   1.1989460   1.1989460   1.1565771   1.1565771
   1.1565771   1.1565771   1.1996123   1.1996123   1.1996123   1.1996123
   6.1755204   6.1755204   6.1755204   6.1755204   5.8261916   5.8261916
   5.8261916   5.8261916   6.1063154   6.1063154   6.1063154   6.1063154
   5.8797120   5.8797120   5.8797120   5.8797120   5.7658138   5.7658138
   5.7658138   5.7658138   5.9168570   5.9168570   5.9168570   5.9168570
   7.1360715   7.1360715   7.1360715   7.1360715   7.0404178   7.0404178
   7.0404178   7.0404178   7.1237492   7.1237492   7.1237492   7.1237492
   7.0738886   7.0738886   7.0738886   7.0738886   7.0229281   7.0229281
   7.0229281   7.0229281  28.8600407  28.8682039  34.9453382  34.9453382
  34.9453382  34.9453382
 TTTTTTTTTTTTTTTTTTTTTTTTTTTTTT MOQGAD      TELAPSE      298.36 TCPU      271.40
 TTTTTTTTTTTTTTTTTTTTTTTTTTTTTT SHELLXN     TELAPSE      331.40 TCPU      304.00
 TTTTTTTTTTTTTTTTTTTTTTTTTTTTTT MONMO3      TELAPSE      334.04 TCPU      306.63
 NUMERICALLY INTEGRATED DENSITY    496.0002131264
 TTTTTTTTTTTTTTTTTTTTTTTTTTTTTT NUMDFT      TELAPSE      336.03 TCPU      308.61
 CYC   6 ETOT(AU) -1.586511090522E+04 DETOT -1.52E-02 tst  7.57E-05 PX  2.97E-02
 TTTTTTTTTTTTTTTTTTTTTTTTTTTTTT DIIS        TELAPSE      336.23 TCPU      308.81
 DIIS TEST: 0.39109E-01 AT SCF   CYCLE   6 - DIIS ACTIVE - HISTORY:     6 CYCLES
 TTTTTTTTTTTTTTTTTTTTTTTTTTTTTT FDIK        TELAPSE      341.77 TCPU      314.19
 INSULATING STATE
 TOP OF VALENCE BANDS -    BAND    248; K    3; EIG -2.3211748E-01 AU
 TOP OF VALENCE BANDS -    BAND    248; K    1; EIG -2.3559043E-01 AU
 BOTTOM OF VIRTUAL BANDS - BAND    249; K    6; EIG -1.1953882E-01 AU
 INDIRECT ENERGY BAND GAP:   3.0634 eV
 BOTTOM OF VIRTUAL BANDS - BAND    249; K    1; EIG -1.1636890E-01 AU
 TTTTTTTTTTTTTTTTTTTTTTTTTTTTTT PDIG        TELAPSE      342.35 TCPU      314.76
 TOTAL ATOMIC CHARGES:
   1.1955175   1.1955175   1.1955175   1.1955175   1.1542171   1.1542171
   1.1542171   1.1542171   1.1990301   1.1990301   1.1990301   1.1990301
   6.1869800   6.1869800   6.1869800   6.1869800   5.8286488   5.8286488
   5.8286488   5.8286488   6.0919151   6.0919151   6.0919151   6.0919151
   5.8594851   5.8594851   5.8594851   5.8594851   5.7944573   5.7944573
   5.7944573   5.7944573   5.8924208   5.8924208   5.8924208   5.8924208
   7.1587578   7.1587578   7.1587578   7.1587578   7.0535652   7.0535652
   7.0535652   7.0535652   7.1067760   7.1067760   7.1067760   7.1067760
   7.0575754   7.0575754   7.0575754   7.0575754   7.0563999   7.0563999
   7.0563999   7.0563999  28.8678179  28.8711916  34.9295015  34.9295015
  34.9295015  34.9295015
 TTTTTTTTTTTTTTTTTTTTTTTTTTTTTT MOQGAD      TELAPSE      342.38 TCPU      314.78
 TTTTTTTTTTTTTTTTTTTTTTTTTTTTTT SHELLXN     TELAPSE      377.34 TCPU      347.40
 TTTTTTTTTTTTTTTTTTTTTTTTTTTTTT MONMO3      TELAPSE      379.69 TCPU      349.74
 NUMERICALLY INTEGRATED DENSITY    496.0002121630
 TTTTTTTTTTTTTTTTTTTTTTTTTTTTTT NUMDFT      TELAPSE      381.68 TCPU      351.72
 CYC   7 ETOT(AU) -1.586511402150E+04 DETOT -3.12E-03 tst  1.70E-05 PX  9.51E-03
 TTTTTTTTTTTTTTTTTTTTTTTTTTTTTT DIIS        TELAPSE      381.81 TCPU      351.85
 DIIS TEST: 0.13457E-01 AT SCF   CYCLE   7 - DIIS ACTIVE - HISTORY:     7 CYCLES
 TTTTTTTTTTTTTTTTTTTTTTTTTTTTTT FDIK        TELAPSE      388.95 TCPU      356.54
 INSULATING STATE
 TOP OF VALENCE BANDS -    BAND    248; K    3; EIG -2.3215707E-01 AU
 TOP OF VALENCE BANDS -    BAND    248; K    1; EIG -2.3444749E-01 AU
 BOTTOM OF VIRTUAL BANDS - BAND    249; K    6; EIG -1.1927637E-01 AU
 INDIRECT ENERGY BAND GAP:   3.0716 eV
 BOTTOM OF VIRTUAL BANDS - BAND    249; K    1; EIG -1.1592375E-01 AU
 TTTTTTTTTTTTTTTTTTTTTTTTTTTTTT PDIG        TELAPSE      389.53 TCPU      357.12
 TOTAL ATOMIC CHARGES:
   1.1963692   1.1963692   1.1963692   1.1963692   1.1556498   1.1556498
   1.1556498   1.1556498   1.1983466   1.1983466   1.1983466   1.1983466
   6.1804592   6.1804592   6.1804592   6.1804592   5.8250678   5.8250678
   5.8250678   5.8250678   6.0927763   6.0927763   6.0927763   6.0927763
   5.8734247   5.8734247   5.8734247   5.8734247   5.8021348   5.8021348
   5.8021348   5.8021348   5.8941302   5.8941302   5.8941302   5.8941302
   7.1275281   7.1275281   7.1275281   7.1275281   7.0446361   7.0446361
   7.0446361   7.0446361   7.1202659   7.1202659   7.1202659   7.1202659
   7.0857630   7.0857630   7.0857630   7.0857630   7.0365460   7.0365460
   7.0365460   7.0365460  28.8667379  28.8727476  34.9320311  34.9320311
  34.9320311  34.9320311
 TTTTTTTTTTTTTTTTTTTTTTTTTTTTTT MOQGAD      TELAPSE      389.55 TCPU      357.14
 TTTTTTTTTTTTTTTTTTTTTTTTTTTTTT SHELLXN     TELAPSE      424.66 TCPU      389.72
 TTTTTTTTTTTTTTTTTTTTTTTTTTTTTT MONMO3      TELAPSE      427.19 TCPU      392.24
 NUMERICALLY INTEGRATED DENSITY    496.0002122124
 TTTTTTTTTTTTTTTTTTTTTTTTTTTTTT NUMDFT      TELAPSE      429.21 TCPU      394.25
 CYC   8 ETOT(AU) -1.586511527187E+04 DETOT -1.25E-03 tst  6.70E-06 PX  7.59E-03
 TTTTTTTTTTTTTTTTTTTTTTTTTTTTTT DIIS        TELAPSE      429.42 TCPU      394.45
 DIIS TEST: 0.36508E-02 AT SCF   CYCLE   8 - DIIS ACTIVE - HISTORY:     8 CYCLES
 TTTTTTTTTTTTTTTTTTTTTTTTTTTTTT FDIK        TELAPSE      436.84 TCPU      399.57
 INSULATING STATE
 TOP OF VALENCE BANDS -    BAND    248; K    3; EIG -2.3245698E-01 AU
 TOP OF VALENCE BANDS -    BAND    248; K    1; EIG -2.3477217E-01 AU
 BOTTOM OF VIRTUAL BANDS - BAND    249; K    6; EIG -1.1936667E-01 AU
 INDIRECT ENERGY BAND GAP:   3.0773 eV
 BOTTOM OF VIRTUAL BANDS - BAND    249; K    1; EIG -1.1610159E-01 AU
 TTTTTTTTTTTTTTTTTTTTTTTTTTTTTT PDIG        TELAPSE      437.42 TCPU      400.15
 TOTAL ATOMIC CHARGES:
   1.1962553   1.1962553   1.1962553   1.1962553   1.1558816   1.1558816
   1.1558816   1.1558816   1.1976973   1.1976973   1.1976973   1.1976973
   6.1780367   6.1780367   6.1780367   6.1780367   5.8225648   5.8225648
   5.8225648   5.8225648   6.0916388   6.0916388   6.0916388   6.0916388
   5.8782801   5.8782801   5.8782801   5.8782801   5.7996328   5.7996328
   5.7996328   5.7996328   5.8962395   5.8962395   5.8962395   5.8962395
   7.1432724   7.1432724   7.1432724   7.1432724   7.0554574   7.0554574
   7.0554574   7.0554574   7.1101208   7.1101208   7.1101208   7.1101208
   7.0694716   7.0694716   7.0694716   7.0694716   7.0365129   7.0365129
   7.0365129   7.0365129  28.8675698  28.8725964  34.9338965  34.9338965
  34.9338965  34.9338965
 TTTTTTTTTTTTTTTTTTTTTTTTTTTTTT MOQGAD      TELAPSE      437.44 TCPU      400.17
 TTTTTTTTTTTTTTTTTTTTTTTTTTTTTT SHELLXN     TELAPSE      472.14 TCPU      432.59
 TTTTTTTTTTTTTTTTTTTTTTTTTTTTTT MONMO3      TELAPSE      474.80 TCPU      435.25
 NUMERICALLY INTEGRATED DENSITY    496.0002123459
 TTTTTTTTTTTTTTTTTTTTTTTTTTTTTT NUMDFT      TELAPSE      476.80 TCPU      437.23
 CYC   9 ETOT(AU) -1.586511564021E+04 DETOT -3.68E-04 tst  2.83E-06 PX  4.45E-03
 TTTTTTTTTTTTTTTTTTTTTTTTTTTTTT DIIS        TELAPSE      476.96 TCPU      437.39
 DIIS TEST: 0.13764E-02 AT SCF   CYCLE   9 - DIIS ACTIVE - HISTORY:     9 CYCLES
 TTTTTTTTTTTTTTTTTTTTTTTTTTTTTT FDIK        TELAPSE      484.45 TCPU      444.72
 INSULATING STATE
 TOP OF VALENCE BANDS -    BAND    248; K    3; EIG -2.3232821E-01 AU
 TOP OF VALENCE BANDS -    BAND    248; K    1; EIG -2.3516174E-01 AU
 BOTTOM OF VIRTUAL BANDS - BAND    249; K    6; EIG -1.1943610E-01 AU
 INDIRECT ENERGY BAND GAP:   3.0720 eV
 BOTTOM OF VIRTUAL BANDS - BAND    249; K    1; EIG -1.1619888E-01 AU
 TTTTTTTTTTTTTTTTTTTTTTTTTTTTTT PDIG        TELAPSE      485.02 TCPU      445.30
 TOTAL ATOMIC CHARGES:
   1.1959999   1.1959999   1.1959999   1.1959999   1.1556558   1.1556558
   1.1556558   1.1556558   1.1981265   1.1981265   1.1981265   1.1981265
   6.1819023   6.1819023   6.1819023   6.1819023   5.8243937   5.8243937
   5.8243937   5.8243937   6.0922576   6.0922576   6.0922576   6.0922576
   5.8722081   5.8722081   5.8722081   5.8722081   5.7968468   5.7968468
   5.7968468   5.7968468   5.8944444   5.8944444   5.8944444   5.8944444
   7.1400442   7.1400442   7.1400442   7.1400442   7.0471239   7.0471239
   7.0471239   7.0471239   7.1161236   7.1161236   7.1161236   7.1161236
   7.0737304   7.0737304   7.0737304   7.0737304   7.0437939   7.0437939
   7.0437939   7.0437939  28.8680148  28.8728880  34.9321232  34.9321232
  34.9321232  34.9321232
 TTTTTTTTTTTTTTTTTTTTTTTTTTTTTT MOQGAD      TELAPSE      485.05 TCPU      445.32
 TTTTTTTTTTTTTTTTTTTTTTTTTTTTTT SHELLXN     TELAPSE      519.57 TCPU      477.52
 TTTTTTTTTTTTTTTTTTTTTTTTTTTTTT MONMO3      TELAPSE      524.51 TCPU      482.44
 NUMERICALLY INTEGRATED DENSITY    496.0002123359
 TTTTTTTTTTTTTTTTTTTTTTTTTTTTTT NUMDFT      TELAPSE      526.51 TCPU      484.43
 CYC  10 ETOT(AU) -1.586511582491E+04 DETOT -1.85E-04 tst  7.67E-07 PX  2.17E-03
 TTTTTTTTTTTTTTTTTTTTTTTTTTTTTT DIIS        TELAPSE      526.67 TCPU      484.59
 DIIS TEST: 0.13992E-03 AT SCF   CYCLE  10 - DIIS ACTIVE - HISTORY:    10 CYCLES
 TTTTTTTTTTTTTTTTTTTTTTTTTTTTTT FDIK        TELAPSE      532.35 TCPU      490.10
 INSULATING STATE
 TOP OF VALENCE BANDS -    BAND    248; K    3; EIG -2.3233384E-01 AU
 TOP OF VALENCE BANDS -    BAND    248; K    1; EIG -2.3496995E-01 AU
 BOTTOM OF VIRTUAL BANDS - BAND    249; K    6; EIG -1.1939231E-01 AU
 INDIRECT ENERGY BAND GAP:   3.0733 eV
 BOTTOM OF VIRTUAL BANDS - BAND    249; K    1; EIG -1.1613473E-01 AU
 TTTTTTTTTTTTTTTTTTTTTTTTTTTTTT PDIG        TELAPSE      532.93 TCPU      490.68
 TOTAL ATOMIC CHARGES:
   1.1958815   1.1958815   1.1958815   1.1958815   1.1553268   1.1553268
   1.1553268   1.1553268   1.1982098   1.1982098   1.1982098   1.1982098
   6.1803471   6.1803471   6.1803471   6.1803471   5.8246505   5.8246505
   5.8246505   5.8246505   6.0931679   6.0931679   6.0931679   6.0931679
   5.8721222   5.8721222   5.8721222   5.8721222   5.7983445   5.7983445
   5.7983445   5.7983445   5.8956447   5.8956447   5.8956447   5.8956447
   7.1383127   7.1383127   7.1383127   7.1383127   7.0509764   7.0509764
   7.0509764   7.0509764   7.1128938   7.1128938   7.1128938   7.1128938
   7.0755155   7.0755155   7.0755155   7.0755155   7.0414052   7.0414052
   7.0414052   7.0414052  28.8675692  28.8723120  34.9322309  34.9322309
  34.9322309  34.9322309
 TTTTTTTTTTTTTTTTTTTTTTTTTTTTTT MOQGAD      TELAPSE      532.95 TCPU      490.70
 TTTTTTTTTTTTTTTTTTTTTTTTTTTTTT SHELLXN     TELAPSE      567.59 TCPU      522.96
 TTTTTTTTTTTTTTTTTTTTTTTTTTTTTT MONMO3      TELAPSE      570.41 TCPU      525.77
 NUMERICALLY INTEGRATED DENSITY    496.0002122299
 TTTTTTTTTTTTTTTTTTTTTTTTTTTTTT NUMDFT      TELAPSE      572.40 TCPU      527.76
 CYC  11 ETOT(AU) -1.586511583590E+04 DETOT -1.10E-05 tst  1.71E-07 PX  9.51E-04
 TTTTTTTTTTTTTTTTTTTTTTTTTTTTTT DIIS        TELAPSE      572.53 TCPU      527.88
 DIIS TEST: 0.66225E-04 AT SCF   CYCLE  11 - DIIS ACTIVE - HISTORY:    11 CYCLES
 TTTTTTTTTTTTTTTTTTTTTTTTTTTTTT FDIK        TELAPSE      578.01 TCPU      530.13
 INSULATING STATE
 TOP OF VALENCE BANDS -    BAND    248; K    3; EIG -2.3234396E-01 AU
 TOP OF VALENCE BANDS -    BAND    248; K    1; EIG -2.3498877E-01 AU
 BOTTOM OF VIRTUAL BANDS - BAND    249; K    6; EIG -1.1941041E-01 AU
 INDIRECT ENERGY BAND GAP:   3.0731 eV
 BOTTOM OF VIRTUAL BANDS - BAND    249; K    1; EIG -1.1614701E-01 AU
 TTTTTTTTTTTTTTTTTTTTTTTTTTTTTT PDIG        TELAPSE      578.59 TCPU      530.71
 TOTAL ATOMIC CHARGES:
   1.1960910   1.1960910   1.1960910   1.1960910   1.1553266   1.1553266
   1.1553266   1.1553266   1.1980812   1.1980812   1.1980812   1.1980812
   6.1802885   6.1802885   6.1802885   6.1802885   5.8241614   5.8241614
   5.8241614   5.8241614   6.0922083   6.0922083   6.0922083   6.0922083
   5.8734119   5.8734119   5.8734119   5.8734119   5.7980993   5.7980993
   5.7980993   5.7980993   5.8953132   5.8953132   5.8953132   5.8953132
   7.1399918   7.1399918   7.1399918   7.1399918   7.0491024   7.0491024
   7.0491024   7.0491024   7.1152251   7.1152251   7.1152251   7.1152251
   7.0737507   7.0737507   7.0737507   7.0737507   7.0414172   7.0414172
   7.0414172   7.0414172  28.8671474  28.8723369  34.9326603  34.9326603
  34.9326603  34.9326603
 TTTTTTTTTTTTTTTTTTTTTTTTTTTTTT MOQGAD      TELAPSE      578.61 TCPU      530.73
 TTTTTTTTTTTTTTTTTTTTTTTTTTTTTT SHELLXN     TELAPSE      611.23 TCPU      563.04
 TTTTTTTTTTTTTTTTTTTTTTTTTTTTTT MONMO3      TELAPSE      614.25 TCPU      566.04
 NUMERICALLY INTEGRATED DENSITY    496.0002122888
 TTTTTTTTTTTTTTTTTTTTTTTTTTTTTT NUMDFT      TELAPSE      616.23 TCPU      568.02
 CYC  12 ETOT(AU) -1.586511584482E+04 DETOT -8.92E-06 tst  6.68E-08 PX  5.33E-04
 TTTTTTTTTTTTTTTTTTTTTTTTTTTTTT DIIS        TELAPSE      616.46 TCPU      568.24
 DIIS TEST: 0.13048E-04 AT SCF   CYCLE  12 - DIIS ACTIVE - HISTORY:    12 CYCLES
 TTTTTTTTTTTTTTTTTTTTTTTTTTTTTT FDIK        TELAPSE      621.75 TCPU      573.39
 INSULATING STATE
 TOP OF VALENCE BANDS -    BAND    248; K    3; EIG -2.3233736E-01 AU
 TOP OF VALENCE BANDS -    BAND    248; K    1; EIG -2.3501143E-01 AU
 BOTTOM OF VIRTUAL BANDS - BAND    249; K    6; EIG -1.1939684E-01 AU
 INDIRECT ENERGY BAND GAP:   3.0733 eV
 BOTTOM OF VIRTUAL BANDS - BAND    249; K    1; EIG -1.1614414E-01 AU
 TTTTTTTTTTTTTTTTTTTTTTTTTTTTTT PDIG        TELAPSE      622.33 TCPU      573.97
 TOTAL ATOMIC CHARGES:
   1.1960146   1.1960146   1.1960146   1.1960146   1.1554679   1.1554679
   1.1554679   1.1554679   1.1981121   1.1981121   1.1981121   1.1981121
   6.1809187   6.1809187   6.1809187   6.1809187   5.8243438   5.8243438
   5.8243438   5.8243438   6.0925178   6.0925178   6.0925178   6.0925178
   5.8727838   5.8727838   5.8727838   5.8727838   5.7977677   5.7977677
   5.7977677   5.7977677   5.8952322   5.8952322   5.8952322   5.8952322
   7.1394743   7.1394743   7.1394743   7.1394743   7.0494973   7.0494973
   7.0494973   7.0494973   7.1142327   7.1142327   7.1142327   7.1142327
   7.0742398   7.0742398   7.0742398   7.0742398   7.0418574   7.0418574
   7.0418574   7.0418574  28.8675894  28.8726441  34.9324815  34.9324815
  34.9324815  34.9324815
[...]
 TTTTTTTTTTTTTTTTTTTTTTTTTTTTTT MOQGAD      TELAPSE    54784.16 TCPU    54325.19
 TTTTTTTTTTTTTTTTTTTTTTTTTTTTTT CP_MONMON   TELAPSE    54793.90 TCPU    54334.89
 DIIS TEST: 0.47927E-01 AT CPHF  CYCLE   8 - DIIS ACTIVE - HISTORY:     8 CYCLES
 CYCLE   8   ALPHA 1100.469605  EPSILON    3.767823  DELTA    8.1473E-01
 TTTTTTTTTTTTTTTTTTTTTTTTTTTTTT MOQGAD      TELAPSE    55349.21 TCPU    54885.83
 TTTTTTTTTTTTTTTTTTTTTTTTTTTTTT CP_MONMON   TELAPSE    55358.93 TCPU    54895.51
 DIIS TEST: 0.44017E-02 AT CPHF  CYCLE   9 - DIIS ACTIVE - HISTORY:     9 CYCLES
 CYCLE   9   ALPHA 1100.662194  EPSILON    3.768308  DELTA    1.9259E-01
 TTTTTTTTTTTTTTTTTTTTTTTTTTTTTT MOQGAD      TELAPSE    55914.33 TCPU    55446.05
 TTTTTTTTTTTTTTTTTTTTTTTTTTTTTT CP_MONMON   TELAPSE    55924.05 TCPU    55455.74
 DIIS TEST: 0.83456E-03 AT CPHF  CYCLE  10 - DIIS ACTIVE - HISTORY:    10 CYCLES
 CYCLE  10   ALPHA 1100.560459  EPSILON    3.768052  DELTA   -1.0174E-01
 TTTTTTTTTTTTTTTTTTTTTTTTTTTTTT MOQGAD      TELAPSE    56480.36 TCPU    56008.20
 TTTTTTTTTTTTTTTTTTTTTTTTTTTTTT CP_MONMON   TELAPSE    56490.09 TCPU    56017.90
 DIIS TEST: 0.11725E-03 AT CPHF  CYCLE  11 - DIIS ACTIVE - HISTORY:    11 CYCLES
 CYCLE  11   ALPHA 1100.527283  EPSILON    3.767968  DELTA   -3.3176E-02
 TTTTTTTTTTTTTTTTTTTTTTTTTTTTTT MOQGAD      TELAPSE    57045.97 TCPU    56570.00
 TTTTTTTTTTTTTTTTTTTTTTTTTTTTTT CP_MONMON   TELAPSE    57055.71 TCPU    56579.69
 DIIS TEST: 0.14600E-04 AT CPHF  CYCLE  12 - DIIS ACTIVE - HISTORY:    12 CYCLES
 CYCLE  12   ALPHA 1100.508738  EPSILON    3.767922  DELTA   -1.8545E-02
 TTTTTTTTTTTTTTTTTTTTTTTTTTTTTT MOQGAD      TELAPSE    57613.09 TCPU    57132.67
 TTTTTTTTTTTTTTTTTTTTTTTTTTTTTT CP_MONMON   TELAPSE    57622.81 TCPU    57142.36
 DIIS TEST: 0.12204E-05 AT CPHF  CYCLE  13 - DIIS ACTIVE - HISTORY:    13 CYCLES
 CYCLE  13   ALPHA 1100.505350  EPSILON    3.767913  DELTA   -3.3879E-03
 TTTTTTTTTTTTTTTTTTTTTTTTTTTTTT MOQGAD      TELAPSE    58178.34 TCPU    57694.12
 TTTTTTTTTTTTTTTTTTTTTTTTTTTTTT CP_MONMON   TELAPSE    58188.06 TCPU    57703.80
 DIIS TEST: 0.10261E-06 AT CPHF  CYCLE  14 - DIIS ACTIVE - HISTORY:    14 CYCLES
 CYCLE  14   ALPHA 1100.503484  EPSILON    3.767909  DELTA   -1.8663E-03
 TTTTTTTTTTTTTTTTTTTTTTTTTTTTTT MOQGAD      TELAPSE    58743.79 TCPU    58255.47
 TTTTTTTTTTTTTTTTTTTTTTTTTTTTTT CP_MONMON   TELAPSE    58753.52 TCPU    58265.16
 DIIS TEST: 0.24789E-07 AT CPHF  CYCLE  15 - DIIS ACTIVE - HISTORY:    15 CYCLES
 CYCLE  15   ALPHA 1100.503301  EPSILON    3.767908  DELTA   -1.8273E-04
 TTTTTTTTTTTTTTTTTTTTTTTTTTTTTT CP_SC       TELAPSE    58790.82 TCPU    58300.59

 *******************************************************************************

 ELECTRIC FIELD APPLIED ALONG CARTESIAN DIRECTION Z

 *******************************************************************************
 THE NUMBER OF SYMMETRY OPERATORS HAS BEEN REDUCED FROM  4 TO  1

 NEW GRID IN RECIPROCAL SPACE
 *******************************************************************************
 POINTS IN THE IBZ                  14 SHRINKING FACTORS               3  3  3
 *******************************************************************************
 *** K POINTS COORDINATES (OBLIQUE COORDINATES IN UNITS OF SHRINK FAC. )
   1-R(  0  0  0)   2-C(  1  0  0)   3-C(  0  1  2)   4-C(  2  0  1)
   5-C(  0  2  0)   6-C(  1  1  0)   7-C(  1  1  1)   8-C(  1  0  1)
   9-C(  0  1  1)  10-C(  2  1  0)  11-C(  0  0  2)  12-C(  2  1  1)
  13-C(  2  1  2)  14-C(  2  2  1)

 GCALCO - MAX INDICES DIRECT LATTICE VECTOR    14    14    16
 NO.OF VECTORS CREATED 6999 STARS  475 RMAX   203.30522 BOHR
 TTTTTTTTTTTTTTTTTTTTTTTTTTTTTT gordsh1     TELAPSE    58817.28 TCPU    58326.70

 MATRIX SIZE: P(G) 1965600, F(G)  983640, P(G) IRR  985438, F(G) IRR  985438
 MAX G-VECTOR INDEX FOR 1- AND 2-ELECTRON INTEGRALS 201

 TTTTTTTTTTTTTTTTTTTTTTTTTTTTTT INPUT       TELAPSE    58828.03 TCPU    58337.29
 TTTTTTTTTTTTTTTTTTTTTTTTTTTTTT SYMM        TELAPSE    58828.03 TCPU    58337.29

 ***** NEW REFERENCE GEOMETRY *****
 TTTTTTTTTTTTTTTTTTTTTTTTTTTTTT INT_SCREEN  TELAPSE    58828.04 TCPU    58337.30
 INFORMATION **** EXCBUF **** EXCH. BIPO BUFFER: WORDS USED =           0

 DFT PARAMETERS

     ATOM       ELECTRONS   NET CHARGE   R(ANGSTROM)
   1   1  H       1.0000      0.0000     1.11000000
  13   6  C       6.0000      0.0000     0.77000000
  37   7  N       7.0000      0.0000     0.74000000
  57  30  ZN     30.0000      0.0000     1.37000000
  59  35  BR     35.0000      0.0000     1.14000000

 SIZE OF GRID=    1810264
 TTTTTTTTTTTTTTTTTTTTTTTTTTTTTT MAKE_GRID2  TELAPSE    58829.37 TCPU    58338.62
 BECKE WEIGHT FUNCTION
 RADSAFE =     2.00
 TOLERANCES - DENSITY:10**- 6; POTENTIAL:10**- 9; GRID WGT:10**-14

 RADIAL INTEGRATION  - INTERVALS (POINTS,UPPER LIMIT):            1( 75,  4.0*R)

 ANGULAR INTEGRATION - INTERVALS (ACCURACY LEVEL [N. POINTS] UPPER LIMIT):
  1(  4[  86]   0.2)  2(  8[ 194]   0.5)  3( 12[ 350]   0.9)  4( 16[ 974]   3.5)
  5( 12[ 350]9999.0)
 TTTTTTTTTTTTTTTTTTTTTTTTTTTTTT INT_CALC    TELAPSE    58829.44 TCPU    58338.69
 CYCLE   0   ALPHA  966.674474  EPSILON    3.431311  DELTA    9.6667E+02
 TTTTTTTTTTTTTTTTTTTTTTTTTTTTTT MOQGAD      TELAPSE    59332.25 TCPU    58838.92
 TTTTTTTTTTTTTTTTTTTTTTTTTTTTTT CP_MONMON   TELAPSE    59341.98 TCPU    58848.60
 DIIS TEST: 0.22235E+03 AT CPHF  CYCLE   1 - MIX    0 %
 CYCLE   1   ALPHA  131.312711  EPSILON    1.330268  DELTA   -8.3536E+02
 TTTTTTTTTTTTTTTTTTTTTTTTTTTTTT MOQGAD      TELAPSE    59849.14 TCPU    59350.99
 TTTTTTTTTTTTTTTTTTTTTTTTTTTTTT CP_MONMON   TELAPSE    59858.87 TCPU    59360.68
 DIIS TEST: 0.23172E+04 AT CPHF  CYCLE   2 - DIIS ACTIVE - HISTORY:     2 CYCLES
 CYCLE   2   ALPHA  631.510164  EPSILON    2.588330  DELTA    5.0020E+02
 TTTTTTTTTTTTTTTTTTTTTTTTTTTTTT MOQGAD      TELAPSE    60368.19 TCPU    59865.92
 TTTTTTTTTTTTTTTTTTTTTTTTTTTTTT CP_MONMON   TELAPSE    60377.90 TCPU    59875.60
 DIIS TEST: 0.55682E+02 AT CPHF  CYCLE   3 - DIIS ACTIVE - HISTORY:     3 CYCLES
 CYCLE   3   ALPHA  686.003136  EPSILON    2.725387  DELTA    5.4493E+01
 TTTTTTTTTTTTTTTTTTTTTTTTTTTTTT MOQGAD      TELAPSE    60882.65 TCPU    60376.64
 TTTTTTTTTTTTTTTTTTTTTTTTTTTTTT CP_MONMON   TELAPSE    60892.36 TCPU    60386.33
 DIIS TEST: 0.16366E+02 AT CPHF  CYCLE   4 - DIIS ACTIVE - HISTORY:     4 CYCLES
 CYCLE   4   ALPHA  697.021514  EPSILON    2.753099  DELTA    1.1018E+01
 TTTTTTTTTTTTTTTTTTTTTTTTTTTTTT MOQGAD      TELAPSE    61399.04 TCPU    60889.40
 TTTTTTTTTTTTTTTTTTTTTTTTTTTTTT CP_MONMON   TELAPSE    61408.76 TCPU    60899.08
 DIIS TEST: 0.10724E+01 AT CPHF  CYCLE   5 - DIIS ACTIVE - HISTORY:     5 CYCLES
 CYCLE   5   ALPHA  697.560821  EPSILON    2.754456  DELTA    5.3931E-01
 TTTTTTTTTTTTTTTTTTTTTTTTTTTTTT MOQGAD      TELAPSE    61914.65 TCPU    61401.46
 TTTTTTTTTTTTTTTTTTTTTTTTTTTTTT CP_MONMON   TELAPSE    61924.36 TCPU    61411.14
 DIIS TEST: 0.39755E+00 AT CPHF  CYCLE   6 - DIIS ACTIVE - HISTORY:     6 CYCLES
 CYCLE   6   ALPHA  697.900129  EPSILON    2.755309  DELTA    3.3931E-01
 TTTTTTTTTTTTTTTTTTTTTTTTTTTTTT MOQGAD      TELAPSE    62431.22 TCPU    61914.29
 TTTTTTTTTTTTTTTTTTTTTTTTTTTTTT CP_MONMON   TELAPSE    62440.93 TCPU    61923.97
 DIIS TEST: 0.24749E+01 AT CPHF  CYCLE   7 - DIIS ACTIVE - HISTORY:     7 CYCLES
 CYCLE   7   ALPHA  698.785797  EPSILON    2.757537  DELTA    8.8567E-01
 TTTTTTTTTTTTTTTTTTTTTTTTTTTTTT MOQGAD      TELAPSE    62947.05 TCPU    62426.34
 TTTTTTTTTTTTTTTTTTTTTTTTTTTTTT CP_MONMON   TELAPSE    62956.76 TCPU    62436.01
 DIIS TEST: 0.28476E-01 AT CPHF  CYCLE   8 - DIIS ACTIVE - HISTORY:     8 CYCLES
 CYCLE   8   ALPHA  698.906574  EPSILON    2.757840  DELTA    1.2078E-01
 TTTTTTTTTTTTTTTTTTTTTTTTTTTTTT MOQGAD      TELAPSE    63463.56 TCPU    62939.18
 TTTTTTTTTTTTTTTTTTTTTTTTTTTTTT CP_MONMON   TELAPSE    63473.27 TCPU    62948.85
 DIIS TEST: 0.58204E-02 AT CPHF  CYCLE   9 - DIIS ACTIVE - HISTORY:     9 CYCLES
 CYCLE   9   ALPHA  699.016577  EPSILON    2.758117  DELTA    1.1000E-01
 TTTTTTTTTTTTTTTTTTTTTTTTTTTTTT MOQGAD      TELAPSE    63979.00 TCPU    63450.64
 TTTTTTTTTTTTTTTTTTTTTTTTTTTTTT CP_MONMON   TELAPSE    63988.70 TCPU    63460.31
 DIIS TEST: 0.56731E-03 AT CPHF  CYCLE  10 - DIIS ACTIVE - HISTORY:    10 CYCLES
 CYCLE  10   ALPHA  698.976303  EPSILON    2.758016  DELTA   -4.0274E-02
 TTTTTTTTTTTTTTTTTTTTTTTTTTTTTT MOQGAD      TELAPSE    64496.75 TCPU    63964.61
 TTTTTTTTTTTTTTTTTTTTTTTTTTTTTT CP_MONMON   TELAPSE    64506.46 TCPU    63974.29
 DIIS TEST: 0.89147E-04 AT CPHF  CYCLE  11 - DIIS ACTIVE - HISTORY:    11 CYCLES
 CYCLE  11   ALPHA  698.946112  EPSILON    2.757940  DELTA   -3.0191E-02
 TTTTTTTTTTTTTTTTTTTTTTTTTTTTTT MOQGAD      TELAPSE    65013.42 TCPU    64477.54
 TTTTTTTTTTTTTTTTTTTTTTTTTTTTTT CP_MONMON   TELAPSE    65023.13 TCPU    64487.22
 DIIS TEST: 0.10791E-04 AT CPHF  CYCLE  12 - DIIS ACTIVE - HISTORY:    12 CYCLES
 CYCLE  12   ALPHA  698.939818  EPSILON    2.757924  DELTA   -6.2940E-03
 TTTTTTTTTTTTTTTTTTTTTTTTTTTTTT MOQGAD      TELAPSE    65529.94 TCPU    64990.29
 TTTTTTTTTTTTTTTTTTTTTTTTTTTTTT CP_MONMON   TELAPSE    65539.66 TCPU    64999.97
 DIIS TEST: 0.18769E-05 AT CPHF  CYCLE  13 - DIIS ACTIVE - HISTORY:    13 CYCLES
 CYCLE  13   ALPHA  698.937562  EPSILON    2.757918  DELTA   -2.2558E-03
 TTTTTTTTTTTTTTTTTTTTTTTTTTTTTT MOQGAD      TELAPSE    66046.14 TCPU    65502.81
 TTTTTTTTTTTTTTTTTTTTTTTTTTTTTT CP_MONMON   TELAPSE    66055.86 TCPU    65512.49
 DIIS TEST: 0.16564E-06 AT CPHF  CYCLE  14 - DIIS ACTIVE - HISTORY:    14 CYCLES
 CYCLE  14   ALPHA  698.937088  EPSILON    2.757917  DELTA   -4.7478E-04
 TTTTTTTTTTTTTTTTTTTTTTTTTTTTTT CP_SC       TELAPSE    66081.48 TCPU    65536.27

 *******************************************************************************

 POLARIZABILITY (ALPHA), DIELECTRIC (EPSILON) AND FIRST-ORDER ELECTRIC
 SUSCEPTIBILITY (CHI(1)) TENSORS (INDEPENDENT COMPONENTS)

  FR.(eV) COMP.   ALPHA(Re,Im)           EPSILON(Re,Im)                CHI(1)
  2.331   XX    1100.5033       0.0000       3.7679       0.0000       2.7679
  2.331   XY       0.0015       0.0000       0.0000       0.0000       0.0000
  2.331   XZ      -0.0000       0.0000      -0.0000       0.0000      -0.0000
  2.331   YY    1100.5033       0.0000       3.7679       0.0000       2.7679
  2.331   YZ      -0.0000       0.0000      -0.0000       0.0000      -0.0000
  2.331   ZZ     698.9371       0.0000       2.7579       0.0000       1.7579

 DIELECTRIC TENSOR

 TENSOR IN PRINCIPAL AXES SYSTEM
 AA  3.767904E+00 BB  3.767912E+00 CC  2.757917E+00

 REFRACTIVE INDICES 
 AA  1.660698E+00 BB  1.941109E+00 CC  1.941111E+00

 OPTICALLY ANISOTROPIC - UNIAXIAL CRYSTAL

 BIREFRINGENCE =  0.2804 (NEGATIVE) - OBLATE OPTICAL ELLIPSOID

 EPSILON=N**2=1+CHI(1)=1+ALPHA*4*PI/V,   4*PI/V=   0.00252 BOHR**(-3)
 ALPHA IN BOHR**3; EPSILON AND CHI(1) ARE DIMENSIONLESS.
 *******************************************************************************


  Pockels Effect beta(-omega;omega,0) with omega=   1.1653 eV


 SIZE OF GRID=    1810264
 TTTTTTTTTTTTTTTTTTTTTTTTTTTTTT MAKE_GRID2  TELAPSE    66206.12 TCPU    65660.00
 BECKE WEIGHT FUNCTION
 RADSAFE =     2.00
 TOLERANCES - DENSITY:10**- 6; POTENTIAL:10**- 9; GRID WGT:10**-14

 RADIAL INTEGRATION  - INTERVALS (POINTS,UPPER LIMIT):            1( 75,  4.0*R)

 ANGULAR INTEGRATION - INTERVALS (ACCURACY LEVEL [N. POINTS] UPPER LIMIT):
  1(  4[  86]   0.2)  2(  8[ 194]   0.5)  3( 12[ 350]   0.9)  4( 16[ 974]   3.5)
  5( 12[ 350]9999.0)

 SIZE OF GRID=    1810264
 TTTTTTTTTTTTTTTTTTTTTTTTTTTTTT MAKE_GRID2  TELAPSE    66208.19 TCPU    65661.86
 BECKE WEIGHT FUNCTION
 RADSAFE =     2.00
 TOLERANCES - DENSITY:10**- 6; POTENTIAL:10**- 9; GRID WGT:10**-14

 RADIAL INTEGRATION  - INTERVALS (POINTS,UPPER LIMIT):            1( 75,  4.0*R)

 ANGULAR INTEGRATION - INTERVALS (ACCURACY LEVEL [N. POINTS] UPPER LIMIT):
  1(  4[  86]   0.2)  2(  8[ 194]   0.5)  3( 12[ 350]   0.9)  4( 16[ 974]   3.5)
  5( 12[ 350]9999.0)
 *******************************************************************************

 DC-POCKELS AND SECOND ELECTRIC SUSCEPTIBILITY (CHI(2))
 TENSORS (INDEPENDENT COMPONENTS)

BETA                                         CHI(2)       d(MKS)       d(cgs)
 *******************************************************************************

     XXX          0.3207E-02   0.4034E-05   0.3922E-05   0.9357E-07
     XXY         -0.9994E-03  -0.1257E-05  -0.1222E-05  -0.2915E-07
     XXZ         -0.3631E+03  -0.4566E+00  -0.4440E+00  -0.1059E-01
     XYX          0.1214E-02   0.1526E-05   0.1484E-05   0.3541E-07
     XYY         -0.5013E-03  -0.6304E-06  -0.6130E-06  -0.1462E-07
     XYZ          0.9221E+03   0.1160E+01   0.1128E+01   0.2690E-01
     XZX         -0.3855E+03  -0.4848E+00  -0.4714E+00  -0.1125E-01
     XZY          0.9043E+03   0.1137E+01   0.1106E+01   0.2638E-01
     XZZ         -0.7628E-03  -0.9592E-06  -0.9327E-06  -0.2225E-07
     YXX          0.1302E-02   0.1637E-05   0.1592E-05   0.3798E-07
     YXY         -0.4921E-03  -0.6188E-06  -0.6017E-06  -0.1435E-07
     YXZ          0.9221E+03   0.1160E+01   0.1128E+01   0.2690E-01
     YYX          0.2780E-02   0.3496E-05   0.3399E-05   0.8110E-07
     YYY          0.1954E-02   0.2457E-05   0.2389E-05   0.5700E-07
     YYZ          0.3631E+03   0.4566E+00   0.4440E+00   0.1059E-01
     YZX          0.9043E+03   0.1137E+01   0.1106E+01   0.2638E-01
     YZY          0.3855E+03   0.4848E+00   0.4714E+00   0.1125E-01
     YZZ          0.7973E-03   0.1003E-05   0.9749E-06   0.2326E-07
     ZXX         -0.3858E+03  -0.4851E+00  -0.4717E+00  -0.1125E-01
     ZXY          0.9043E+03   0.1137E+01   0.1106E+01   0.2638E-01
     ZXZ         -0.7418E-03  -0.9329E-06  -0.9071E-06  -0.2164E-07
     ZYX          0.9043E+03   0.1137E+01   0.1106E+01   0.2638E-01
     ZYY          0.3857E+03   0.4851E+00   0.4717E+00   0.1125E-01
     ZYZ          0.9741E-03   0.1225E-05   0.1191E-05   0.2842E-07
     ZZX          0.3763E-02   0.4732E-05   0.4602E-05   0.1098E-06
     ZZY         -0.2071E-02  -0.2604E-05  -0.2532E-05  -0.6040E-07
     ZZZ         -0.4057E-02  -0.5102E-05  -0.4961E-05  -0.1184E-06
 *******************************************************************************
 CHI(2) = BETA*2PI/V

 BETA AND CHI(2) IN A.U.:    [BETA] = M**(-1/2) L**(7/2) T
                             [CHI(2)] = 1/F
                             (L=LENGTH, M=MASS, T=TIME, F=FIELD INTENSITY)

 ELECTRIC SUSCEPTIBILITY IN THE SECOND HARMONIC GENERATION (SHG) CONVENTION IS:
                   d(A.U.)= 1/2 CHI(2)
                   d(MKS) = d(A.U.)/0.514220632 pm/V
                   d(CGS) = d(A.U.)/(4PI*1.7152535)  10**(-7) esu

 FIELD INTENSITY: 1 A.U. = 0.514220632*10**(11) V/m = 1.7152535*10**7 esu
 BEWARE:                CHI(2)=P/(E0*F**2)   (MKS)
                        CHI(2)=P/F**2        (CGS)
 WHERE P IS THE POLARIZATION VECTOR AND F IS THE APPLIED ELECTRIC FIELD.
 CONSISTENCY IS  PRESERVED BY MULTIPLYING THE CGS VALUE TIMES THE PERMITTIVITY
 OF THE VACUUM, E0 (CONVERSION FACTORS FROM www.physics.nist.gov/constants).
 IN PARENTHESIS: BETA BEFORE SYMMETRIZATION.

  SHG Effect beta(-2omega;omega,omega) with omega=   1.1653 eV


 SIZE OF GRID=    1810264
 TTTTTTTTTTTTTTTTTTTTTTTTTTTTTT MAKE_GRID2  TELAPSE    66380.16 TCPU    65833.26
 BECKE WEIGHT FUNCTION
 RADSAFE =     2.00
 TOLERANCES - DENSITY:10**- 6; POTENTIAL:10**- 9; GRID WGT:10**-14

 RADIAL INTEGRATION  - INTERVALS (POINTS,UPPER LIMIT):            1( 75,  4.0*R)

 ANGULAR INTEGRATION - INTERVALS (ACCURACY LEVEL [N. POINTS] UPPER LIMIT):
  1(  4[  86]   0.2)  2(  8[ 194]   0.5)  3( 12[ 350]   0.9)  4( 16[ 974]   3.5)
  5( 12[ 350]9999.0)

 SIZE OF GRID=    1810264
 TTTTTTTTTTTTTTTTTTTTTTTTTTTTTT MAKE_GRID2  TELAPSE    66381.68 TCPU    65834.76
 BECKE WEIGHT FUNCTION
 RADSAFE =     2.00
 TOLERANCES - DENSITY:10**- 6; POTENTIAL:10**- 9; GRID WGT:10**-14

 RADIAL INTEGRATION  - INTERVALS (POINTS,UPPER LIMIT):            1( 75,  4.0*R)

 ANGULAR INTEGRATION - INTERVALS (ACCURACY LEVEL [N. POINTS] UPPER LIMIT):
  1(  4[  86]   0.2)  2(  8[ 194]   0.5)  3( 12[ 350]   0.9)  4( 16[ 974]   3.5)
  5( 12[ 350]9999.0)
 *******************************************************************************

 SECOND HARMONIC GENERATION (SHG)  AND SECOND ELECTRIC SUSCEPTIBILITY (CHI(2))
 TENSORS (INDEPENDENT COMPONENTS)

BETA                                         CHI(2)       d(MKS)       d(cgs)
 *******************************************************************************

     XXX         -0.2555E-03  -0.3214E-06  -0.3125E-06  -0.7454E-08
     XXY          0.1363E-02   0.1714E-05   0.1667E-05   0.3976E-07
     XXZ         -0.2780E+03  -0.3495E+00  -0.3399E+00  -0.8108E-02
     XYX          0.1363E-02   0.1714E-05   0.1667E-05   0.3976E-07
     XYY         -0.3202E-03  -0.4026E-06  -0.3915E-06  -0.9340E-08
     XYZ          0.1227E+04   0.1543E+01   0.1500E+01   0.3580E-01
     XZX         -0.2780E+03  -0.3495E+00  -0.3399E+00  -0.8108E-02
     XZY          0.1227E+04   0.1543E+01   0.1500E+01   0.3580E-01
     XZZ         -0.1069E-02  -0.1344E-05  -0.1307E-05  -0.3118E-07
     YXX          0.1821E-02   0.2289E-05   0.2226E-05   0.5311E-07
     YXY         -0.4350E-03  -0.5470E-06  -0.5319E-06  -0.1269E-07
     YXZ          0.1227E+04   0.1543E+01   0.1500E+01   0.3580E-01
     YYX         -0.4350E-03  -0.5470E-06  -0.5319E-06  -0.1269E-07
     YYY          0.5091E-02   0.6402E-05   0.6225E-05   0.1485E-06
     YYZ          0.2779E+03   0.3495E+00   0.3399E+00   0.8108E-02
     YZX          0.1227E+04   0.1543E+01   0.1500E+01   0.3580E-01
     YZY          0.2779E+03   0.3495E+00   0.3399E+00   0.8108E-02
     YZZ          0.1065E-02   0.1339E-05   0.1302E-05   0.3106E-07
     ZXX         -0.3846E+03  -0.4836E+00  -0.4702E+00  -0.1122E-01
     ZXY          0.1227E+04   0.1543E+01   0.1501E+01   0.3580E-01
     ZXZ         -0.6792E-03  -0.8541E-06  -0.8305E-06  -0.1981E-07
     ZYX          0.1227E+04   0.1543E+01   0.1501E+01   0.3580E-01
     ZYY          0.3846E+03   0.4836E+00   0.4702E+00   0.1122E-01
     ZYZ          0.1125E-02   0.1415E-05   0.1375E-05   0.3281E-07
     ZZX         -0.6792E-03  -0.8541E-06  -0.8305E-06  -0.1981E-07
     ZZY          0.1125E-02   0.1415E-05   0.1375E-05   0.3281E-07
     ZZZ         -0.5233E-02  -0.6581E-05  -0.6399E-05  -0.1527E-06
 *******************************************************************************
 CHI(2) = BETA*2PI/V

 BETA AND CHI(2) IN A.U.:    [BETA] = M**(-1/2) L**(7/2) T
                             [CHI(2)] = 1/F
                             (L=LENGTH, M=MASS, T=TIME, F=FIELD INTENSITY)

 ELECTRIC SUSCEPTIBILITY IN THE SECOND HARMONIC GENERATION (SHG) CONVENTION IS:
                   d(A.U.)= 1/2 CHI(2)
                   d(MKS) = d(A.U.)/0.514220632 pm/V
                   d(CGS) = d(A.U.)/(4PI*1.7152535)  10**(-7) esu

 FIELD INTENSITY: 1 A.U. = 0.514220632*10**(11) V/m = 1.7152535*10**7 esu
 BEWARE:                CHI(2)=P/(E0*F**2)   (MKS)
                        CHI(2)=P/F**2        (CGS)
 WHERE P IS THE POLARIZATION VECTOR AND F IS THE APPLIED ELECTRIC FIELD.
 CONSISTENCY IS  PRESERVED BY MULTIPLYING THE CGS VALUE TIMES THE PERMITTIVITY
 OF THE VACUUM, E0 (CONVERSION FACTORS FROM www.physics.nist.gov/constants).
 IN PARENTHESIS: BETA BEFORE SYMMETRIZATION.

 *******************************************************************************


 GCALCO - MAX INDICES DIRECT LATTICE VECTOR    14    14    16
 NO.OF VECTORS CREATED 6999 STARS  475 RMAX   203.30522 BOHR

 CAPPA:IS1  3;IS2  3;IS3  3; K PTS MONK NET   6; SYMMOPS:K SPACE   8;G SPACE   4

 TTTTTTTTTTTTTTTTTTTTTTTTTTTTTT END         TELAPSE    66381.85 TCPU    65834.94
 EEEEEEEEEE TERMINATION  DATE 22 01 2024 TIME 15:50:25.1
NODE    0 CPU TIME =     65834.938
    TOTAL CPU TIME =   4214849.896
trying normal rsh (/usr/bin/rsh)
exec: No such file or directory
trying normal rsh (/usr/bin/rsh)
exec: No such file or directory
trying normal rsh (/usr/bin/rsh)
exec: No such file or directory
trying normal rsh (/usr/bin/rsh)
exec: No such file or directory
