Loading crystal17/1.0.2/intel/19.0
  Loading requirement: intel/19.0 ompi/4.0.1/intel/19.0
          64 PROCESSORS WORKING

         
 *******************************************************************************
 *                                                                             *
 *                               CRYSTAL17                                     *
 *                      public : 1.0.2 - March 1st, 2018                       *
 *                       HTTP://WWW.CRYSTAL.UNITO.IT                           *
 *                                                                             *
 *                              MAIN AUTHORS                                   *
 *                                                                             *
 *  R. DOVESI(1,11), V.R. SAUNDERS(2), C. ROETTI(1,11), R. ORLANDO(1,11),      *
 *  C.M. ZICOVICH-WILSON(1,3), F. PASCALE(4), B. CIVALLERI(1,11),              *
 *  K. DOLL(5), N.M. HARRISON(2,6), I.J. BUSH(7), Ph. D'ARCO(8),               *
 *  M. LLUNELL(9), M. CAUSA'(10), Y. NOEL(8), L. MASCHIO(1,11), A. ERBA(1,11)  *
 *  M. RE'RAT(14), S. CASASSA(1,11)                                            *
 *                                                                             *
 *        CONTRIBUTIONS TO THE CODE HAVE ALSO BEEN GIVEN BY                    *
 *                                                                             *
 *  M. FERRABONE(1,11), M. DE LA PIERRE(1,11), M. FERRERO(1,11),               *
 *  J. BAIMA(1,11), E. ALBANESE(1,11), M.F. PEINTINGER(12), R. BAST(13),       *
 *  B. KIRTMAN(15), V. LACIVITA(1,11), R. DEMICHELIS(1,16)                     *
 *  G. BRANDEBURG(17), S. SALUSTRO(1,11), G. SANSONE(1,11)                     *
 *  M.T. RUGGIERO(18)                                                          *
 *                                                                             *
 * (1) THEORETICAL CHEMISTRY GROUP - UNIVERSITA' DI TORINO - TORINO (ITALY)    *
 * (2) COMPUTATIONAL SCIENCE & ENGINEERING DEPARTMENT - STFC DARESBURY (UK)    *
 * (3) UNIVERSIDAD AUTONOMA DEL ESTADO DE MORELOS - CUERNAVACA (MEXICO)        *
 * (4) UNIVERSITE' DE LORRAINE - NANCY (FRANCE)                                *
 * (5) UNIVERSITAET STUTTGART- STUTTGART (GERMANY)                             *
 * (6) IMPERIAL COLLEGE - LONDON (UK)                                          *
 * (7) OXFORD E-RESEARCH CENTRE - OXFORD (UK)                                  *
 * (8) UPMC - SORBONNE UNIVERSITES - PARIS (FRANCE)                            *
 * (9) UNIVERSIDAD DE BARCELONA - BARCELONA (SPAIN)                            *
 *(10) UNIVERSITA' DI NAPOLI "FEDERICO II" - NAPOLI (ITALY)                    *
 *(11) NIS - NANOSTRUCTURED INTERFACES AND SURFACES - TORINO (ITALY)           *
 *(12) MPI FUER CHEMISCHE ENERGIEKONVERSION - MUELHEIM AN DER RUHR (GERMANY)   *
 *(13) UNIVERSITY OF TROMSO - TROMSO (NORWAY)                                  *
 *(14) UNIVERSITE' DE PAU ET DES PAYS DE L'ADOUR - PAU (FRANCE)                *
 *(15) UNIVERSITY OF CALIFORNIA SANTA BARBARA - SANTA BARBARA (USA)            *
 *(16) CURTIN UNIVERSITY - PERTH (AUSTRALIA)                                   *
 *(17) UNIVERSITY COLLEGE LONDON - LONDON (UK)                                 *
 *(18) CAMBRIDGE UNIVERSITY - CAMBRIDGE (UK)                                   *
 *                                                                             *
 *******************************************************************************
 EEEEEEEEEE STARTING  DATE 21 01 2024 TIME 21:24:55.3
 Z:\home\sanoj\Downloads\tmp_p\newconn.mol                                       

 CRYSTAL CALCULATION
 (INPUT ACCORDING TO THE INTERNATIONAL TABLES FOR X-RAY CRYSTALLOGRAPHY)
 CRYSTAL FAMILY                       :  TETRAGONAL  
 CRYSTAL CLASS  (GROTH - 1921)        :  TETRAGONAL DISPHENOIDAL              

 SPACE GROUP (NONCENTROSYMMETRIC)     :  I -4            

 LATTICE PARAMETERS  (ANGSTROMS AND DEGREES) - CONVENTIONAL CELL
        A           B           C        ALPHA        BETA       GAMMA
    10.69243    10.69243    12.90394    90.00000    90.00000    90.00000


 NUMBER OF IRREDUCIBLE ATOMS IN THE CONVENTIONAL CELL:   17

 INPUT COORDINATES

 ATOM AT. N.              COORDINATES
   1   1     9.757000000000E-02  7.356500000000E-01  3.697200000000E-01
   2   1     4.814600000000E-01  8.552100000000E-01  4.165600000000E-01
   3   1     4.068800000000E-01  4.750700000000E-01  3.851300000000E-01
   4   6     2.848600000000E-01  8.130100000000E-01  3.913600000000E-01
   5   6     2.563000000000E-01 -5.421000000000E-02  3.802200000000E-01
   6   6     1.969200000000E-01  7.157800000000E-01  3.802900000000E-01
   7   6     3.722700000000E-01  5.715400000000E-01  3.879100000000E-01
   8   6     4.119400000000E-01  7.820100000000E-01  4.035600000000E-01
   9   6     7.559800000000E-01  4.059900000000E-01  3.780300000000E-01
  10   7     3.382600000000E-01  2.526000000000E-02  3.332500000000E-01
  11   7     2.851400000000E-01  1.424400000000E-01  3.350400000000E-01
  12   7     1.544500000000E-01  1.189000000000E-02  4.102000000000E-01
  13   7     1.750300000000E-01  1.347400000000E-01  3.802800000000E-01
  14   7     4.551000000000E-01  6.645600000000E-01  4.009900000000E-01
  15  30     0.000000000000E+00  5.000000000000E-01  7.500000000000E-01
  16  30     0.000000000000E+00  0.000000000000E+00  5.000000000000E-01
  17  35     1.488700000000E-01  4.472000000000E-01  3.546000000000E-01

 *******************************************************************************

 << INFORMATION >>: FROM NOW ON, ALL COORDINATES REFER TO THE PRIMITIVE CELL

 *******************************************************************************

 LATTICE PARAMETERS  (ANGSTROMS AND DEGREES) - PRIMITIVE CELL
       A          B          C        ALPHA      BETA     GAMMA        VOLUME
    9.93941    9.93941    9.93941   114.92109 114.92109  99.04794    737.640684

 COORDINATES OF THE EQUIVALENT ATOMS (FRACTIONAL UNITS)

 N. ATOM EQUIV AT. N.          X                  Y                  Z

   1   1   1    1 H     1.05370000000E-01  4.67290000000E-01 -1.66780000000E-01
   2   1   2    1 H    -3.65930000000E-01  2.72150000000E-01  1.66780000000E-01
   3   1   3    1 H    -4.67290000000E-01  3.65930000000E-01 -3.61920000000E-01
   4   1   4    1 H    -2.72150000000E-01 -1.05370000000E-01  3.61920000000E-01

   5   2   1    1 H     2.71770000000E-01 -1.01980000000E-01  3.36670000000E-01
   6   2   2    1 H    -4.38650000000E-01 -6.49000000000E-02 -3.36670000000E-01
   7   2   3    1 H     1.01980000000E-01  4.38650000000E-01  3.73750000000E-01
   8   2   4    1 H     6.49000000000E-02 -2.71770000000E-01 -3.73750000000E-01

   9   3   1    1 H    -1.39800000000E-01 -2.07990000000E-01 -1.18050000000E-01
  10   3   2    1 H    -8.99400000000E-02 -2.17500000000E-02  1.18050000000E-01
  11   3   3    1 H     2.07990000000E-01  8.99400000000E-02  6.81900000000E-02
  12   3   4    1 H     2.17500000000E-02  1.39800000000E-01 -6.81900000000E-02

  13   4   1    6 C     2.04370000000E-01 -3.23780000000E-01  9.78700000000E-02
  14   4   2    6 C    -4.21650000000E-01  1.06500000000E-01 -9.78700000000E-02
  15   4   3    6 C     3.23780000000E-01  4.21650000000E-01 -4.71850000000E-01
  16   4   4    6 C    -1.06500000000E-01 -2.04370000000E-01  4.71850000000E-01

  17   5   1    6 C     3.26010000000E-01 -3.63480000000E-01  2.02090000000E-01
  18   5   2    6 C     4.34430000000E-01  1.23920000000E-01 -2.02090000000E-01
  19   5   3    6 C     3.63480000000E-01 -4.34430000000E-01 -3.10510000000E-01
  20   5   4    6 C    -1.23920000000E-01 -3.26010000000E-01  3.10510000000E-01

  21   6   1    6 C     9.60700000000E-02 -4.22790000000E-01 -8.73000000000E-02
  22   6   2    6 C    -3.35490000000E-01  1.83370000000E-01  8.73000000000E-02
  23   6   3    6 C     4.22790000000E-01  3.35490000000E-01 -4.81140000000E-01
  24   6   4    6 C    -1.83370000000E-01 -9.60700000000E-02  4.81140000000E-01

  25   7   1    6 C    -4.05500000000E-02 -2.39820000000E-01 -5.61900000000E-02
  26   7   2    6 C    -1.83630000000E-01  1.56400000000E-02  5.61900000000E-02
  27   7   3    6 C     2.39820000000E-01  1.83630000000E-01  1.99270000000E-01
  28   7   4    6 C    -1.56400000000E-02  4.05500000000E-02 -1.99270000000E-01

  29   8   1    6 C     1.85570000000E-01 -1.84500000000E-01  1.93950000000E-01
  30   8   2    6 C    -3.78450000000E-01 -8.38000000000E-03 -1.93950000000E-01
  31   8   3    6 C     1.84500000000E-01  3.78450000000E-01  3.70070000000E-01
  32   8   4    6 C     8.38000000000E-03 -1.85570000000E-01 -3.70070000000E-01

  33   9   1    6 C    -2.15980000000E-01  1.34010000000E-01  1.61970000000E-01
  34   9   2    6 C    -2.79600000000E-02 -3.77950000000E-01 -1.61970000000E-01
  35   9   3    6 C    -1.34010000000E-01  2.79600000000E-02 -3.49990000000E-01
  36   9   4    6 C     3.77950000000E-01  2.15980000000E-01  3.49990000000E-01

  37  10   1    7 N     3.58510000000E-01 -3.28490000000E-01  3.63520000000E-01
  38  10   2    7 N     3.07990000000E-01 -5.01000000000E-03 -3.63520000000E-01
  39  10   3    7 N     3.28490000000E-01 -3.07990000000E-01 -3.13000000000E-01
  40  10   4    7 N     5.01000000000E-03 -3.58510000000E-01  3.13000000000E-01

  41  11   1    7 N     4.77480000000E-01 -3.79820000000E-01  4.27580000000E-01
  42  11   2    7 N     1.92600000000E-01  4.99000000000E-02 -4.27580000000E-01
  43  11   3    7 N     3.79820000000E-01 -1.92600000000E-01 -1.42700000000E-01
  44  11   4    7 N    -4.99000000000E-02 -4.77480000000E-01  1.42700000000E-01

  45  12   1    7 N     4.22090000000E-01 -4.35350000000E-01  1.66340000000E-01
  46  12   2    7 N     3.98310000000E-01  2.55750000000E-01 -1.66340000000E-01
  47  12   3    7 N     4.35350000000E-01 -3.98310000000E-01 -1.42560000000E-01
  48  12   4    7 N    -2.55750000000E-01 -4.22090000000E-01  1.42560000000E-01

  49  13   1    7 N    -4.84980000000E-01 -4.44690000000E-01  3.09770000000E-01
  50  13   2    7 N     2.45540000000E-01  2.05250000000E-01 -3.09770000000E-01
  51  13   3    7 N     4.44690000000E-01 -2.45540000000E-01 -4.02900000000E-02
  52  13   4    7 N    -2.05250000000E-01  4.84980000000E-01  4.02900000000E-02

  53  14   1    7 N     6.55500000000E-02 -1.43910000000E-01  1.19660000000E-01
  54  14   2    7 N    -2.63570000000E-01 -5.41100000000E-02 -1.19660000000E-01
  55  14   3    7 N     1.43910000000E-01  2.63570000000E-01  2.09460000000E-01
  56  14   4    7 N     5.41100000000E-02 -6.55500000000E-02 -2.09460000000E-01

  57  15   1   30 ZN    2.50000000000E-01 -2.50000000000E-01 -5.00000000000E-01

  58  16   1   30 ZN   -5.00000000000E-01 -5.00000000000E-01  0.00000000000E+00

  59  17   1   35 BR   -1.98200000000E-01 -4.96530000000E-01 -4.03930000000E-01
  60  17   2   35 BR   -9.26000000000E-02  2.05730000000E-01  4.03930000000E-01
  61  17   3   35 BR    4.96530000000E-01  9.26000000000E-02  2.98330000000E-01
  62  17   4   35 BR   -2.05730000000E-01  1.98200000000E-01 -2.98330000000E-01

 NUMBER OF SYMMETRY OPERATORS         :    4
 *******************************************************************************
 * GEOMETRY EDITING - INPUT COORDINATES ARE GIVEN IN ANGSTROM         
 *******************************************************************************

 GEOMETRY NOW FULLY CONSISTENT WITH THE GROUP

 GCALCO - MAX INDICES DIRECT LATTICE VECTOR    14    14    16
 NO.OF VECTORS CREATED 6999 STARS  485 RMAX   203.49894 BOHR

 GEOMETRY FOR WAVE FUNCTION - DIMENSIONALITY OF THE SYSTEM    3
 (NON PERIODIC DIRECTION: LATTICE PARAMETER FORMALLY SET TO 500)
 *******************************************************************************
 LATTICE PARAMETERS (ANGSTROMS AND DEGREES) - BOHR = 0.5291772083 ANGSTROM
 PRIMITIVE CELL - CENTRING CODE 6/0 VOLUME=   737.640684 - DENSITY  2.304 g/cm^3
         A              B              C           ALPHA      BETA       GAMMA 
     9.93941151     9.93941151     9.93941151   114.921085 114.921085  99.047941
 *******************************************************************************
 ATOMS IN THE ASYMMETRIC UNIT   17 - ATOMS IN THE UNIT CELL:   62
     ATOM                 X/A                 Y/B                 Z/C    
 *******************************************************************************
      1 T   1 H     1.053700000000E-01  4.672900000000E-01 -1.667800000000E-01
      2 F   1 H    -3.659300000000E-01  2.721500000000E-01  1.667800000000E-01
      3 F   1 H    -4.672900000000E-01  3.659300000000E-01 -3.619200000000E-01
      4 F   1 H    -2.721500000000E-01 -1.053700000000E-01  3.619200000000E-01
      5 T   1 H     2.717700000000E-01 -1.019800000000E-01  3.366700000000E-01
      6 F   1 H    -4.386500000000E-01 -6.490000000000E-02 -3.366700000000E-01
      7 F   1 H     1.019800000000E-01  4.386500000000E-01  3.737500000000E-01
      8 F   1 H     6.490000000000E-02 -2.717700000000E-01 -3.737500000000E-01
      9 T   1 H    -1.398000000000E-01 -2.079900000000E-01 -1.180500000000E-01
     10 F   1 H    -8.994000000000E-02 -2.175000000000E-02  1.180500000000E-01
     11 F   1 H     2.079900000000E-01  8.994000000000E-02  6.819000000000E-02
     12 F   1 H     2.175000000000E-02  1.398000000000E-01 -6.819000000000E-02
     13 T   6 C     2.043700000000E-01 -3.237800000000E-01  9.787000000000E-02
     14 F   6 C    -4.216500000000E-01  1.065000000000E-01 -9.787000000000E-02
     15 F   6 C     3.237800000000E-01  4.216500000000E-01 -4.718500000000E-01
     16 F   6 C    -1.065000000000E-01 -2.043700000000E-01  4.718500000000E-01
     17 T   6 C     3.260100000000E-01 -3.634800000000E-01  2.020900000000E-01
     18 F   6 C     4.344300000000E-01  1.239200000000E-01 -2.020900000000E-01
     19 F   6 C     3.634800000000E-01 -4.344300000000E-01 -3.105100000000E-01
     20 F   6 C    -1.239200000000E-01 -3.260100000000E-01  3.105100000000E-01
     21 T   6 C     9.607000000000E-02 -4.227900000000E-01 -8.730000000000E-02
     22 F   6 C    -3.354900000000E-01  1.833700000000E-01  8.730000000000E-02
     23 F   6 C     4.227900000000E-01  3.354900000000E-01 -4.811400000000E-01
     24 F   6 C    -1.833700000000E-01 -9.607000000000E-02  4.811400000000E-01
     25 T   6 C    -4.055000000000E-02 -2.398200000000E-01 -5.619000000000E-02
     26 F   6 C    -1.836300000000E-01  1.564000000000E-02  5.619000000000E-02
     27 F   6 C     2.398200000000E-01  1.836300000000E-01  1.992700000000E-01
     28 F   6 C    -1.564000000000E-02  4.055000000000E-02 -1.992700000000E-01
     29 T   6 C     1.855700000000E-01 -1.845000000000E-01  1.939500000000E-01
     30 F   6 C    -3.784500000000E-01 -8.380000000000E-03 -1.939500000000E-01
     31 F   6 C     1.845000000000E-01  3.784500000000E-01  3.700700000000E-01
     32 F   6 C     8.380000000000E-03 -1.855700000000E-01 -3.700700000000E-01
     33 T   6 C    -2.159800000000E-01  1.340100000000E-01  1.619700000000E-01
     34 F   6 C    -2.796000000000E-02 -3.779500000000E-01 -1.619700000000E-01
     35 F   6 C    -1.340100000000E-01  2.796000000000E-02 -3.499900000000E-01
     36 F   6 C     3.779500000000E-01  2.159800000000E-01  3.499900000000E-01
     37 T   7 N     3.585100000000E-01 -3.284900000000E-01  3.635200000000E-01
     38 F   7 N     3.079900000000E-01 -5.010000000000E-03 -3.635200000000E-01
     39 F   7 N     3.284900000000E-01 -3.079900000000E-01 -3.130000000000E-01
     40 F   7 N     5.010000000000E-03 -3.585100000000E-01  3.130000000000E-01
     41 T   7 N     4.774800000000E-01 -3.798200000000E-01  4.275800000000E-01
     42 F   7 N     1.926000000000E-01  4.990000000000E-02 -4.275800000000E-01
     43 F   7 N     3.798200000000E-01 -1.926000000000E-01 -1.427000000000E-01
     44 F   7 N    -4.990000000000E-02 -4.774800000000E-01  1.427000000000E-01
     45 T   7 N     4.220900000000E-01 -4.353500000000E-01  1.663400000000E-01
     46 F   7 N     3.983100000000E-01  2.557500000000E-01 -1.663400000000E-01
     47 F   7 N     4.353500000000E-01 -3.983100000000E-01 -1.425600000000E-01
     48 F   7 N    -2.557500000000E-01 -4.220900000000E-01  1.425600000000E-01
     49 T   7 N    -4.849800000000E-01 -4.446900000000E-01  3.097700000000E-01
     50 F   7 N     2.455400000000E-01  2.052500000000E-01 -3.097700000000E-01
     51 F   7 N     4.446900000000E-01 -2.455400000000E-01 -4.029000000000E-02
     52 F   7 N    -2.052500000000E-01  4.849800000000E-01  4.029000000000E-02
     53 T   7 N     6.555000000000E-02 -1.439100000000E-01  1.196600000000E-01
     54 F   7 N    -2.635700000000E-01 -5.411000000000E-02 -1.196600000000E-01
     55 F   7 N     1.439100000000E-01  2.635700000000E-01  2.094600000000E-01
     56 F   7 N     5.411000000000E-02 -6.555000000000E-02 -2.094600000000E-01
     57 T  30 ZN    2.500000000000E-01 -2.500000000000E-01  5.000000000000E-01
     58 T  30 ZN    5.000000000000E-01 -5.000000000000E-01  0.000000000000E+00
     59 T  35 BR   -1.982000000000E-01 -4.965300000000E-01 -4.039300000000E-01
     60 F  35 BR   -9.260000000000E-02  2.057300000000E-01  4.039300000000E-01
     61 F  35 BR    4.965300000000E-01  9.260000000000E-02  2.983300000000E-01
     62 F  35 BR   -2.057300000000E-01  1.982000000000E-01 -2.983300000000E-01

 TRANSFORMATION MATRIX PRIMITIVE-CRYSTALLOGRAPHIC CELL
  0.0000  1.0000  1.0000  1.0000  0.0000  1.0000  1.0000  1.0000  0.0000

 *******************************************************************************
 CRYSTALLOGRAPHIC CELL (VOLUME=       1475.28136742)
         A              B              C           ALPHA      BETA       GAMMA 
    10.69242715    10.69242715    12.90393769    90.000000  90.000000  90.000000

 COORDINATES IN THE CRYSTALLOGRAPHIC CELL
     ATOM                 X/A                 Y/B                 Z/C    
 *******************************************************************************
      1 T   1 H    -4.024300000000E-01  2.356500000000E-01 -1.302800000000E-01
      2 F   1 H     4.024300000000E-01 -2.356500000000E-01 -1.302800000000E-01
      3 F   1 H     2.356500000000E-01  4.024300000000E-01  1.302800000000E-01
      4 F   1 H    -2.356500000000E-01 -4.024300000000E-01  1.302800000000E-01
      5 T   1 H    -1.854000000000E-02  3.552100000000E-01 -8.344000000000E-02
      6 F   1 H     1.854000000000E-02 -3.552100000000E-01 -8.344000000000E-02
      7 F   1 H     3.552100000000E-01  1.854000000000E-02  8.344000000000E-02
      8 F   1 H    -3.552100000000E-01 -1.854000000000E-02  8.344000000000E-02
      9 T   1 H    -9.312000000000E-02 -2.493000000000E-02 -1.148700000000E-01
     10 F   1 H     9.312000000000E-02  2.493000000000E-02 -1.148700000000E-01
     11 F   1 H    -2.493000000000E-02  9.312000000000E-02  1.148700000000E-01
     12 F   1 H     2.493000000000E-02 -9.312000000000E-02  1.148700000000E-01
     13 T   6 C    -2.151400000000E-01  3.130100000000E-01 -1.086400000000E-01
     14 F   6 C     2.151400000000E-01 -3.130100000000E-01 -1.086400000000E-01
     15 F   6 C     3.130100000000E-01  2.151400000000E-01  1.086400000000E-01
     16 F   6 C    -3.130100000000E-01 -2.151400000000E-01  1.086400000000E-01
     17 T   6 C    -2.437000000000E-01  4.457900000000E-01 -1.197800000000E-01
     18 F   6 C     2.437000000000E-01 -4.457900000000E-01 -1.197800000000E-01
     19 F   6 C     4.457900000000E-01  2.437000000000E-01  1.197800000000E-01
     20 F   6 C    -4.457900000000E-01 -2.437000000000E-01  1.197800000000E-01
     21 T   6 C    -3.030800000000E-01  2.157800000000E-01 -1.197100000000E-01
     22 F   6 C     3.030800000000E-01 -2.157800000000E-01 -1.197100000000E-01
     23 F   6 C     2.157800000000E-01  3.030800000000E-01  1.197100000000E-01
     24 F   6 C    -2.157800000000E-01 -3.030800000000E-01  1.197100000000E-01
     25 T   6 C    -1.277300000000E-01  7.154000000000E-02 -1.120900000000E-01
     26 F   6 C     1.277300000000E-01 -7.154000000000E-02 -1.120900000000E-01
     27 F   6 C     7.154000000000E-02  1.277300000000E-01  1.120900000000E-01
     28 F   6 C    -7.154000000000E-02 -1.277300000000E-01  1.120900000000E-01
     29 T   6 C    -8.806000000000E-02  2.820100000000E-01 -9.644000000000E-02
     30 F   6 C     8.806000000000E-02 -2.820100000000E-01 -9.644000000000E-02
     31 F   6 C     2.820100000000E-01  8.806000000000E-02  9.644000000000E-02
     32 F   6 C    -2.820100000000E-01 -8.806000000000E-02  9.644000000000E-02
     33 T   6 C     2.559800000000E-01 -9.401000000000E-02 -1.219700000000E-01
     34 F   6 C    -2.559800000000E-01  9.401000000000E-02 -1.219700000000E-01
     35 F   6 C    -9.401000000000E-02 -2.559800000000E-01  1.219700000000E-01
     36 F   6 C     9.401000000000E-02  2.559800000000E-01  1.219700000000E-01
     37 T   7 N     3.382600000000E-01  2.526000000000E-02  3.332500000000E-01
     38 F   7 N    -3.382600000000E-01 -2.526000000000E-02  3.332500000000E-01
     39 F   7 N     2.526000000000E-02 -3.382600000000E-01 -3.332500000000E-01
     40 F   7 N    -2.526000000000E-02  3.382600000000E-01 -3.332500000000E-01
     41 T   7 N    -2.148600000000E-01 -3.575600000000E-01 -1.649600000000E-01
     42 F   7 N     2.148600000000E-01  3.575600000000E-01 -1.649600000000E-01
     43 F   7 N    -3.575600000000E-01  2.148600000000E-01  1.649600000000E-01
     44 F   7 N     3.575600000000E-01 -2.148600000000E-01  1.649600000000E-01
     45 T   7 N     1.544500000000E-01  1.189000000000E-02  4.102000000000E-01
     46 F   7 N    -1.544500000000E-01 -1.189000000000E-02  4.102000000000E-01
     47 F   7 N     1.189000000000E-02 -1.544500000000E-01 -4.102000000000E-01
     48 F   7 N    -1.189000000000E-02  1.544500000000E-01 -4.102000000000E-01
     49 T   7 N     1.750300000000E-01  1.347400000000E-01  3.802800000000E-01
     50 F   7 N    -1.750300000000E-01 -1.347400000000E-01  3.802800000000E-01
     51 F   7 N     1.347400000000E-01 -1.750300000000E-01 -3.802800000000E-01
     52 F   7 N    -1.347400000000E-01  1.750300000000E-01 -3.802800000000E-01
     53 T   7 N    -4.490000000000E-02  1.645600000000E-01 -9.901000000000E-02
     54 F   7 N     4.490000000000E-02 -1.645600000000E-01 -9.901000000000E-02
     55 F   7 N     1.645600000000E-01  4.490000000000E-02  9.901000000000E-02
     56 F   7 N    -1.645600000000E-01 -4.490000000000E-02  9.901000000000E-02
     57 T  30 ZN    5.000000000000E-01  4.395669663471E-17  2.500000000000E-01
     58 T  30 ZN    0.000000000000E+00  0.000000000000E+00 -5.000000000000E-01
     59 T  35 BR   -3.511300000000E-01 -5.280000000000E-02 -1.454000000000E-01
     60 F  35 BR    3.511300000000E-01  5.280000000000E-02 -1.454000000000E-01
     61 F  35 BR   -5.280000000000E-02  3.511300000000E-01  1.454000000000E-01
     62 F  35 BR    5.280000000000E-02 -3.511300000000E-01  1.454000000000E-01

 T = ATOM BELONGING TO THE ASYMMETRIC UNIT

 ****    4 SYMMOPS - TRANSLATORS IN FRACTIONAL UNITS
 **** MATRICES AND TRANSLATORS IN THE CRYSTALLOGRAPHIC REFERENCE FRAME
   V INV                    ROTATION MATRICES                   TRANSLATORS
   1   1  1.00  0.00  0.00  0.00  1.00  0.00  0.00  0.00  1.00  0.00  0.00  0.00
   2   2 -0.00  1.00 -1.00  1.00  0.00 -1.00  0.00 -0.00 -1.00  0.00  0.00  0.00
   3   4  0.00 -1.00 -0.00  0.00 -1.00  1.00  1.00 -1.00 -0.00  0.00  0.00  0.00
   4   3 -1.00  0.00  1.00 -1.00  0.00  0.00 -1.00  1.00  0.00  0.00  0.00  0.00

 DIRECT LATTICE VECTORS CARTESIAN COMPONENTS (ANGSTROM)
          X                    Y                    Z
  -0.534621357600E+01   0.534621357600E+01   0.645196884425E+01
   0.534621357600E+01  -0.534621357600E+01   0.645196884425E+01
   0.534621357600E+01   0.534621357600E+01  -0.645196884425E+01


 CARTESIAN COORDINATES - PRIMITIVE CELL
 *******************************************************************************
 *      ATOM          X(ANGSTROM)         Y(ANGSTROM)         Z(ANGSTROM)
 *******************************************************************************
    1     1 H    -4.302953458779E+00  2.519670458369E+00 -1.681125002058E+00
    2     1 H     4.302953458779E+00 -2.519670458369E+00 -1.681125002058E+00
    3     1 H     2.519670458369E+00  4.302953458779E+00  1.681125002058E+00
    4     1 H    -2.519670458369E+00 -4.302953458779E+00  1.681125002058E+00
    5     1 H    -1.982375993981E-01  3.798057048662E+00 -1.076704560728E+00
    6     1 H     1.982375993981E-01 -3.798057048662E+00 -1.076704560728E+00
    7     1 H     3.798057048662E+00  1.982375993981E-01  1.076704560728E+00
    8     1 H    -3.798057048662E+00 -1.982375993981E-01  1.076704560728E+00
    9     1 H    -9.956788163942E-01 -2.665622088994E-01 -1.482275322278E+00
   10     1 H     9.956788163942E-01  2.665622088994E-01 -1.482275322278E+00
   11     1 H    -2.665622088994E-01  9.956788163942E-01  1.482275322278E+00
   12     1 H     2.665622088994E-01 -9.956788163942E-01  1.482275322278E+00
   13     6 C    -2.300368777481E+00  3.346836622848E+00 -1.401883790479E+00
   14     6 C     2.300368777481E+00 -3.346836622848E+00 -1.401883790479E+00
   15     6 C     3.346836622848E+00  2.300368777481E+00  1.401883790479E+00
   16     6 C    -3.346836622848E+00 -2.300368777481E+00  1.401883790479E+00
   17     6 C    -2.605744496942E+00  4.766577100090E+00 -1.545633656329E+00
   18     6 C     2.605744496942E+00 -4.766577100090E+00 -1.545633656329E+00
   19     6 C     4.766577100090E+00  2.605744496942E+00  1.545633656329E+00
   20     6 C    -4.766577100090E+00 -2.605744496942E+00  1.545633656329E+00
   21     6 C    -3.240660821228E+00  2.307211930859E+00 -1.544730380690E+00
   22     6 C     3.240660821228E+00 -2.307211930859E+00 -1.544730380690E+00
   23     6 C     2.307211930859E+00  3.240660821228E+00  1.544730380690E+00
   24     6 C    -2.307211930859E+00 -3.240660821228E+00  1.544730380690E+00
   25     6 C    -1.365743720125E+00  7.649362384541E-01 -1.446402375504E+00
   26     6 C     1.365743720125E+00 -7.649362384541E-01 -1.446402375504E+00
   27     6 C     7.649362384541E-01  1.365743720125E+00  1.446402375504E+00
   28     6 C    -7.649362384541E-01 -1.365743720125E+00  1.446402375504E+00
   29     6 C    -9.415751350051E-01  3.015371381136E+00 -1.244455750679E+00
   30     6 C     9.415751350051E-01 -3.015371381136E+00 -1.244455750679E+00
   31     6 C     3.015371381136E+00  9.415751350051E-01  1.244455750679E+00
   32     6 C    -3.015371381136E+00 -9.415751350051E-01  1.244455750679E+00
   33     6 C     2.737047502369E+00 -1.005195076560E+00 -1.573893279866E+00
   34     6 C    -2.737047502369E+00  1.005195076560E+00 -1.573893279866E+00
   35     6 C    -1.005195076560E+00 -2.737047502369E+00  1.573893279866E+00
   36     6 C     1.005195076560E+00  2.737047502369E+00  1.573893279866E+00
   37     7 N     3.616820408436E+00  2.700907098595E-01  4.300237234693E+00
   38     7 N    -3.616820408436E+00 -2.700907098595E-01  4.300237234693E+00
   39     7 N     2.700907098595E-01 -3.616820408436E+00 -4.300237234693E+00
   40     7 N    -2.700907098595E-01  3.616820408436E+00 -4.300237234693E+00
   41     7 N    -2.297374897879E+00 -3.823184252469E+00 -2.128633561095E+00
   42     7 N     2.297374897879E+00  3.823184252469E+00 -2.128633561095E+00
   43     7 N    -3.823184252469E+00  2.297374897879E+00  2.128633561095E+00
   44     7 N     3.823184252469E+00 -2.297374897879E+00  2.128633561095E+00
   45     7 N     1.651445373626E+00  1.271329588373E-01  5.293195239823E+00
   46     7 N    -1.651445373626E+00 -1.271329588373E-01  5.293195239823E+00
   47     7 N     1.271329588373E-01 -1.651445373626E+00 -5.293195239823E+00
   48     7 N    -1.271329588373E-01  1.651445373626E+00 -5.293195239823E+00
   49     7 N     1.871495524415E+00  1.440697634460E+00  4.907109424183E+00
   50     7 N    -1.871495524415E+00 -1.440697634460E+00  4.907109424183E+00
   51     7 N     1.440697634460E+00 -1.871495524415E+00 -4.907109424183E+00
   52     7 N    -1.440697634460E+00  1.871495524415E+00 -4.907109424183E+00
   53     7 N    -4.800899791248E-01  1.759545812133E+00 -1.277618870538E+00
   54     7 N     4.800899791248E-01 -1.759545812133E+00 -1.277618870538E+00
   55     7 N     1.759545812133E+00  4.800899791248E-01  1.277618870538E+00
   56     7 N    -1.759545812133E+00 -4.800899791248E-01  1.277618870538E+00
   57    30 ZN    5.346213576000E+00  4.700037766092E-16 -9.677953266375E+00
   58    30 ZN    0.000000000000E+00  0.000000000000E+00  6.451968844250E+00
   59    35 BR   -3.754431945882E+00 -5.645601536256E-01 -1.876232539908E+00
   60    35 BR    3.754431945882E+00  5.645601536256E-01 -1.876232539908E+00
   61    35 BR   -5.645601536256E-01  3.754431945882E+00  1.876232539908E+00
   62    35 BR    5.645601536256E-01 -3.754431945882E+00  1.876232539908E+00

 *******************************************************************************
 STARTING BASIS SET HANDLING 
 *******************************************************************************

 Loading internal basis set: POB-DZVPP           

 Please cite in your publication:
 Peintinger, M. F., Oliveira, D. V. and Bredow, T. (2013), Generally applicable 
 solid-state Gaussian basis sets, in preparation                                
                                                                                
                    

 *******************************************************************************
 LOCAL ATOMIC FUNCTIONS BASIS SET
 *******************************************************************************
   ATOM   X(AU)   Y(AU)   Z(AU)  N. TYPE  EXPONENT  S COEF   P COEF   D/F/G COEF
 *******************************************************************************
   1 H   -8.131   4.761  -3.177
                                  1 S  
                                         2.263E+01 1.441E-02 0.000E+00 0.000E+00
                                         3.236E+00 1.072E-01 0.000E+00 0.000E+00
                                         7.304E-01 3.846E-01 0.000E+00 0.000E+00
                                  2 S  
                                         1.417E-01 1.000E+00 0.000E+00 0.000E+00
                           3-     5 P  
                                         3.944E-01 0.000E+00 1.000E+00 0.000E+00
                           6-     8 P  
                                         1.006E-01 0.000E+00 1.000E+00 0.000E+00
   2 H    8.131  -4.761  -3.177
   3 H    4.761   8.131   3.177
   4 H   -4.761  -8.131   3.177
   5 H   -0.375   7.177  -2.035
   6 H    0.375  -7.177  -2.035
   7 H    7.177   0.375   2.035
   8 H   -7.177  -0.375   2.035
   9 H   -1.882  -0.504  -2.801
  10 H    1.882   0.504  -2.801
  11 H   -0.504   1.882   2.801
  12 H    0.504  -1.882   2.801
  13 C   -4.347   6.325  -2.649
                                 97 S  
                                         1.238E+03 5.457E-03 0.000E+00 0.000E+00
                                         1.863E+02 4.064E-02 0.000E+00 0.000E+00
                                         4.225E+01 1.803E-01 0.000E+00 0.000E+00
                                         1.168E+01 4.632E-01 0.000E+00 0.000E+00
                                         3.593E+00 4.409E-01 0.000E+00 0.000E+00
                                 98 S  
                                         5.281E+00 1.000E+00 0.000E+00 0.000E+00
                                 99 S  
                                         4.447E-01 1.000E+00 0.000E+00 0.000E+00
                         100-   102 P  
                                         9.468E+00 0.000E+00 3.839E-02 0.000E+00
                                         2.010E+00 0.000E+00 2.112E-01 0.000E+00
                                         5.477E-01 0.000E+00 5.133E-01 0.000E+00
                         103-   105 P  
                                         1.604E-01 0.000E+00 1.000E+00 0.000E+00
                         106-   110 D  
                                         6.070E-01 0.000E+00 0.000E+00 1.000E+00
                         111-   115 D  
                                         2.939E-01 0.000E+00 0.000E+00 1.000E+00
  14 C    4.347  -6.325  -2.649
  15 C    6.325   4.347   2.649
  16 C   -6.325  -4.347   2.649
  17 C   -4.924   9.008  -2.921
  18 C    4.924  -9.008  -2.921
  19 C    9.008   4.924   2.921
  20 C   -9.008  -4.924   2.921
  21 C   -6.124   4.360  -2.919
  22 C    6.124  -4.360  -2.919
  23 C    4.360   6.124   2.919
  24 C   -4.360  -6.124   2.919
  25 C   -2.581   1.446  -2.733
  26 C    2.581  -1.446  -2.733
  27 C    1.446   2.581   2.733
  28 C   -1.446  -2.581   2.733
  29 C   -1.779   5.698  -2.352
  30 C    1.779  -5.698  -2.352
  31 C    5.698   1.779   2.352
  32 C   -5.698  -1.779   2.352
  33 C    5.172  -1.900  -2.974
  34 C   -5.172   1.900  -2.974
  35 C   -1.900  -5.172   2.974
  36 C    1.900   5.172   2.974
  37 N    6.835   0.510   8.126
                                553 S  
                                         1.713E+03-5.393E-03 0.000E+00 0.000E+00
                                         2.576E+02-4.022E-02 0.000E+00 0.000E+00
                                         5.846E+01-1.793E-01 0.000E+00 0.000E+00
                                         1.620E+01-4.638E-01 0.000E+00 0.000E+00
                                         5.005E+00-4.417E-01 0.000E+00 0.000E+00
                                554 S  
                                         6.217E-01 1.000E+00 0.000E+00 0.000E+00
                                555 S  
                                         2.921E-01 1.000E+00 0.000E+00 0.000E+00
                         556-   558 P  
                                         1.357E+01 0.000E+00-4.007E-02 0.000E+00
                                         2.926E+00 0.000E+00-2.181E-01 0.000E+00
                                         7.993E-01 0.000E+00-5.129E-01 0.000E+00
                         559-   561 P  
                                         2.244E-01 0.000E+00 1.000E+00 0.000E+00
                         562-   566 D  
                                         3.118E-01 0.000E+00 0.000E+00 1.000E+00
  38 N   -6.835  -0.510   8.126
  39 N    0.510  -6.835  -8.126
  40 N   -0.510   6.835  -8.126
  41 N   -4.341  -7.225  -4.023
  42 N    4.341   7.225  -4.023
  43 N   -7.225   4.341   4.023
  44 N    7.225  -4.341   4.023
  45 N    3.121   0.240  10.003
  46 N   -3.121  -0.240  10.003
  47 N    0.240  -3.121 -10.003
  48 N   -0.240   3.121 -10.003
  49 N    3.537   2.723   9.273
  50 N   -3.537  -2.723   9.273
  51 N    2.723  -3.537  -9.273
  52 N   -2.723   3.537  -9.273
  53 N   -0.907   3.325  -2.414
  54 N    0.907  -3.325  -2.414
  55 N    3.325   0.907   2.414
  56 N   -3.325  -0.907   2.414
  57 ZN  10.103   0.000 -18.289
                                833 S  
                                         8.200E+04 1.421E-03 0.000E+00 0.000E+00
                                         1.231E+04 1.089E-02 0.000E+00 0.000E+00
                                         2.801E+03 5.406E-02 0.000E+00 0.000E+00
                                         7.910E+02 1.885E-01 0.000E+00 0.000E+00
                                         2.576E+02 3.835E-01 0.000E+00 0.000E+00
                                         8.881E+01 2.972E-01 0.000E+00 0.000E+00
                                834 S  
                                         1.719E+02-1.105E-01 0.000E+00 0.000E+00
                                         2.030E+01 6.461E-01 0.000E+00 0.000E+00
                                         8.346E+00 4.422E-01 0.000E+00 0.000E+00
                                835 S  
                                         1.485E+01-2.271E-01 0.000E+00 0.000E+00
                                         2.450E+00 7.243E-01 0.000E+00 0.000E+00
                                         9.985E-01 4.484E-01 0.000E+00 0.000E+00
                                836 S  
                                         1.493E+00 1.000E+00 0.000E+00 0.000E+00
                                837 S  
                                         1.830E-01 1.000E+00 0.000E+00 0.000E+00
                         838-   840 P  
                                         1.072E+03 0.000E+00 9.277E-03 0.000E+00
                                         2.527E+02 0.000E+00 6.954E-02 0.000E+00
                                         8.010E+01 0.000E+00 2.716E-01 0.000E+00
                                         2.890E+01 0.000E+00 5.340E-01 0.000E+00
                                         1.077E+01 0.000E+00 3.450E-01 0.000E+00
                         841-   843 P  
                                         5.645E+00 0.000E+00 3.413E-01 0.000E+00
                                         2.168E+00 0.000E+00 5.639E-01 0.000E+00
                                         8.054E-01 0.000E+00 2.368E-01 0.000E+00
                         844-   846 P  
                                         2.721E-01 0.000E+00 1.000E+00 0.000E+00
                         847-   851 D  
                                         5.609E+01 0.000E+00 0.000E+00 2.959E-02
                                         1.575E+01 0.000E+00 0.000E+00 1.587E-01
                                         5.312E+00 0.000E+00 0.000E+00 3.798E-01
                                         1.774E+00 0.000E+00 0.000E+00 4.690E-01
                         852-   856 D  
                                         5.073E-01 0.000E+00 0.000E+00 1.000E+00
                         857-   863 F  
                                         2.814E+00 0.000E+00 0.000E+00 1.000E+00
                         864-   870 F  
                                         1.300E+00 0.000E+00 0.000E+00 1.000E+00
  58 ZN   0.000   0.000  12.192
  59 BR  -7.095  -1.067  -3.546
                                909 S  
                                         1.133E+05 1.428E-03 0.000E+00 0.000E+00
                                         1.701E+04 1.095E-02 0.000E+00 0.000E+00
                                         3.870E+03 5.442E-02 0.000E+00 0.000E+00
                                         1.093E+03 1.905E-01 0.000E+00 0.000E+00
                                         3.564E+02 3.902E-01 0.000E+00 0.000E+00
                                         1.231E+02 3.081E-01 0.000E+00 0.000E+00
                                910 S  
                                         2.367E+02-1.123E-01 0.000E+00 0.000E+00
                                         2.847E+01 6.478E-01 0.000E+00 0.000E+00
                                         1.188E+01 4.424E-01 0.000E+00 0.000E+00
                                911 S  
                                         2.127E+01-2.264E-01 0.000E+00 0.000E+00
                                         3.613E+00 7.382E-01 0.000E+00 0.000E+00
                                         1.663E+00 4.268E-01 0.000E+00 0.000E+00
                                912 S  
                                         3.641E-01 1.000E+00 0.000E+00 0.000E+00
                                913 S  
                                         1.243E-01 1.000E+00 0.000E+00 0.000E+00
                         914-   916 P  
                                         1.560E+03 0.000E+00 8.717E-03 0.000E+00
                                         3.685E+02 0.000E+00 6.624E-02 0.000E+00
                                         1.172E+02 0.000E+00 2.650E-01 0.000E+00
                                         4.265E+01 0.000E+00 5.384E-01 0.000E+00
                                         1.609E+01 0.000E+00 3.658E-01 0.000E+00
                         917-   919 P  
                                         8.635E+00 0.000E+00 3.425E-01 0.000E+00
                                         3.561E+00 0.000E+00 5.750E-01 0.000E+00
                                         1.529E+00 0.000E+00 2.433E-01 0.000E+00
                         920-   922 P  
                                         6.447E-01 0.000E+00 1.000E+00 0.000E+00
                         923-   925 P  
                                         2.103E-01 0.000E+00 1.000E+00 0.000E+00
                         926-   930 D  
                                         1.049E+02 0.000E+00 0.000E+00 2.265E-02
                                         3.028E+01 0.000E+00 0.000E+00 1.346E-01
                                         1.065E+01 0.000E+00 0.000E+00 3.647E-01
                                         3.870E+00 0.000E+00 0.000E+00 4.904E-01
                         931-   935 D  
                                         1.342E+00 0.000E+00 0.000E+00 1.000E+00
                         936-   940 D  
                                         4.101E-01 0.000E+00 0.000E+00 1.000E+00
                         941-   945 D  
                                         1.985E-01 0.000E+00 0.000E+00 1.000E+00
  60 BR   7.095   1.067  -3.546
  61 BR  -1.067   7.095   3.546
  62 BR   1.067  -7.095   3.546

 *******************************************************************************
 FINISHED BASIS SET HANDLING 
 *******************************************************************************

 INFORMATION **** SET_MPP **** PCRYSTAL CALCULATION
 INFORMATION **** READM2 **** NEW DEFAULT: FOCK/KS MATRIX MIXING SET TO 30 %
 INFORMATION **** READM2 **** NEW DEFAULT: FULL DIRECT SCF MODE
 INFORMATION **** READM2 **** NEW DEFAULT: COULOMB BIPOLAR BUFFER SET TO 32 Mb
 INFORMATION **** READM2 **** NEW DEFAULT: EXCHANGE BIPOLAR BUFFER SET TO 32 Mb

 *******************************************************************************
 NEW DEFAULT: DFT INTEGRATION GRID INCREASED TO XLGRID
 NEW DEFAULT: DIIS ACCELERATOR ACTIVE
 USE KEYWORD NODIIS TO TURN IT OFF
 *******************************************************************************

 INFORMATION **** DFTD3_INPUT **** PERFORM DISPERSION CORRECTION DFT-D3(BJ) IN THE BECKE-JOHNSON DAMPING SCHEME

 PLEASE CITE:
 (1) DFT-D3 Reference
  S. Grimme, J. Antony, S. Ehrlich, and H. Krieg, J. Chem. Phys. 132 (2010), 154104
 (2) BJ-Damping Reference
  S. Grimme, S. Ehrlich, and L. Goerigk, J. Comput. Chem. 32 (2011), 1456-1465
 (3) General DFT-D Review
  S. Grimme, A. Hansen, J. G. Brandenburg, and C. Bannwarth,
  Chem. Rev. 116 (2016), 5105-5154

 INFORMATION **** TOLINTEG **** COULOMB AND EXCHANGE SERIES TOLERANCES MODIFIED
 INFORMATION **** BIPOSIZE **** COULOMB BIPOLAR BUFFER SET TO   100000000
 INFORMATION **** MAXCYCLE **** MAX NUMBER OF SCF CYCLES SET TO          50
 *******************************************************************************
 N. OF ATOMS PER CELL        62  COULOMB OVERLAP TOL         (T1) 10**  -12
 NUMBER OF SHELLS           412  COULOMB PENETRATION TOL     (T2) 10**  -12
 NUMBER OF AO              1056  EXCHANGE OVERLAP TOL        (T3) 10**   20
 N. OF ELECTRONS PER CELL   496  EXCHANGE PSEUDO OVP (F(G))  (T4) 10**   20
 CORE ELECTRONS PER CELL    236  EXCHANGE PSEUDO OVP (P(G))  (T5) 10**   20
 N. OF SYMMETRY OPERATORS     4  POLE ORDER IN MONO ZONE                  4
 *******************************************************************************
 TYPE OF CALCULATION :  RESTRICTED CLOSED SHELL
 KOHN-SHAM HAMILTONIAN

 (EXCHANGE)[CORRELATION] FUNCTIONAL:(PERDEW-BURKE-ERNZERHOF)[PERDEW-BURKE-ERNZERHOF]


 CAPPA:IS1  3;IS2  3;IS3  3; K PTS MONK NET   6; SYMMOPS:K SPACE   8;G SPACE   4

 *******************************************************************************
 MAX NUMBER OF SCF CYCLES      50  CONVERGENCE ON DELTAP        10**-16
 WEIGHT OF F(I) IN F(I+1)      30% CONVERGENCE ON ENERGY        10**- 6
 SHRINK. FACT.(MONKH.)    3  3  3  NUMBER OF K POINTS IN THE IBZ      6
 SHRINKING FACTOR(GILAT NET)    3  NUMBER OF K POINTS(GILAT NET)      6
 *******************************************************************************
 *** K POINTS COORDINATES (OBLIQUE COORDINATES IN UNITS OF IS =  3)
   1-R(  0  0  0)   2-C(  1  0  0)   3-C(  1  1  0)   4-C(  2  1  0)
   5-C(  2  1  1)   6-C(  2  2  1)

 DIRECT LATTICE VECTORS COMPON. (A.U.)     RECIP. LATTICE VECTORS COMPON. (A.U.) 
        X            Y            Z              X            Y            Z
  -10.1028795   10.1028795   12.1924541      0.0000000    0.3109601    0.2576670
   10.1028795  -10.1028795   12.1924541      0.3109601    0.0000000    0.2576670
   10.1028795   10.1028795  -12.1924541      0.3109601    0.3109601    0.0000000

 DISK SPACE FOR EIGENVECTORS (FTN 10)    12266496 REALS

 SYMMETRY ADAPTION OF THE BLOCH FUNCTIONS ENABLED
 TTTTTTTTTTTTTTTTTTTTTTTTTTTTTT gordsh1     TELAPSE       13.32 TCPU        0.08

 MATRIX SIZE: P(G) 1968888, F(G)  985260, P(G) IRR  248826, F(G) IRR  248826
 MAX G-VECTOR INDEX FOR 1- AND 2-ELECTRON INTEGRALS  59

 TTTTTTTTTTTTTTTTTTTTTTTTTTTTTT INPUT       TELAPSE       13.37 TCPU        0.14

 NEIGHBORS OF THE NON-EQUIVALENT ATOMS

 N = NUMBER OF NEIGHBORS AT DISTANCE R
    ATOM  N     R/ANG      R/AU   NEIGHBORS (ATOM LABELS AND CELL INDICES)
   1 H    1     1.0919     2.0634   21 C    0 0 0
   1 H    1     2.1811     4.1217   34 C    0 0 0
   1 H    1     2.1846     4.1283   13 C    0 0 0
   1 H    1     2.8191     5.3274   17 C    0 0 0
   1 H    1     3.0605     5.7836   45 N    0-1 0
   1 H    1     3.0772     5.8150   62 BR   0-1 0

   5 H    1     1.0924     2.0643   29 C    0 0 0
   5 H    1     2.0677     3.9074   53 N    0 0 0
   5 H    1     2.1745     4.1091   13 C    0 0 0
   5 H    1     2.5505     4.8197   38 N    0 0 1
   5 H    1     2.6089     4.9300   37 N    0-1 0
   5 H    1     2.6370     4.9833   17 C    0 0 0

   9 H    1     1.0965     2.0720   25 C    0 0 0
   9 H    1     2.0615     3.8956   10 H    0 0 0
   9 H    1     2.1007     3.9697   53 N    0 0 0
   9 H    1     2.1092     3.9858   54 N    0 0 0
   9 H    1     2.1583     4.0785   34 C    0 0 0
   9 H    1     2.4137     4.5612   26 C    0 0 0

  13 C    1     1.4075     2.6597   29 C    0 0 0
  13 C    1     1.4090     2.6627   21 C    0 0 0
  13 C    1     1.4593     2.7577   17 C    0 0 0
  13 C    1     2.1745     4.1091    5 H    0 0 0
  13 C    1     2.1846     4.1283    1 H    0 0 0
  13 C    1     2.3882     4.5131   34 C    0 0 0

  17 C    1     1.3547     2.5600   45 N    0-1 0
  17 C    1     1.3629     2.5754   37 N    0-1 0
  17 C    1     1.4593     2.7577   13 C    0 0 0
  17 C    1     2.1993     4.1561   49 N    0-1 0
  17 C    1     2.2037     4.1643   41 N    1 0 1
  17 C    1     2.4345     4.6006   29 C    0 0 0

  21 C    1     1.0919     2.0634    1 H    0 0 0
  21 C    1     1.3963     2.6387   34 C    0 0 0
  21 C    1     1.4090     2.6627   13 C    0 0 0
  21 C    1     2.4243     4.5813   29 C    0 0 0
  21 C    1     2.4297     4.5915   25 C    0 0 0
  21 C    1     2.5400     4.7999   17 C    0 0 0

  25 C    1     1.0965     2.0720    9 H    0 0 0
  25 C    1     1.3424     2.5368   53 N    0 0 0
  25 C    1     1.3980     2.6419   34 C    0 0 0
  25 C    1     2.2989     4.3444   29 C    0 0 0
  25 C    1     2.4137     4.5612   10 H    0 0 0
  25 C    1     2.4297     4.5915   21 C    0 0 0

  29 C    1     1.0924     2.0643    5 H    0 0 0
  29 C    1     1.3383     2.5291   53 N    0 0 0
  29 C    1     1.4075     2.6597   13 C    0 0 0
  29 C    1     2.2989     4.3444   25 C    0 0 0
  29 C    1     2.4243     4.5813   21 C    0 0 0
  29 C    1     2.4345     4.6006   17 C    0 0 0

  33 C    1     1.3963     2.6387   22 C    0 0 0
  33 C    1     1.3980     2.6419   26 C    0 0 0
  33 C    1     1.8949     3.5808   60 BR   0 0 0
  33 C    1     2.1583     4.0785   10 H    0 0 0
  33 C    1     2.1811     4.1217    2 H    0 0 0
  33 C    1     2.3882     4.5131   14 C    0 0 0

  37 N    1     1.3629     2.5754   17 C    0 1 0
  37 N    1     1.3759     2.6000   41 N    1 1 1
  37 N    1     2.0537     3.8810   57 ZN   1 1 0
  37 N    1     2.1874     4.1336   49 N    0 0 0
  37 N    1     2.2066     4.1699   45 N    0 0 0
  37 N    1     2.4574     4.6438   13 C    0 1 0

  41 N    1     1.3167     2.4882   49 N   -1-1-1
  41 N    1     1.3759     2.6000   37 N   -1-1-1
  41 N    1     2.2004     4.1582   45 N   -1-1-1
  41 N    1     2.2037     4.1643   17 C   -1 0-1
  41 N    1     2.7084     5.1181    6 H    0 0 0
  41 N    1     2.9668     5.6064   57 ZN   0 0-1

  45 N    1     1.3547     2.5600   17 C    0 1 0
  45 N    1     1.3867     2.6205   49 N    0 0 0
  45 N    1     2.0214     3.8200   58 ZN   0 0 0
  45 N    1     2.2004     4.1582   41 N    1 1 1
  45 N    1     2.2066     4.1699   37 N    0 0 0
  45 N    1     2.5545     4.8273   13 C    0 1 0

  49 N    1     1.3167     2.4882   41 N    1 1 1
  49 N    1     1.3867     2.6205   45 N    0 0 0
  49 N    1     2.1874     4.1336   37 N    0 0 0
  49 N    1     2.1993     4.1561   17 C    0 1 0
  49 N    1     2.8222     5.3331   58 ZN   0 0 0
  49 N    1     3.2303     6.1044    2 H    1 0 0

  53 N    1     1.3383     2.5291   29 C    0 0 0
  53 N    1     1.3424     2.5368   25 C    0 0 0
  53 N    1     2.0677     3.9074    5 H    0 0 0
  53 N    1     2.1007     3.9697    9 H    0 0 0
  53 N    1     2.1092     3.9858   10 H    0 0 0
  53 N    1     2.3981     4.5317   34 C    0 0 0

  57 ZN   4     2.0537     3.8810   37 N   -1-1 0   38 N   -1 0 1   39 N    0 0 1
                                    40 N   -1 0 0
  57 ZN   4     2.6562     5.0195    5 H   -1 0 0    6 H    0 0 1    7 H   -1-1 0
                                     8 H   -1 0 1
  57 ZN   4     2.9668     5.6064   41 N    0 0 1   42 N   -1 0 0   43 N   -1 0 1
                                    44 N   -1-1 0
  57 ZN   4     3.1543     5.9607   17 C   -1 0 0   18 C    0 0 1   19 C   -1-1 0
                                    20 C   -1 0 1
  57 ZN   4     3.2009     6.0488   29 C   -1 0 0   30 C    0 0 1   31 C   -1-1 0
                                    32 C   -1 0 1
  57 ZN   4     3.5520     6.7123   13 C   -1 0 0   14 C    0 0 1   15 C   -1-1 0
                                    16 C   -1 0 1

  58 ZN   4     2.0214     3.8200   45 N    0 0 0   46 N    0 0 0   47 N    1 1 0
                                    48 N    1 1 0
  58 ZN   4     2.8222     5.3331   49 N    0 0 0   50 N    0 0 0   51 N    1 1 0
                                    52 N    1 1 0
  58 ZN   4     3.1992     6.0457   17 C    0 1 0   18 C    1 0 0   19 C    0 0-1
                                    20 C    1 1 1
  58 ZN   4     3.4502     6.5199    1 H    0 1 0    2 H    1 0 0    3 H    0 0-1
                                     4 H    1 1 1
  58 ZN   4     3.9038     7.3772   13 C    0 1 0   14 C    1 0 0   15 C    0 0-1
                                    16 C    1 1 1
  58 ZN   4     4.0069     7.5719   21 C    0 1 0   22 C    1 0 0   23 C    0 0-1
                                    24 C    1 1 1

  59 BR   1     1.8949     3.5808   34 C    0 0 0
  59 BR   1     2.7673     5.2295   25 C    0 0 0
  59 BR   1     2.8026     5.2962    9 H    0 0 0
  59 BR   1     2.9361     5.5485   21 C    0 0 0
  59 BR   1     2.9759     5.6236    8 H    0 0 0
  59 BR   1     3.0772     5.8150    3 H   -1-1-1


 SYMMETRY ALLOWED INTERNAL DEGREE(S) OF FREEDOM:  45
 TTTTTTTTTTTTTTTTTTTTTTTTTTTTTT SYMM        TELAPSE       13.41 TCPU        0.17
 TTTTTTTTTTTTTTTTTTTTTTTTTTTTTT INT_SCREEN  TELAPSE       13.42 TCPU        0.17
 INFORMATION **** EXCBUF **** EXCH. BIPO BUFFER: WORDS USED =           0

 DFT PARAMETERS

     ATOM       ELECTRONS   NET CHARGE   R(ANGSTROM)
   1   1  H       1.0000      0.0000     1.11000000
  13   6  C       6.0000      0.0000     0.77000000
  37   7  N       7.0000      0.0000     0.74000000
  57  30  ZN     30.0000      0.0000     1.37000000
  59  35  BR     35.0000      0.0000     1.14000000

 SIZE OF GRID=     451103
 TTTTTTTTTTTTTTTTTTTTTTTTTTTTTT MAKE_GRID2  TELAPSE       14.08 TCPU        0.83
 BECKE WEIGHT FUNCTION
 RADSAFE =     2.00
 TOLERANCES - DENSITY:10**- 6; POTENTIAL:10**- 9; GRID WGT:10**-14

 RADIAL INTEGRATION  - INTERVALS (POINTS,UPPER LIMIT):            1( 75,  4.0*R)

 ANGULAR INTEGRATION - INTERVALS (ACCURACY LEVEL [N. POINTS] UPPER LIMIT):
  1(  4[  86]   0.2)  2(  8[ 194]   0.5)  3( 12[ 350]   0.9)  4( 16[ 974]   3.5)
  5( 12[ 350]9999.0)
 TTTTTTTTTTTTTTTTTTTTTTTTTTTTTT INT_CALC    TELAPSE       14.12 TCPU        0.87
 EEEEEEEEEE INT_CALC TERMINATION  DATE 21 01 2024 TIME 21:25:09.0

 *******************************************************************************
 Z:\home\sanoj\Downloads\tmp_p\newconn.mol                                       
 CRYSTAL - SCF - TYPE OF CALCULATION :  RESTRICTED CLOSED SHELL
 *******************************************************************************

 CAPPA:IS1  3;IS2  3;IS3  3; K PTS MONK NET   6; SYMMOPS:K SPACE   8;G SPACE   4

 TTTTTTTTTTTTTTTTTTTTTTTTTTTTTT SDIK        TELAPSE       14.25 TCPU        1.00

 AAAAAAAAAAAAAAAAAAAAAAAAAAAAAAAAAAAAAAAAAAAAAAAAAAAAAAAAAAAAAAAAAAAAAAAAAAAAAAA
         ATOMIC WAVEFUNCTION(S)


 NUCLEAR CHARGE  1.0  SYMMETRY SPECIES            S
 N. ELECTRONS    1.0  NUMBER OF PRIMITIVE GTOS    4
                      NUMBER OF CONTRACTED GTOS   2
                      NUMBER OF CLOSED SHELLS     0
                      OPEN SHELL OCCUPATION       1

  ZNUC SCFIT  TOTAL HF ENERGY   KINETIC ENERGY   VIRIAL THEOREM ACCURACY
   1.0   1   -4.946643675E-01  4.917913167E-01 -2.005842012E+00  9.4E-17

 NUCLEAR CHARGE  6.0  SYMMETRY SPECIES            S    P
 N. ELECTRONS    6.0  NUMBER OF PRIMITIVE GTOS    7    4
                      NUMBER OF CONTRACTED GTOS   3    2
                      NUMBER OF CLOSED SHELLS     2    0
                      OPEN SHELL OCCUPATION       0    2

  ZNUC SCFIT  TOTAL HF ENERGY   KINETIC ENERGY   VIRIAL THEOREM ACCURACY
   6.0   6   -3.750912652E+01  3.905246519E+01 -1.960480378E+00  3.7E-06

 NUCLEAR CHARGE  7.0  SYMMETRY SPECIES            S    P
 N. ELECTRONS    7.0  NUMBER OF PRIMITIVE GTOS    7    4
                      NUMBER OF CONTRACTED GTOS   3    2
                      NUMBER OF CLOSED SHELLS     2    0
                      OPEN SHELL OCCUPATION       0    3

  ZNUC SCFIT  TOTAL HF ENERGY   KINETIC ENERGY   VIRIAL THEOREM ACCURACY
   7.0   9   -5.432196661E+01  5.425066284E+01 -2.001314339E+00  1.2E-06

 NUCLEAR CHARGE 30.0  SYMMETRY SPECIES            S    P    D
 N. ELECTRONS   30.0  NUMBER OF PRIMITIVE GTOS   14    9    5
                      NUMBER OF CONTRACTED GTOS   5    3    2
                      NUMBER OF CLOSED SHELLS     4    2    1
                      OPEN SHELL OCCUPATION       0    0    0

  ZNUC SCFIT  TOTAL HF ENERGY   KINETIC ENERGY   VIRIAL THEOREM ACCURACY
  30.0  10   -1.777404290E+03  1.777325716E+03 -2.000044209E+00  2.5E-06

 NUCLEAR CHARGE 35.0  SYMMETRY SPECIES            S    P    D
 N. ELECTRONS   35.0  NUMBER OF PRIMITIVE GTOS   14   10    7
                      NUMBER OF CONTRACTED GTOS   5    4    4
                      NUMBER OF CLOSED SHELLS     4    2    1
                      OPEN SHELL OCCUPATION       0    5    0

  ZNUC SCFIT  TOTAL HF ENERGY   KINETIC ENERGY   VIRIAL THEOREM ACCURACY
  35.0  13   -2.572060514E+03  2.572021521E+03 -2.000015161E+00  3.6E-06

 AAAAAAAAAAAAAAAAAAAAAAAAAAAAAAAAAAAAAAAAAAAAAAAAAAAAAAAAAAAAAAAAAAAAAAAAAAAAAAA

 TOTAL ATOMIC CHARGES:
   1.0000000   1.0000000   1.0000000   1.0000000   1.0000000   1.0000000
   1.0000000   1.0000000   1.0000000   1.0000000   1.0000000   1.0000000
   6.0000000   6.0000000   6.0000000   6.0000000   6.0000000   6.0000000
   6.0000000   6.0000000   6.0000000   6.0000000   6.0000000   6.0000000
   6.0000000   6.0000000   6.0000000   6.0000000   6.0000000   6.0000000
   6.0000000   6.0000000   6.0000000   6.0000000   6.0000000   6.0000000
   7.0000000   7.0000000   7.0000000   7.0000000   7.0000000   7.0000000
   7.0000000   7.0000000   7.0000000   7.0000000   7.0000000   7.0000000
   7.0000000   7.0000000   7.0000000   7.0000000   7.0000000   7.0000000
   7.0000000   7.0000000  30.0000000  30.0000000  35.0000000  35.0000000
  35.0000000  35.0000000
 TTTTTTTTTTTTTTTTTTTTTTTTTTTTTT MOQGAD      TELAPSE       14.87 TCPU        1.62
 TTTTTTTTTTTTTTTTTTTTTTTTTTTTTT SHELLXN     TELAPSE       33.63 TCPU       17.99
 TTTTTTTTTTTTTTTTTTTTTTTTTTTTTT MONMO3      TELAPSE       36.69 TCPU       21.03
 NUMERICALLY INTEGRATED DENSITY    495.9998373427
 TTTTTTTTTTTTTTTTTTTTTTTTTTTTTT NUMDFT      TELAPSE       37.20 TCPU       21.54
 CYC   0 ETOT(AU) -1.586797581003E+04 DETOT -1.59E+04 tst  0.00E+00 PX  1.00E+00
 TTTTTTTTTTTTTTTTTTTTTTTTTTTTTT DIIS        TELAPSE       37.26 TCPU       21.60
 TTTTTTTTTTTTTTTTTTTTTTTTTTTTTT FDIK        TELAPSE       49.69 TCPU       31.70
 INSULATING STATE
 TOP OF VALENCE BANDS -    BAND    248; K    3; EIG -1.3352575E-01 AU
 TOP OF VALENCE BANDS -    BAND    248; K    1; EIG -1.3569539E-01 AU
 BOTTOM OF VIRTUAL BANDS - BAND    249; K    1; EIG -1.0916604E-01 AU
 INDIRECT ENERGY BAND GAP:   0.6629 eV
 TTTTTTTTTTTTTTTTTTTTTTTTTTTTTT PDIG        TELAPSE       50.14 TCPU       32.14
 TOTAL ATOMIC CHARGES:
   1.1727498   1.1727498   1.1727498   1.1727498   1.3481514   1.3481514
   1.3481514   1.3481514   1.2622981   1.2622981   1.2622981   1.2622981
   6.0123625   6.0123625   6.0123625   6.0123625   5.4552552   5.4552552
   5.4552552   5.4552552   6.2472784   6.2472784   6.2472784   6.2472784
   5.8267162   5.8267162   5.8267162   5.8267162   5.8369837   5.8369837
   5.8369837   5.8369837   5.4499924   5.4499924   5.4499924   5.4499924
   7.3971570   7.3971570   7.3971570   7.3971570   7.1868011   7.1868011
   7.1868011   7.1868011   7.3981794   7.3981794   7.3981794   7.3981794
   7.1439015   7.1439015   7.1439015   7.1439015   7.4504811   7.4504811
   7.4504811   7.4504811  27.6119506  27.8750308  34.9399468  34.9399468
  34.9399468  34.9399468
 TTTTTTTTTTTTTTTTTTTTTTTTTTTTTT MOQGAD      TELAPSE       50.16 TCPU       32.15
 TTTTTTTTTTTTTTTTTTTTTTTTTTTTTT SHELLXN     TELAPSE       70.79 TCPU       51.61
 TTTTTTTTTTTTTTTTTTTTTTTTTTTTTT MONMO3      TELAPSE       75.72 TCPU       56.51
 NUMERICALLY INTEGRATED DENSITY    495.9998572605
 TTTTTTTTTTTTTTTTTTTTTTTTTTTTTT NUMDFT      TELAPSE       77.18 TCPU       57.96
 CYC   1 ETOT(AU) -1.586312292447E+04 DETOT  4.85E+00 tst  0.00E+00 PX  1.00E+00
 TTTTTTTTTTTTTTTTTTTTTTTTTTTTTT DIIS        TELAPSE       77.28 TCPU       58.06
 DIIS TEST: 0.13072E+02 AT SCF   CYCLE   1 - MIX   30 %
 TTTTTTTTTTTTTTTTTTTTTTTTTTTTTT FDIK        TELAPSE       83.17 TCPU       61.78
 INSULATING STATE
 TOP OF VALENCE BANDS -    BAND    248; K    3; EIG -1.3785579E-01 AU
 TOP OF VALENCE BANDS -    BAND    248; K    1; EIG -1.3980167E-01 AU
 BOTTOM OF VIRTUAL BANDS - BAND    249; K    6; EIG -1.2433220E-01 AU
 INDIRECT ENERGY BAND GAP:   0.3680 eV
 BOTTOM OF VIRTUAL BANDS - BAND    249; K    1; EIG -1.2212019E-01 AU
 TTTTTTTTTTTTTTTTTTTTTTTTTTTTTT PDIG        TELAPSE       83.61 TCPU       62.21
 TOTAL ATOMIC CHARGES:
   1.1482567   1.1482567   1.1482567   1.1482567   1.3592544   1.3592544
   1.3592544   1.3592544   1.2256349   1.2256349   1.2256349   1.2256349
   6.2006328   6.2006328   6.2006328   6.2006328   6.2000243   6.2000243
   6.2000243   6.2000243   6.2557840   6.2557840   6.2557840   6.2557840
   5.9260912   5.9260912   5.9260912   5.9260912   6.2475200   6.2475200
   6.2475200   6.2475200   5.9451129   5.9451129   5.9451129   5.9451129
   7.0251777   7.0251777   7.0251777   7.0251777   6.8374805   6.8374805
   6.8374805   6.8374805   6.9755652   6.9755652   6.9755652   6.9755652
   6.8094625   6.8094625   6.8094625   6.8094625   6.0414514   6.0414514
   6.0414514   6.0414514  29.9551985  29.6421538  34.9032133  34.9032133
  34.9032133  34.9032133
 TTTTTTTTTTTTTTTTTTTTTTTTTTTTTT MOQGAD      TELAPSE       83.62 TCPU       62.23
 TTTTTTTTTTTTTTTTTTTTTTTTTTTTTT SHELLXN     TELAPSE      105.68 TCPU       82.01
 TTTTTTTTTTTTTTTTTTTTTTTTTTTTTT MONMO3      TELAPSE      109.37 TCPU       85.68
 NUMERICALLY INTEGRATED DENSITY    495.9998785116
 TTTTTTTTTTTTTTTTTTTTTTTTTTTTTT NUMDFT      TELAPSE      110.81 TCPU       87.12
 CYC   2 ETOT(AU) -1.586188872077E+04 DETOT  1.23E+00 tst  1.36E-01 PX  9.20E-01
 TTTTTTTTTTTTTTTTTTTTTTTTTTTTTT DIIS        TELAPSE      110.91 TCPU       87.22
 DIIS TEST: 0.19535E+02 AT SCF   CYCLE   2 - DIIS ACTIVE - HISTORY:     2 CYCLES
 TTTTTTTTTTTTTTTTTTTTTTTTTTTTTT FDIK        TELAPSE      117.24 TCPU       91.28
 INSULATING STATE
 TOP OF VALENCE BANDS -    BAND    248; K    1; EIG -2.3111967E-01 AU
 BOTTOM OF VIRTUAL BANDS - BAND    249; K    1; EIG -1.3382302E-01 AU
 DIRECT ENERGY BAND GAP:   2.6476 eV
 TTTTTTTTTTTTTTTTTTTTTTTTTTTTTT PDIG        TELAPSE      117.67 TCPU       91.71
 TOTAL ATOMIC CHARGES:
   1.1119502   1.1119502   1.1119502   1.1119502   1.2311054   1.2311054
   1.2311054   1.2311054   1.1650960   1.1650960   1.1650960   1.1650960
   5.8077866   5.8077866   5.8077866   5.8077866   5.7351480   5.7351480
   5.7351480   5.7351480   6.0391232   6.0391232   6.0391232   6.0391232
   6.1432677   6.1432677   6.1432677   6.1432677   5.9311313   5.9311313
   5.9311313   5.9311313   5.6527318   5.6527318   5.6527318   5.6527318
   7.0172885   7.0172885   7.0172885   7.0172885   7.1464010   7.1464010
   7.1464010   7.1464010   7.0724727   7.0724727   7.0724727   7.0724727
   7.0958865   7.0958865   7.0958865   7.0958865   7.4738805   7.4738805
   7.4738805   7.4738805  29.1231937  29.1164594  34.8168175  34.8168175
  34.8168175  34.8168175
 TTTTTTTTTTTTTTTTTTTTTTTTTTTTTT MOQGAD      TELAPSE      117.69 TCPU       91.73
 TTTTTTTTTTTTTTTTTTTTTTTTTTTTTT SHELLXN     TELAPSE      140.05 TCPU      111.41
 TTTTTTTTTTTTTTTTTTTTTTTTTTTTTT MONMO3      TELAPSE      144.14 TCPU      115.48
 NUMERICALLY INTEGRATED DENSITY    495.9998533295
 TTTTTTTTTTTTTTTTTTTTTTTTTTTTTT NUMDFT      TELAPSE      145.59 TCPU      116.92
 CYC   3 ETOT(AU) -1.586448910436E+04 DETOT -2.60E+00 tst  2.39E-02 PX  7.02E-01
 TTTTTTTTTTTTTTTTTTTTTTTTTTTTTT DIIS        TELAPSE      145.74 TCPU      117.07
 DIIS TEST: 0.50024E+01 AT SCF   CYCLE   3 - DIIS ACTIVE - HISTORY:     3 CYCLES
 TTTTTTTTTTTTTTTTTTTTTTTTTTTTTT FDIK        TELAPSE      151.70 TCPU      120.73
 INSULATING STATE
 TOP OF VALENCE BANDS -    BAND    248; K    4; EIG -2.1195110E-01 AU
 TOP OF VALENCE BANDS -    BAND    248; K    1; EIG -2.1353775E-01 AU
 BOTTOM OF VIRTUAL BANDS - BAND    249; K    6; EIG -1.2273825E-01 AU
 INDIRECT ENERGY BAND GAP:   2.4276 eV
 BOTTOM OF VIRTUAL BANDS - BAND    249; K    1; EIG -1.2234603E-01 AU
 TTTTTTTTTTTTTTTTTTTTTTTTTTTTTT PDIG        TELAPSE      152.14 TCPU      121.17
 TOTAL ATOMIC CHARGES:
   1.1071907   1.1071907   1.1071907   1.1071907   1.2716018   1.2716018
   1.2716018   1.2716018   1.1982443   1.1982443   1.1982443   1.1982443
   6.1337024   6.1337024   6.1337024   6.1337024   5.7281482   5.7281482
   5.7281482   5.7281482   6.3559181   6.3559181   6.3559181   6.3559181
   5.7316371   5.7316371   5.7316371   5.7316371   6.0171086   6.0171086
   6.0171086   6.0171086   5.6427400   5.6427400   5.6427400   5.6427400
   7.2858979   7.2858979   7.2858979   7.2858979   7.0571970   7.0571970
   7.0571970   7.0571970   7.2327870   7.2327870   7.2327870   7.2327870
   7.0110054   7.0110054   7.0110054   7.0110054   6.9396619   6.9396619
   6.9396619   6.9396619  28.6625613  28.7392085  34.9367170  34.9367170
  34.9367170  34.9367170
 TTTTTTTTTTTTTTTTTTTTTTTTTTTTTT MOQGAD      TELAPSE      152.16 TCPU      121.18
 TTTTTTTTTTTTTTTTTTTTTTTTTTTTTT SHELLXN     TELAPSE      174.24 TCPU      140.99
 TTTTTTTTTTTTTTTTTTTTTTTTTTTTTT MONMO3      TELAPSE      178.05 TCPU      144.79
 NUMERICALLY INTEGRATED DENSITY    495.9998611658
 TTTTTTTTTTTTTTTTTTTTTTTTTTTTTT NUMDFT      TELAPSE      179.44 TCPU      146.17
 CYC   4 ETOT(AU) -1.586488265441E+04 DETOT -3.94E-01 tst  5.86E-03 PX  2.18E-01
 TTTTTTTTTTTTTTTTTTTTTTTTTTTTTT DIIS        TELAPSE      179.54 TCPU      146.28
 DIIS TEST: 0.17248E+01 AT SCF   CYCLE   4 - DIIS ACTIVE - HISTORY:     4 CYCLES
 TTTTTTTTTTTTTTTTTTTTTTTTTTTTTT FDIK        TELAPSE      185.45 TCPU      149.94
 INSULATING STATE
 TOP OF VALENCE BANDS -    BAND    248; K    1; EIG -2.2973994E-01 AU
 BOTTOM OF VIRTUAL BANDS - BAND    249; K    1; EIG -1.2489712E-01 AU
 DIRECT ENERGY BAND GAP:   2.8529 eV
 TTTTTTTTTTTTTTTTTTTTTTTTTTTTTT PDIG        TELAPSE      185.88 TCPU      150.38
 TOTAL ATOMIC CHARGES:
   1.1144284   1.1144284   1.1144284   1.1144284   1.2685037   1.2685037
   1.2685037   1.2685037   1.1916837   1.1916837   1.1916837   1.1916837
   6.0232827   6.0232827   6.0232827   6.0232827   5.7601132   5.7601132
   5.7601132   5.7601132   6.2197294   6.2197294   6.2197294   6.2197294
   5.9414163   5.9414163   5.9414163   5.9414163   6.0295798   6.0295798
   6.0295798   6.0295798   5.7311725   5.7311725   5.7311725   5.7311725
   7.1976939   7.1976939   7.1976939   7.1976939   7.0689584   7.0689584
   7.0689584   7.0689584   7.1585970   7.1585970   7.1585970   7.1585970
   7.0198154   7.0198154   7.0198154   7.0198154   6.9963928   6.9963928
   6.9963928   6.9963928  28.7937091  28.8165426  34.8760699  34.8760699
  34.8760699  34.8760699
 TTTTTTTTTTTTTTTTTTTTTTTTTTTTTT MOQGAD      TELAPSE      185.90 TCPU      150.39
 TTTTTTTTTTTTTTTTTTTTTTTTTTTTTT SHELLXN     TELAPSE      208.19 TCPU      170.34
 TTTTTTTTTTTTTTTTTTTTTTTTTTTTTT MONMO3      TELAPSE      211.93 TCPU      174.06
 NUMERICALLY INTEGRATED DENSITY    495.9998613542
 TTTTTTTTTTTTTTTTTTTTTTTTTTTTTT NUMDFT      TELAPSE      213.38 TCPU      175.51
 CYC   5 ETOT(AU) -1.586513453897E+04 DETOT -2.52E-01 tst  1.00E-03 PX  1.61E-01
 TTTTTTTTTTTTTTTTTTTTTTTTTTTTTT DIIS        TELAPSE      213.49 TCPU      175.62
 DIIS TEST: 0.64905E-01 AT SCF   CYCLE   5 - DIIS ACTIVE - HISTORY:     5 CYCLES
 TTTTTTTTTTTTTTTTTTTTTTTTTTTTTT FDIK        TELAPSE      219.12 TCPU      179.03
 INSULATING STATE
 TOP OF VALENCE BANDS -    BAND    248; K    1; EIG -2.2858106E-01 AU
 BOTTOM OF VIRTUAL BANDS - BAND    249; K    1; EIG -1.2450342E-01 AU
 DIRECT ENERGY BAND GAP:   2.8321 eV
 TTTTTTTTTTTTTTTTTTTTTTTTTTTTTT PDIG        TELAPSE      219.56 TCPU      179.47
 TOTAL ATOMIC CHARGES:
   1.1169782   1.1169782   1.1169782   1.1169782   1.2651320   1.2651320
   1.2651320   1.2651320   1.1904422   1.1904422   1.1904422   1.1904422
   6.0497231   6.0497231   6.0497231   6.0497231   5.7788442   5.7788442
   5.7788442   5.7788442   6.2382346   6.2382346   6.2382346   6.2382346
   5.8693913   5.8693913   5.8693913   5.8693913   6.0034256   6.0034256
   6.0034256   6.0034256   5.6497802   5.6497802   5.6497802   5.6497802
   7.1556264   7.1556264   7.1556264   7.1556264   7.0550986   7.0550986
   7.0550986   7.0550986   7.1728787   7.1728787   7.1728787   7.1728787
   7.0410256   7.0410256   7.0410256   7.0410256   7.0792430   7.0792430
   7.0792430   7.0792430  28.8429033  28.8728466  34.9052388  34.9052388
  34.9052388  34.9052388
 TTTTTTTTTTTTTTTTTTTTTTTTTTTTTT MOQGAD      TELAPSE      219.58 TCPU      179.48
 TTTTTTTTTTTTTTTTTTTTTTTTTTTTTT SHELLXN     TELAPSE      241.75 TCPU      199.32
 TTTTTTTTTTTTTTTTTTTTTTTTTTTTTT MONMO3      TELAPSE      245.62 TCPU      203.18
 NUMERICALLY INTEGRATED DENSITY    495.9998615405
 TTTTTTTTTTTTTTTTTTTTTTTTTTTTTT NUMDFT      TELAPSE      247.02 TCPU      204.57
 CYC   6 ETOT(AU) -1.586513634239E+04 DETOT -1.80E-03 tst  5.24E-05 PX  2.50E-02
 TTTTTTTTTTTTTTTTTTTTTTTTTTTTTT DIIS        TELAPSE      247.17 TCPU      204.71
 DIIS TEST: 0.54510E-01 AT SCF   CYCLE   6 - DIIS ACTIVE - HISTORY:     6 CYCLES
 TTTTTTTTTTTTTTTTTTTTTTTTTTTTTT FDIK        TELAPSE      252.96 TCPU      208.21
 INSULATING STATE
 TOP OF VALENCE BANDS -    BAND    248; K    1; EIG -2.2848228E-01 AU
 BOTTOM OF VIRTUAL BANDS - BAND    249; K    1; EIG -1.2500729E-01 AU
 DIRECT ENERGY BAND GAP:   2.8157 eV
 TTTTTTTTTTTTTTTTTTTTTTTTTTTTTT PDIG        TELAPSE      253.40 TCPU      208.65
 TOTAL ATOMIC CHARGES:
   1.1125756   1.1125756   1.1125756   1.1125756   1.2650179   1.2650179
   1.2650179   1.2650179   1.1875292   1.1875292   1.1875292   1.1875292
   6.0242271   6.0242271   6.0242271   6.0242271   5.7689924   5.7689924
   5.7689924   5.7689924   6.2319330   6.2319330   6.2319330   6.2319330
   5.9080599   5.9080599   5.9080599   5.9080599   6.0109606   6.0109606
   6.0109606   6.0109606   5.6960217   5.6960217   5.6960217   5.6960217
   7.1951192   7.1951192   7.1951192   7.1951192   7.0809276   7.0809276
   7.0809276   7.0809276   7.1471433   7.1471433   7.1471433   7.1471433
   7.0144173   7.0144173   7.0144173   7.0144173   7.0442988   7.0442988
   7.0442988   7.0442988  28.8361350  28.8649312  34.8875097  34.8875097
  34.8875097  34.8875097
 TTTTTTTTTTTTTTTTTTTTTTTTTTTTTT MOQGAD      TELAPSE      253.41 TCPU      208.66
 TTTTTTTTTTTTTTTTTTTTTTTTTTTTTT SHELLXN     TELAPSE      275.69 TCPU      228.47
 TTTTTTTTTTTTTTTTTTTTTTTTTTTTTT MONMO3      TELAPSE      279.81 TCPU      232.58
 NUMERICALLY INTEGRATED DENSITY    495.9998619714
 TTTTTTTTTTTTTTTTTTTTTTTTTTTTTT NUMDFT      TELAPSE      281.30 TCPU      234.05
 CYC   7 ETOT(AU) -1.586514286162E+04 DETOT -6.52E-03 tst  2.05E-05 PX  1.74E-02
 TTTTTTTTTTTTTTTTTTTTTTTTTTTTTT DIIS        TELAPSE      281.41 TCPU      234.16
 DIIS TEST: 0.92329E-02 AT SCF   CYCLE   7 - DIIS ACTIVE - HISTORY:     7 CYCLES
 TTTTTTTTTTTTTTTTTTTTTTTTTTTTTT FDIK        TELAPSE      286.82 TCPU      237.38
 INSULATING STATE
 TOP OF VALENCE BANDS -    BAND    248; K    1; EIG -2.2840779E-01 AU
 BOTTOM OF VIRTUAL BANDS - BAND    249; K    1; EIG -1.2490590E-01 AU
 DIRECT ENERGY BAND GAP:   2.8164 eV
 TTTTTTTTTTTTTTTTTTTTTTTTTTTTTT PDIG        TELAPSE      287.26 TCPU      237.82
 TOTAL ATOMIC CHARGES:
   1.1135991   1.1135991   1.1135991   1.1135991   1.2633262   1.2633262
   1.2633262   1.2633262   1.1884877   1.1884877   1.1884877   1.1884877
   6.0278812   6.0278812   6.0278812   6.0278812   5.7675850   5.7675850
   5.7675850   5.7675850   6.2288165   6.2288165   6.2288165   6.2288165
   5.9152784   5.9152784   5.9152784   5.9152784   6.0124832   6.0124832
   6.0124832   6.0124832   5.6954122   5.6954122   5.6954122   5.6954122
   7.1697590   7.1697590   7.1697590   7.1697590   7.0539696   7.0539696
   7.0539696   7.0539696   7.1749124   7.1749124   7.1749124   7.1749124
   7.0380747   7.0380747   7.0380747   7.0380747   7.0387771   7.0387771
   7.0387771   7.0387771  28.8346319  28.8636352  34.8870709  34.8870709
  34.8870709  34.8870709
 TTTTTTTTTTTTTTTTTTTTTTTTTTTTTT MOQGAD      TELAPSE      287.29 TCPU      237.84
 TTTTTTTTTTTTTTTTTTTTTTTTTTTTTT SHELLXN     TELAPSE      307.28 TCPU      257.53
 TTTTTTTTTTTTTTTTTTTTTTTTTTTTTT MONMO3      TELAPSE      311.43 TCPU      261.66
 NUMERICALLY INTEGRATED DENSITY    495.9998612300
 TTTTTTTTTTTTTTTTTTTTTTTTTTTTTT NUMDFT      TELAPSE      312.91 TCPU      263.13
 CYC   8 ETOT(AU) -1.586514316601E+04 DETOT -3.04E-04 tst  1.87E-05 PX  9.12E-03
 TTTTTTTTTTTTTTTTTTTTTTTTTTTTTT DIIS        TELAPSE      313.55 TCPU      263.77
 DIIS TEST: 0.73717E-02 AT SCF   CYCLE   8 - DIIS ACTIVE - HISTORY:     8 CYCLES
 TTTTTTTTTTTTTTTTTTTTTTTTTTTTTT FDIK        TELAPSE      318.57 TCPU      267.16
 INSULATING STATE
 TOP OF VALENCE BANDS -    BAND    248; K    1; EIG -2.2865654E-01 AU
 BOTTOM OF VIRTUAL BANDS - BAND    249; K    1; EIG -1.2489135E-01 AU
 DIRECT ENERGY BAND GAP:   2.8236 eV
 TTTTTTTTTTTTTTTTTTTTTTTTTTTTTT PDIG        TELAPSE      319.01 TCPU      267.60
 TOTAL ATOMIC CHARGES:
   1.1134184   1.1134184   1.1134184   1.1134184   1.2630211   1.2630211
   1.2630211   1.2630211   1.1887451   1.1887451   1.1887451   1.1887451
   6.0318412   6.0318412   6.0318412   6.0318412   5.7678787   5.7678787
   5.7678787   5.7678787   6.2261442   6.2261442   6.2261442   6.2261442
   5.9082491   5.9082491   5.9082491   5.9082491   6.0167942   6.0167942
   6.0167942   6.0167942   5.6878959   5.6878959   5.6878959   5.6878959
   7.1816688   7.1816688   7.1816688   7.1816688   7.0675805   7.0675805
   7.0675805   7.0675805   7.1607488   7.1607488   7.1607488   7.1607488
   7.0245905   7.0245905   7.0245905   7.0245905   7.0475514   7.0475514
   7.0475514   7.0475514  28.8379411  28.8638039  34.8884360  34.8884360
  34.8884360  34.8884360
 TTTTTTTTTTTTTTTTTTTTTTTTTTTTTT MOQGAD      TELAPSE      319.03 TCPU      267.61
 TTTTTTTTTTTTTTTTTTTTTTTTTTTTTT SHELLXN     TELAPSE      340.14 TCPU      287.39
 TTTTTTTTTTTTTTTTTTTTTTTTTTTTTT MONMO3      TELAPSE      344.25 TCPU      291.48
 NUMERICALLY INTEGRATED DENSITY    495.9998614769
 TTTTTTTTTTTTTTTTTTTTTTTTTTTTTT NUMDFT      TELAPSE      345.72 TCPU      292.94
 CYC   9 ETOT(AU) -1.586514416724E+04 DETOT -1.00E-03 tst  4.91E-06 PX  4.40E-03
 TTTTTTTTTTTTTTTTTTTTTTTTTTTTTT DIIS        TELAPSE      345.87 TCPU      293.09
 DIIS TEST: 0.70102E-03 AT SCF   CYCLE   9 - DIIS ACTIVE - HISTORY:     9 CYCLES
 TTTTTTTTTTTTTTTTTTTTTTTTTTTTTT FDIK        TELAPSE      351.02 TCPU      296.57
 INSULATING STATE
 TOP OF VALENCE BANDS -    BAND    248; K    1; EIG -2.2869254E-01 AU
 BOTTOM OF VIRTUAL BANDS - BAND    249; K    1; EIG -1.2490931E-01 AU
 DIRECT ENERGY BAND GAP:   2.8241 eV
 TTTTTTTTTTTTTTTTTTTTTTTTTTTTTT PDIG        TELAPSE      351.46 TCPU      297.01
 TOTAL ATOMIC CHARGES:
   1.1131853   1.1131853   1.1131853   1.1131853   1.2636013   1.2636013
   1.2636013   1.2636013   1.1882128   1.1882128   1.1882128   1.1882128
   6.0285162   6.0285162   6.0285162   6.0285162   5.7674763   5.7674763
   5.7674763   5.7674763   6.2306789   6.2306789   6.2306789   6.2306789
   5.9075986   5.9075986   5.9075986   5.9075986   6.0097579   6.0097579
   6.0097579   6.0097579   5.6922339   5.6922339   5.6922339   5.6922339
   7.1799448   7.1799448   7.1799448   7.1799448   7.0684444   7.0684444
   7.0684444   7.0684444   7.1607774   7.1607774   7.1607774   7.1607774
   7.0270580   7.0270580   7.0270580   7.0270580   7.0480148   7.0480148
   7.0480148   7.0480148  28.8365106  28.8644363  34.8892628  34.8892628
  34.8892628  34.8892628
 TTTTTTTTTTTTTTTTTTTTTTTTTTTTTT MOQGAD      TELAPSE      351.48 TCPU      297.02
 TTTTTTTTTTTTTTTTTTTTTTTTTTTTTT SHELLXN     TELAPSE      373.64 TCPU      316.85
 TTTTTTTTTTTTTTTTTTTTTTTTTTTTTT MONMO3      TELAPSE      377.61 TCPU      320.79
 NUMERICALLY INTEGRATED DENSITY    495.9998614634
 TTTTTTTTTTTTTTTTTTTTTTTTTTTTTT NUMDFT      TELAPSE      379.07 TCPU      322.23
 CYC  10 ETOT(AU) -1.586514423544E+04 DETOT -6.82E-05 tst  5.41E-07 PX  2.24E-03
 TTTTTTTTTTTTTTTTTTTTTTTTTTTTTT DIIS        TELAPSE      379.17 TCPU      322.33
 DIIS TEST: 0.19273E-03 AT SCF   CYCLE  10 - DIIS ACTIVE - HISTORY:    10 CYCLES
 TTTTTTTTTTTTTTTTTTTTTTTTTTTTTT FDIK        TELAPSE      384.80 TCPU      325.68
 INSULATING STATE
 TOP OF VALENCE BANDS -    BAND    248; K    1; EIG -2.2869571E-01 AU
 BOTTOM OF VIRTUAL BANDS - BAND    249; K    1; EIG -1.2497332E-01 AU
 DIRECT ENERGY BAND GAP:   2.8224 eV
 TTTTTTTTTTTTTTTTTTTTTTTTTTTTTT PDIG        TELAPSE      385.23 TCPU      326.11
 TOTAL ATOMIC CHARGES:
   1.1132760   1.1132760   1.1132760   1.1132760   1.2633720   1.2633720
   1.2633720   1.2633720   1.1881134   1.1881134   1.1881134   1.1881134
   6.0289113   6.0289113   6.0289113   6.0289113   5.7684311   5.7684311
   5.7684311   5.7684311   6.2284298   6.2284298   6.2284298   6.2284298
   5.9090407   5.9090407   5.9090407   5.9090407   6.0132353   6.0132353
   6.0132353   6.0132353   5.6901768   5.6901768   5.6901768   5.6901768
   7.1808541   7.1808541   7.1808541   7.1808541   7.0661558   7.0661558
   7.0661558   7.0661558   7.1623019   7.1623019   7.1623019   7.1623019
   7.0268406   7.0268406   7.0268406   7.0268406   7.0473785   7.0473785
   7.0473785   7.0473785  28.8355907  28.8631156  34.8888062  34.8888062
  34.8888062  34.8888062
 TTTTTTTTTTTTTTTTTTTTTTTTTTTTTT MOQGAD      TELAPSE      385.25 TCPU      326.13
 TTTTTTTTTTTTTTTTTTTTTTTTTTTTTT SHELLXN     TELAPSE      406.17 TCPU      345.85
 TTTTTTTTTTTTTTTTTTTTTTTTTTTTTT MONMO3      TELAPSE      411.30 TCPU      350.95
 NUMERICALLY INTEGRATED DENSITY    495.9998615651
 TTTTTTTTTTTTTTTTTTTTTTTTTTTTTT NUMDFT      TELAPSE      412.75 TCPU      352.38
 CYC  11 ETOT(AU) -1.586514425604E+04 DETOT -2.06E-05 tst  1.59E-07 PX  1.06E-03
 TTTTTTTTTTTTTTTTTTTTTTTTTTTTTT DIIS        TELAPSE      412.87 TCPU      352.50
 DIIS TEST: 0.33491E-04 AT SCF   CYCLE  11 - DIIS ACTIVE - HISTORY:    11 CYCLES
 TTTTTTTTTTTTTTTTTTTTTTTTTTTTTT FDIK        TELAPSE      416.53 TCPU      356.00
 INSULATING STATE
 TOP OF VALENCE BANDS -    BAND    248; K    1; EIG -2.2867901E-01 AU
 BOTTOM OF VIRTUAL BANDS - BAND    249; K    1; EIG -1.2491745E-01 AU
 DIRECT ENERGY BAND GAP:   2.8235 eV
 TTTTTTTTTTTTTTTTTTTTTTTTTTTTTT PDIG        TELAPSE      416.98 TCPU      356.44
 TOTAL ATOMIC CHARGES:
   1.1132379   1.1132379   1.1132379   1.1132379   1.2634080   1.2634080
   1.2634080   1.2634080   1.1882427   1.1882427   1.1882427   1.1882427
   6.0296937   6.0296937   6.0296937   6.0296937   5.7676857   5.7676857
   5.7676857   5.7676857   6.2291319   6.2291319   6.2291319   6.2291319
   5.9084923   5.9084923   5.9084923   5.9084923   6.0127969   6.0127969
   6.0127969   6.0127969   5.6905928   5.6905928   5.6905928   5.6905928
   7.1794312   7.1794312   7.1794312   7.1794312   7.0681616   7.0681616
   7.0681616   7.0681616   7.1612009   7.1612009   7.1612009   7.1612009
   7.0270035   7.0270035   7.0270035   7.0270035   7.0469662   7.0469662
   7.0469662   7.0469662  28.8362943  28.8638915  34.8889081  34.8889081
  34.8889081  34.8889081
 TTTTTTTTTTTTTTTTTTTTTTTTTTTTTT MOQGAD      TELAPSE      416.99 TCPU      356.45
 TTTTTTTTTTTTTTTTTTTTTTTTTTTTTT SHELLXN     TELAPSE      439.19 TCPU      376.36
 TTTTTTTTTTTTTTTTTTTTTTTTTTTTTT MONMO3      TELAPSE      443.13 TCPU      380.28
 NUMERICALLY INTEGRATED DENSITY    495.9998614814
 TTTTTTTTTTTTTTTTTTTTTTTTTTTTTT NUMDFT      TELAPSE      444.57 TCPU      381.71
 CYC  12 ETOT(AU) -1.586514425848E+04 DETOT -2.44E-06 tst  4.38E-08 PX  5.09E-04
 TTTTTTTTTTTTTTTTTTTTTTTTTTTTTT DIIS        TELAPSE      444.68 TCPU      381.82
 DIIS TEST: 0.17306E-04 AT SCF   CYCLE  12 - DIIS ACTIVE - HISTORY:    12 CYCLES
 TTTTTTTTTTTTTTTTTTTTTTTTTTTTTT FDIK        TELAPSE      450.28 TCPU      385.23
 INSULATING STATE
 TOP OF VALENCE BANDS -    BAND    248; K    1; EIG -2.2867283E-01 AU
 BOTTOM OF VIRTUAL BANDS - BAND    249; K    1; EIG -1.2493211E-01 AU
 DIRECT ENERGY BAND GAP:   2.8229 eV
 TTTTTTTTTTTTTTTTTTTTTTTTTTTTTT PDIG        TELAPSE      450.71 TCPU      385.66
 TOTAL ATOMIC CHARGES:
   1.1132960   1.1132960   1.1132960   1.1132960   1.2634420   1.2634420
   1.2634420   1.2634420   1.1882388   1.1882388   1.1882388   1.1882388
   6.0293225   6.0293225   6.0293225   6.0293225   5.7677877   5.7677877
   5.7677877   5.7677877   6.2289579   6.2289579   6.2289579   6.2289579
   5.9084494   5.9084494   5.9084494   5.9084494   6.0123689   6.0123689
   6.0123689   6.0123689   5.6907527   5.6907527   5.6907527   5.6907527
   7.1807130   7.1807130   7.1807130   7.1807130   7.0668470   7.0668470
   7.0668470   7.0668470   7.1619044   7.1619044   7.1619044   7.1619044
   7.0266496   7.0266496   7.0266496   7.0266496   7.0474020   7.0474020
   7.0474020   7.0474020  28.8361783  28.8637821  34.8888780  34.8888780
  34.8888780  34.8888780
 TTTTTTTTTTTTTTTTTTTTTTTTTTTTTT MOQGAD      TELAPSE      450.73 TCPU      385.68
 TTTTTTTTTTTTTTTTTTTTTTTTTTTTTT SHELLXN     TELAPSE      472.97 TCPU      405.61
 TTTTTTTTTTTTTTTTTTTTTTTTTTTTTT MONMO3      TELAPSE      476.90 TCPU      409.52
 NUMERICALLY INTEGRATED DENSITY    495.9998615064
 TTTTTTTTTTTTTTTTTTTTTTTTTTTTTT NUMDFT      TELAPSE      478.32 TCPU      410.93
 CYC  13 ETOT(AU) -1.586514426079E+04 DETOT -2.31E-06 tst  2.42E-08 PX  3.48E-04
 TTTTTTTTTTTTTTTTTTTTTTTTTTTTTT DIIS        TELAPSE      478.56 TCPU      411.17
 DIIS TEST: 0.33103E-05 AT SCF   CYCLE  13 - DIIS ACTIVE - HISTORY:    13 CYCLES
 TTTTTTTTTTTTTTTTTTTTTTTTTTTTTT FDIK        TELAPSE      485.79 TCPU      414.78
 INSULATING STATE
 TOP OF VALENCE BANDS -    BAND    248; K    1; EIG -2.2867685E-01 AU
 BOTTOM OF VIRTUAL BANDS - BAND    249; K    1; EIG -1.2493386E-01 AU
 DIRECT ENERGY BAND GAP:   2.8230 eV
 TTTTTTTTTTTTTTTTTTTTTTTTTTTTTT PDIG        TELAPSE      486.23 TCPU      415.22
 TOTAL ATOMIC CHARGES:
   1.1132687   1.1132687   1.1132687   1.1132687   1.2634071   1.2634071
   1.2634071   1.2634071   1.1882117   1.1882117   1.1882117   1.1882117
   6.0291628   6.0291628   6.0291628   6.0291628   5.7680932   5.7680932
   5.7680932   5.7680932   6.2289931   6.2289931   6.2289931   6.2289931
[...]
 TTTTTTTTTTTTTTTTTTTTTTTTTTTTTT MOQGAD      TELAPSE    38671.60 TCPU    38293.25
 TTTTTTTTTTTTTTTTTTTTTTTTTTTTTT CP_MONMON   TELAPSE    38678.63 TCPU    38300.24
 DIIS TEST: 0.39020E-01 AT CPHF  CYCLE   7 - DIIS ACTIVE - HISTORY:     7 CYCLES
 CYCLE   7   ALPHA 1259.364224  EPSILON    4.179214  DELTA    5.9775E-01
 TTTTTTTTTTTTTTTTTTTTTTTTTTTTTT MOQGAD      TELAPSE    39042.71 TCPU    38661.10
 TTTTTTTTTTTTTTTTTTTTTTTTTTTTTT CP_MONMON   TELAPSE    39049.73 TCPU    38668.08
 DIIS TEST: 0.89739E-02 AT CPHF  CYCLE   8 - DIIS ACTIVE - HISTORY:     8 CYCLES
 CYCLE   8   ALPHA 1259.533243  EPSILON    4.179641  DELTA    1.6902E-01
 TTTTTTTTTTTTTTTTTTTTTTTTTTTTTT MOQGAD      TELAPSE    39413.64 TCPU    39028.93
 TTTTTTTTTTTTTTTTTTTTTTTTTTTTTT CP_MONMON   TELAPSE    39420.63 TCPU    39035.88
 DIIS TEST: 0.24504E-01 AT CPHF  CYCLE   9 - DIIS ACTIVE - HISTORY:     9 CYCLES
 CYCLE   9   ALPHA 1259.650486  EPSILON    4.179937  DELTA    1.1724E-01
 TTTTTTTTTTTTTTTTTTTTTTTTTTTTTT MOQGAD      TELAPSE    39784.90 TCPU    39397.27
 TTTTTTTTTTTTTTTTTTTTTTTTTTTTTT CP_MONMON   TELAPSE    39791.91 TCPU    39404.25
 DIIS TEST: 0.15624E-02 AT CPHF  CYCLE  10 - DIIS ACTIVE - HISTORY:    10 CYCLES
 CYCLE  10   ALPHA 1259.580883  EPSILON    4.179761  DELTA   -6.9603E-02
 TTTTTTTTTTTTTTTTTTTTTTTTTTTTTT MOQGAD      TELAPSE    40156.00 TCPU    39765.60
 TTTTTTTTTTTTTTTTTTTTTTTTTTTTTT CP_MONMON   TELAPSE    40163.01 TCPU    39772.57
 DIIS TEST: 0.20344E-03 AT CPHF  CYCLE  11 - DIIS ACTIVE - HISTORY:    11 CYCLES
 CYCLE  11   ALPHA 1259.552738  EPSILON    4.179690  DELTA   -2.8145E-02
 TTTTTTTTTTTTTTTTTTTTTTTTTTTTTT MOQGAD      TELAPSE    40526.83 TCPU    40133.58
 TTTTTTTTTTTTTTTTTTTTTTTTTTTTTT CP_MONMON   TELAPSE    40533.83 TCPU    40140.54
 DIIS TEST: 0.36439E-04 AT CPHF  CYCLE  12 - DIIS ACTIVE - HISTORY:    12 CYCLES
 CYCLE  12   ALPHA 1259.521025  EPSILON    4.179610  DELTA   -3.1713E-02
 TTTTTTTTTTTTTTTTTTTTTTTTTTTTTT MOQGAD      TELAPSE    40897.06 TCPU    40500.91
 TTTTTTTTTTTTTTTTTTTTTTTTTTTTTT CP_MONMON   TELAPSE    40904.06 TCPU    40507.87
 DIIS TEST: 0.43490E-05 AT CPHF  CYCLE  13 - DIIS ACTIVE - HISTORY:    13 CYCLES
 CYCLE  13   ALPHA 1259.516873  EPSILON    4.179599  DELTA   -4.1523E-03
 TTTTTTTTTTTTTTTTTTTTTTTTTTTTTT MOQGAD      TELAPSE    41267.91 TCPU    40868.87
 TTTTTTTTTTTTTTTTTTTTTTTTTTTTTT CP_MONMON   TELAPSE    41274.93 TCPU    40875.86
 DIIS TEST: 0.32687E-06 AT CPHF  CYCLE  14 - DIIS ACTIVE - HISTORY:    14 CYCLES
 CYCLE  14   ALPHA 1259.514380  EPSILON    4.179593  DELTA   -2.4925E-03
 TTTTTTTTTTTTTTTTTTTTTTTTTTTTTT MOQGAD      TELAPSE    41638.17 TCPU    41236.16
 TTTTTTTTTTTTTTTTTTTTTTTTTTTTTT CP_MONMON   TELAPSE    41645.19 TCPU    41243.15
 DIIS TEST: 0.49655E-07 AT CPHF  CYCLE  15 - DIIS ACTIVE - HISTORY:    15 CYCLES
 CYCLE  15   ALPHA 1259.513614  EPSILON    4.179591  DELTA   -7.6651E-04
 TTTTTTTTTTTTTTTTTTTTTTTTTTTTTT CP_SC       TELAPSE    41667.68 TCPU    41264.10

 *******************************************************************************

 ELECTRIC FIELD APPLIED ALONG CARTESIAN DIRECTION Z

 *******************************************************************************
 THE NUMBER OF SYMMETRY OPERATORS HAS BEEN REDUCED FROM  4 TO  1

 NEW GRID IN RECIPROCAL SPACE
 *******************************************************************************
 POINTS IN THE IBZ                  14 SHRINKING FACTORS               3  3  3
 *******************************************************************************
 *** K POINTS COORDINATES (OBLIQUE COORDINATES IN UNITS OF SHRINK FAC. )
   1-R(  0  0  0)   2-C(  1  0  0)   3-C(  0  1  2)   4-C(  2  0  1)
   5-C(  0  2  0)   6-C(  1  1  0)   7-C(  1  1  1)   8-C(  1  0  1)
   9-C(  0  1  1)  10-C(  2  1  0)  11-C(  0  0  2)  12-C(  2  1  1)
  13-C(  2  1  2)  14-C(  2  2  1)

 GCALCO - MAX INDICES DIRECT LATTICE VECTOR    14    14    16
 NO.OF VECTORS CREATED 6999 STARS  485 RMAX   203.49894 BOHR
 TTTTTTTTTTTTTTTTTTTTTTTTTTTTTT gordsh1     TELAPSE    41679.62 TCPU    41275.90

 MATRIX SIZE: P(G) 1968888, F(G)  985260, P(G) IRR  987058, F(G) IRR  987058
 MAX G-VECTOR INDEX FOR 1- AND 2-ELECTRON INTEGRALS  59

 TTTTTTTTTTTTTTTTTTTTTTTTTTTTTT INPUT       TELAPSE    41687.69 TCPU    41283.94
 TTTTTTTTTTTTTTTTTTTTTTTTTTTTTT SYMM        TELAPSE    41687.69 TCPU    41283.94

 ***** NEW REFERENCE GEOMETRY *****
 TTTTTTTTTTTTTTTTTTTTTTTTTTTTTT INT_SCREEN  TELAPSE    41687.70 TCPU    41283.95
 INFORMATION **** EXCBUF **** EXCH. BIPO BUFFER: WORDS USED =           0

 DFT PARAMETERS

     ATOM       ELECTRONS   NET CHARGE   R(ANGSTROM)
   1   1  H       1.0000      0.0000     1.11000000
  13   6  C       6.0000      0.0000     0.77000000
  37   7  N       7.0000      0.0000     0.74000000
  57  30  ZN     30.0000      0.0000     1.37000000
  59  35  BR     35.0000      0.0000     1.14000000

 SIZE OF GRID=    1804188
 TTTTTTTTTTTTTTTTTTTTTTTTTTTTTT MAKE_GRID2  TELAPSE    41688.79 TCPU    41285.03
 BECKE WEIGHT FUNCTION
 RADSAFE =     2.00
 TOLERANCES - DENSITY:10**- 6; POTENTIAL:10**- 9; GRID WGT:10**-14

 RADIAL INTEGRATION  - INTERVALS (POINTS,UPPER LIMIT):            1( 75,  4.0*R)

 ANGULAR INTEGRATION - INTERVALS (ACCURACY LEVEL [N. POINTS] UPPER LIMIT):
  1(  4[  86]   0.2)  2(  8[ 194]   0.5)  3( 12[ 350]   0.9)  4( 16[ 974]   3.5)
  5( 12[ 350]9999.0)
 TTTTTTTTTTTTTTTTTTTTTTTTTTTTTT INT_CALC    TELAPSE    41688.83 TCPU    41285.07
 CYCLE   0   ALPHA  817.355883  EPSILON    3.063382  DELTA    8.1736E+02
 TTTTTTTTTTTTTTTTTTTTTTTTTTTTTT MOQGAD      TELAPSE    42058.88 TCPU    41653.36
 TTTTTTTTTTTTTTTTTTTTTTTTTTTTTT CP_MONMON   TELAPSE    42065.81 TCPU    41660.25
 DIIS TEST: 0.91677E+02 AT CPHF  CYCLE   1 - MIX    0 %
 CYCLE   1   ALPHA  449.562608  EPSILON    2.134903  DELTA   -3.6779E+02
 TTTTTTTTTTTTTTTTTTTTTTTTTTTTTT MOQGAD      TELAPSE    42436.07 TCPU    42027.00
 TTTTTTTTTTTTTTTTTTTTTTTTTTTTTT CP_MONMON   TELAPSE    42443.00 TCPU    42033.89
 DIIS TEST: 0.74505E+03 AT CPHF  CYCLE   2 - DIIS ACTIVE - HISTORY:     2 CYCLES
 CYCLE   2   ALPHA  618.186632  EPSILON    2.560587  DELTA    1.6862E+02
 TTTTTTTTTTTTTTTTTTTTTTTTTTTTTT MOQGAD      TELAPSE    42812.54 TCPU    42400.64
 TTTTTTTTTTTTTTTTTTTTTTTTTTTTTT CP_MONMON   TELAPSE    42819.49 TCPU    42407.55
 DIIS TEST: 0.32578E+02 AT CPHF  CYCLE   3 - DIIS ACTIVE - HISTORY:     3 CYCLES
 CYCLE   3   ALPHA  660.302251  EPSILON    2.666906  DELTA    4.2116E+01
 TTTTTTTTTTTTTTTTTTTTTTTTTTTTTT MOQGAD      TELAPSE    43192.00 TCPU    42777.24
 TTTTTTTTTTTTTTTTTTTTTTTTTTTTTT CP_MONMON   TELAPSE    43198.97 TCPU    42784.18
 DIIS TEST: 0.50343E+01 AT CPHF  CYCLE   4 - DIIS ACTIVE - HISTORY:     4 CYCLES
 CYCLE   4   ALPHA  662.070340  EPSILON    2.671370  DELTA    1.7681E+00
 TTTTTTTTTTTTTTTTTTTTTTTTTTTTTT MOQGAD      TELAPSE    43568.71 TCPU    43150.94
 TTTTTTTTTTTTTTTTTTTTTTTTTTTTTT CP_MONMON   TELAPSE    43575.66 TCPU    43157.86
 DIIS TEST: 0.20023E+00 AT CPHF  CYCLE   5 - DIIS ACTIVE - HISTORY:     5 CYCLES
 CYCLE   5   ALPHA  662.477822  EPSILON    2.672398  DELTA    4.0748E-01
 TTTTTTTTTTTTTTTTTTTTTTTTTTTTTT MOQGAD      TELAPSE    43945.48 TCPU    43524.78
 TTTTTTTTTTTTTTTTTTTTTTTTTTTTTT CP_MONMON   TELAPSE    43952.44 TCPU    43531.69
 DIIS TEST: 0.57548E-01 AT CPHF  CYCLE   6 - DIIS ACTIVE - HISTORY:     6 CYCLES
 CYCLE   6   ALPHA  662.657905  EPSILON    2.672853  DELTA    1.8008E-01
 TTTTTTTTTTTTTTTTTTTTTTTTTTTTTT MOQGAD      TELAPSE    44322.11 TCPU    43898.45
 TTTTTTTTTTTTTTTTTTTTTTTTTTTTTT CP_MONMON   TELAPSE    44329.08 TCPU    43905.37
 DIIS TEST: 0.53484E-02 AT CPHF  CYCLE   7 - DIIS ACTIVE - HISTORY:     7 CYCLES
 CYCLE   7   ALPHA  662.695793  EPSILON    2.672949  DELTA    3.7888E-02
 TTTTTTTTTTTTTTTTTTTTTTTTTTTTTT MOQGAD      TELAPSE    44699.11 TCPU    44272.49
 TTTTTTTTTTTTTTTTTTTTTTTTTTTTTT CP_MONMON   TELAPSE    44706.08 TCPU    44279.43
 DIIS TEST: 0.16156E-02 AT CPHF  CYCLE   8 - DIIS ACTIVE - HISTORY:     8 CYCLES
 CYCLE   8   ALPHA  662.693527  EPSILON    2.672943  DELTA   -2.2657E-03
 TTTTTTTTTTTTTTTTTTTTTTTTTTTTTT MOQGAD      TELAPSE    45075.84 TCPU    44646.14
 TTTTTTTTTTTTTTTTTTTTTTTTTTTTTT CP_MONMON   TELAPSE    45082.81 TCPU    44653.07
 DIIS TEST: 0.31921E-02 AT CPHF  CYCLE   9 - DIIS ACTIVE - HISTORY:     9 CYCLES
 CYCLE   9   ALPHA  662.699110  EPSILON    2.672957  DELTA    5.5834E-03
 TTTTTTTTTTTTTTTTTTTTTTTTTTTTTT MOQGAD      TELAPSE    45452.39 TCPU    45019.86
 TTTTTTTTTTTTTTTTTTTTTTTTTTTTTT CP_MONMON   TELAPSE    45459.33 TCPU    45026.77
 DIIS TEST: 0.41217E-03 AT CPHF  CYCLE  10 - DIIS ACTIVE - HISTORY:    10 CYCLES
 CYCLE  10   ALPHA  662.684349  EPSILON    2.672920  DELTA   -1.4761E-02
 TTTTTTTTTTTTTTTTTTTTTTTTTTTTTT MOQGAD      TELAPSE    45828.94 TCPU    45393.41
 TTTTTTTTTTTTTTTTTTTTTTTTTTTTTT CP_MONMON   TELAPSE    45835.93 TCPU    45400.36
 DIIS TEST: 0.65252E-04 AT CPHF  CYCLE  11 - DIIS ACTIVE - HISTORY:    11 CYCLES
 CYCLE  11   ALPHA  662.677013  EPSILON    2.672901  DELTA   -7.3362E-03
 TTTTTTTTTTTTTTTTTTTTTTTTTTTTTT MOQGAD      TELAPSE    46207.90 TCPU    45767.30
 TTTTTTTTTTTTTTTTTTTTTTTTTTTTTT CP_MONMON   TELAPSE    46214.86 TCPU    45774.22
 DIIS TEST: 0.12014E-04 AT CPHF  CYCLE  12 - DIIS ACTIVE - HISTORY:    12 CYCLES
 CYCLE  12   ALPHA  662.672790  EPSILON    2.672891  DELTA   -4.2232E-03
 TTTTTTTTTTTTTTTTTTTTTTTTTTTTTT MOQGAD      TELAPSE    46584.37 TCPU    46140.89
 TTTTTTTTTTTTTTTTTTTTTTTTTTTTTT CP_MONMON   TELAPSE    46591.34 TCPU    46147.81
 DIIS TEST: 0.58020E-06 AT CPHF  CYCLE  13 - DIIS ACTIVE - HISTORY:    13 CYCLES
 CYCLE  13   ALPHA  662.672318  EPSILON    2.672889  DELTA   -4.7165E-04
 TTTTTTTTTTTTTTTTTTTTTTTTTTTTTT CP_SC       TELAPSE    46608.56 TCPU    46163.33

 *******************************************************************************

 POLARIZABILITY (ALPHA), DIELECTRIC (EPSILON) AND FIRST-ORDER ELECTRIC
 SUSCEPTIBILITY (CHI(1)) TENSORS (INDEPENDENT COMPONENTS)

  FR.(eV) COMP.   ALPHA(Re,Im)           EPSILON(Re,Im)                CHI(1)
  2.331   XX    1259.5136       0.0000       4.1796       0.0000       3.1796
  2.331   XY      -0.0020       0.0000      -0.0000       0.0000      -0.0000
  2.331   XZ       0.0000       0.0000       0.0000       0.0000       0.0000
  2.331   YY    1259.5136       0.0000       4.1796       0.0000       3.1796
  2.331   YZ      -0.0000       0.0000      -0.0000       0.0000      -0.0000
  2.331   ZZ     662.6723       0.0000       2.6729       0.0000       1.6729

 DIELECTRIC TENSOR

 TENSOR IN PRINCIPAL AXES SYSTEM
 AA  4.179586E+00 BB  4.179596E+00 CC  2.672889E+00

 REFRACTIVE INDICES 
 AA  1.634897E+00 BB  2.044404E+00 CC  2.044406E+00

 OPTICALLY ANISOTROPIC - UNIAXIAL CRYSTAL

 BIREFRINGENCE =  0.4095 (NEGATIVE) - OBLATE OPTICAL ELLIPSOID

 EPSILON=N**2=1+CHI(1)=1+ALPHA*4*PI/V,   4*PI/V=   0.00252 BOHR**(-3)
 ALPHA IN BOHR**3; EPSILON AND CHI(1) ARE DIMENSIONLESS.
 *******************************************************************************


  Pockels Effect beta(-omega;omega,0) with omega=   1.1653 eV


 SIZE OF GRID=    1804188
 TTTTTTTTTTTTTTTTTTTTTTTTTTTTTT MAKE_GRID2  TELAPSE    46693.29 TCPU    46247.31
 BECKE WEIGHT FUNCTION
 RADSAFE =     2.00
 TOLERANCES - DENSITY:10**- 6; POTENTIAL:10**- 9; GRID WGT:10**-14

 RADIAL INTEGRATION  - INTERVALS (POINTS,UPPER LIMIT):            1( 75,  4.0*R)

 ANGULAR INTEGRATION - INTERVALS (ACCURACY LEVEL [N. POINTS] UPPER LIMIT):
  1(  4[  86]   0.2)  2(  8[ 194]   0.5)  3( 12[ 350]   0.9)  4( 16[ 974]   3.5)
  5( 12[ 350]9999.0)

 SIZE OF GRID=    1804188
 TTTTTTTTTTTTTTTTTTTTTTTTTTTTTT MAKE_GRID2  TELAPSE    46724.82 TCPU    46248.53
 BECKE WEIGHT FUNCTION
 RADSAFE =     2.00
 TOLERANCES - DENSITY:10**- 6; POTENTIAL:10**- 9; GRID WGT:10**-14

 RADIAL INTEGRATION  - INTERVALS (POINTS,UPPER LIMIT):            1( 75,  4.0*R)

 ANGULAR INTEGRATION - INTERVALS (ACCURACY LEVEL [N. POINTS] UPPER LIMIT):
  1(  4[  86]   0.2)  2(  8[ 194]   0.5)  3( 12[ 350]   0.9)  4( 16[ 974]   3.5)
  5( 12[ 350]9999.0)
 *******************************************************************************

 DC-POCKELS AND SECOND ELECTRIC SUSCEPTIBILITY (CHI(2))
 TENSORS (INDEPENDENT COMPONENTS)

BETA                                         CHI(2)       d(MKS)       d(cgs)
 *******************************************************************************

     XXX          0.2148E-02   0.2712E-05   0.2637E-05   0.6290E-07
     XXY          0.1214E-03   0.1532E-06   0.1490E-06   0.3554E-08
     XXZ          0.1075E+04   0.1357E+01   0.1320E+01   0.3148E-01
     XYX         -0.7769E-03  -0.9806E-06  -0.9535E-06  -0.2275E-07
     XYY          0.1186E-02   0.1497E-05   0.1456E-05   0.3474E-07
     XYZ          0.1250E+03   0.1577E+00   0.1534E+00   0.3659E-02
     XZX          0.1067E+04   0.1346E+01   0.1309E+01   0.3123E-01
     XZY          0.2002E+03   0.2527E+00   0.2457E+00   0.5861E-02
     XZZ          0.9753E-03   0.1231E-05   0.1197E-05   0.2856E-07
     YXX         -0.8456E-03  -0.1067E-05  -0.1038E-05  -0.2476E-07
     YXY          0.1174E-02   0.1482E-05   0.1441E-05   0.3439E-07
     YXZ          0.1250E+03   0.1577E+00   0.1534E+00   0.3659E-02
     YYX         -0.5292E-04  -0.6680E-07  -0.6495E-07  -0.1550E-08
     YYY         -0.1864E-02  -0.2353E-05  -0.2288E-05  -0.5459E-07
     YYZ         -0.1075E+04  -0.1357E+01  -0.1320E+01  -0.3148E-01
     YZX          0.2002E+03   0.2527E+00   0.2457E+00   0.5861E-02
     YZY         -0.1067E+04  -0.1346E+01  -0.1309E+01  -0.3123E-01
     YZZ         -0.8738E-03  -0.1103E-05  -0.1072E-05  -0.2559E-07
     ZXX          0.1069E+04   0.1349E+01   0.1312E+01   0.3129E-01
     ZXY          0.2017E+03   0.2546E+00   0.2475E+00   0.5905E-02
     ZXZ          0.1010E-02   0.1275E-05   0.1239E-05   0.2957E-07
     ZYX          0.2017E+03   0.2546E+00   0.2475E+00   0.5905E-02
     ZYY         -0.1069E+04  -0.1349E+01  -0.1312E+01  -0.3129E-01
     ZYZ         -0.8788E-03  -0.1109E-05  -0.1079E-05  -0.2573E-07
     ZZX         -0.6614E-04  -0.8349E-07  -0.8118E-07  -0.1937E-08
     ZZY          0.8066E-04   0.1018E-06   0.9900E-07   0.2362E-08
     ZZZ          0.8833E-02   0.1115E-04   0.1084E-04   0.2586E-06
 *******************************************************************************
 CHI(2) = BETA*2PI/V

 BETA AND CHI(2) IN A.U.:    [BETA] = M**(-1/2) L**(7/2) T
                             [CHI(2)] = 1/F
                             (L=LENGTH, M=MASS, T=TIME, F=FIELD INTENSITY)

 ELECTRIC SUSCEPTIBILITY IN THE SECOND HARMONIC GENERATION (SHG) CONVENTION IS:
                   d(A.U.)= 1/2 CHI(2)
                   d(MKS) = d(A.U.)/0.514220632 pm/V
                   d(CGS) = d(A.U.)/(4PI*1.7152535)  10**(-7) esu

 FIELD INTENSITY: 1 A.U. = 0.514220632*10**(11) V/m = 1.7152535*10**7 esu
 BEWARE:                CHI(2)=P/(E0*F**2)   (MKS)
                        CHI(2)=P/F**2        (CGS)
 WHERE P IS THE POLARIZATION VECTOR AND F IS THE APPLIED ELECTRIC FIELD.
 CONSISTENCY IS  PRESERVED BY MULTIPLYING THE CGS VALUE TIMES THE PERMITTIVITY
 OF THE VACUUM, E0 (CONVERSION FACTORS FROM www.physics.nist.gov/constants).
 IN PARENTHESIS: BETA BEFORE SYMMETRIZATION.

  SHG Effect beta(-2omega;omega,omega) with omega=   1.1653 eV


 SIZE OF GRID=    1804188
 TTTTTTTTTTTTTTTTTTTTTTTTTTTTTT MAKE_GRID2  TELAPSE    46788.26 TCPU    46311.55
 BECKE WEIGHT FUNCTION
 RADSAFE =     2.00
 TOLERANCES - DENSITY:10**- 6; POTENTIAL:10**- 9; GRID WGT:10**-14

 RADIAL INTEGRATION  - INTERVALS (POINTS,UPPER LIMIT):            1( 75,  4.0*R)

 ANGULAR INTEGRATION - INTERVALS (ACCURACY LEVEL [N. POINTS] UPPER LIMIT):
  1(  4[  86]   0.2)  2(  8[ 194]   0.5)  3( 12[ 350]   0.9)  4( 16[ 974]   3.5)
  5( 12[ 350]9999.0)

 SIZE OF GRID=    1804188
 TTTTTTTTTTTTTTTTTTTTTTTTTTTTTT MAKE_GRID2  TELAPSE    46789.53 TCPU    46312.82
 BECKE WEIGHT FUNCTION
 RADSAFE =     2.00
 TOLERANCES - DENSITY:10**- 6; POTENTIAL:10**- 9; GRID WGT:10**-14

 RADIAL INTEGRATION  - INTERVALS (POINTS,UPPER LIMIT):            1( 75,  4.0*R)

 ANGULAR INTEGRATION - INTERVALS (ACCURACY LEVEL [N. POINTS] UPPER LIMIT):
  1(  4[  86]   0.2)  2(  8[ 194]   0.5)  3( 12[ 350]   0.9)  4( 16[ 974]   3.5)
  5( 12[ 350]9999.0)
 *******************************************************************************

 SECOND HARMONIC GENERATION (SHG)  AND SECOND ELECTRIC SUSCEPTIBILITY (CHI(2))
 TENSORS (INDEPENDENT COMPONENTS)

BETA                                         CHI(2)       d(MKS)       d(cgs)
 *******************************************************************************

     XXX          0.3734E-02   0.4713E-05   0.4582E-05   0.1093E-06
     XXY         -0.9745E-03  -0.1230E-05  -0.1196E-05  -0.2853E-07
     XXZ          0.2163E+04   0.2730E+01   0.2655E+01   0.6334E-01
     XYX         -0.9745E-03  -0.1230E-05  -0.1196E-05  -0.2853E-07
     XYY          0.1531E-02   0.1932E-05   0.1879E-05   0.4482E-07
     XYZ          0.1890E+03   0.2385E+00   0.2319E+00   0.5533E-02
     XZX          0.2163E+04   0.2730E+01   0.2655E+01   0.6334E-01
     XZY          0.1890E+03   0.2385E+00   0.2319E+00   0.5533E-02
     XZZ          0.9733E-03   0.1229E-05   0.1195E-05   0.2850E-07
     YXX         -0.1029E-02  -0.1298E-05  -0.1262E-05  -0.3012E-07
     YXY          0.1251E-02   0.1580E-05   0.1536E-05   0.3664E-07
     YXZ          0.1890E+03   0.2385E+00   0.2319E+00   0.5533E-02
     YYX          0.1251E-02   0.1580E-05   0.1536E-05   0.3664E-07
     YYY         -0.3311E-02  -0.4180E-05  -0.4064E-05  -0.9695E-07
     YYZ         -0.2163E+04  -0.2730E+01  -0.2655E+01  -0.6334E-01
     YZX          0.1890E+03   0.2385E+00   0.2319E+00   0.5533E-02
     YZY         -0.2163E+04  -0.2730E+01  -0.2655E+01  -0.6334E-01
     YZZ         -0.9630E-03  -0.1216E-05  -0.1182E-05  -0.2820E-07
     ZXX          0.2275E+04   0.2871E+01   0.2792E+01   0.6660E-01
     ZXY          0.6478E+03   0.8177E+00   0.7950E+00   0.1897E-01
     ZXZ          0.1199E-02   0.1514E-05   0.1472E-05   0.3512E-07
     ZYX          0.6478E+03   0.8177E+00   0.7950E+00   0.1897E-01
     ZYY         -0.2275E+04  -0.2871E+01  -0.2792E+01  -0.6660E-01
     ZYZ         -0.8289E-03  -0.1046E-05  -0.1017E-05  -0.2427E-07
     ZZX          0.1199E-02   0.1514E-05   0.1472E-05   0.3512E-07
     ZZY         -0.8289E-03  -0.1046E-05  -0.1017E-05  -0.2427E-07
     ZZZ          0.4793E-02   0.6050E-05   0.5883E-05   0.1403E-06
 *******************************************************************************
 CHI(2) = BETA*2PI/V

 BETA AND CHI(2) IN A.U.:    [BETA] = M**(-1/2) L**(7/2) T
                             [CHI(2)] = 1/F
                             (L=LENGTH, M=MASS, T=TIME, F=FIELD INTENSITY)

 ELECTRIC SUSCEPTIBILITY IN THE SECOND HARMONIC GENERATION (SHG) CONVENTION IS:
                   d(A.U.)= 1/2 CHI(2)
                   d(MKS) = d(A.U.)/0.514220632 pm/V
                   d(CGS) = d(A.U.)/(4PI*1.7152535)  10**(-7) esu

 FIELD INTENSITY: 1 A.U. = 0.514220632*10**(11) V/m = 1.7152535*10**7 esu
 BEWARE:                CHI(2)=P/(E0*F**2)   (MKS)
                        CHI(2)=P/F**2        (CGS)
 WHERE P IS THE POLARIZATION VECTOR AND F IS THE APPLIED ELECTRIC FIELD.
 CONSISTENCY IS  PRESERVED BY MULTIPLYING THE CGS VALUE TIMES THE PERMITTIVITY
 OF THE VACUUM, E0 (CONVERSION FACTORS FROM www.physics.nist.gov/constants).
 IN PARENTHESIS: BETA BEFORE SYMMETRIZATION.

 *******************************************************************************


 GCALCO - MAX INDICES DIRECT LATTICE VECTOR    14    14    16
 NO.OF VECTORS CREATED 6999 STARS  485 RMAX   203.49894 BOHR

 CAPPA:IS1  3;IS2  3;IS3  3; K PTS MONK NET   6; SYMMOPS:K SPACE   8;G SPACE   4

 TTTTTTTTTTTTTTTTTTTTTTTTTTTTTT END         TELAPSE    46789.71 TCPU    46312.99
 EEEEEEEEEE TERMINATION  DATE 22 01 2024 TIME 10:24:44.6
NODE    0 CPU TIME =     46312.987
    TOTAL CPU TIME =   2965547.384
trying normal rsh (/usr/bin/rsh)
exec: No such file or directory
trying normal rsh (/usr/bin/rsh)
exec: No such file or directory
trying normal rsh (/usr/bin/rsh)
exec: No such file or directory
trying normal rsh (/usr/bin/rsh)
exec: No such file or directory
