Loading crystal17/1.0.2/intel/19.0
  Loading requirement: intel/19.0 ompi/4.0.1/intel/19.0
          64 PROCESSORS WORKING

         
 *******************************************************************************
 *                                                                             *
 *                               CRYSTAL17                                     *
 *                      public : 1.0.2 - March 1st, 2018                       *
 *                       HTTP://WWW.CRYSTAL.UNITO.IT                           *
 *                                                                             *
 *                              MAIN AUTHORS                                   *
 *                                                                             *
 *  R. DOVESI(1,11), V.R. SAUNDERS(2), C. ROETTI(1,11), R. ORLANDO(1,11),      *
 *  C.M. ZICOVICH-WILSON(1,3), F. PASCALE(4), B. CIVALLERI(1,11),              *
 *  K. DOLL(5), N.M. HARRISON(2,6), I.J. BUSH(7), Ph. D'ARCO(8),               *
 *  M. LLUNELL(9), M. CAUSA'(10), Y. NOEL(8), L. MASCHIO(1,11), A. ERBA(1,11)  *
 *  M. RE'RAT(14), S. CASASSA(1,11)                                            *
 *                                                                             *
 *        CONTRIBUTIONS TO THE CODE HAVE ALSO BEEN GIVEN BY                    *
 *                                                                             *
 *  M. FERRABONE(1,11), M. DE LA PIERRE(1,11), M. FERRERO(1,11),               *
 *  J. BAIMA(1,11), E. ALBANESE(1,11), M.F. PEINTINGER(12), R. BAST(13),       *
 *  B. KIRTMAN(15), V. LACIVITA(1,11), R. DEMICHELIS(1,16)                     *
 *  G. BRANDEBURG(17), S. SALUSTRO(1,11), G. SANSONE(1,11)                     *
 *  M.T. RUGGIERO(18)                                                          *
 *                                                                             *
 * (1) THEORETICAL CHEMISTRY GROUP - UNIVERSITA' DI TORINO - TORINO (ITALY)    *
 * (2) COMPUTATIONAL SCIENCE & ENGINEERING DEPARTMENT - STFC DARESBURY (UK)    *
 * (3) UNIVERSIDAD AUTONOMA DEL ESTADO DE MORELOS - CUERNAVACA (MEXICO)        *
 * (4) UNIVERSITE' DE LORRAINE - NANCY (FRANCE)                                *
 * (5) UNIVERSITAET STUTTGART- STUTTGART (GERMANY)                             *
 * (6) IMPERIAL COLLEGE - LONDON (UK)                                          *
 * (7) OXFORD E-RESEARCH CENTRE - OXFORD (UK)                                  *
 * (8) UPMC - SORBONNE UNIVERSITES - PARIS (FRANCE)                            *
 * (9) UNIVERSIDAD DE BARCELONA - BARCELONA (SPAIN)                            *
 *(10) UNIVERSITA' DI NAPOLI "FEDERICO II" - NAPOLI (ITALY)                    *
 *(11) NIS - NANOSTRUCTURED INTERFACES AND SURFACES - TORINO (ITALY)           *
 *(12) MPI FUER CHEMISCHE ENERGIEKONVERSION - MUELHEIM AN DER RUHR (GERMANY)   *
 *(13) UNIVERSITY OF TROMSO - TROMSO (NORWAY)                                  *
 *(14) UNIVERSITE' DE PAU ET DES PAYS DE L'ADOUR - PAU (FRANCE)                *
 *(15) UNIVERSITY OF CALIFORNIA SANTA BARBARA - SANTA BARBARA (USA)            *
 *(16) CURTIN UNIVERSITY - PERTH (AUSTRALIA)                                   *
 *(17) UNIVERSITY COLLEGE LONDON - LONDON (UK)                                 *
 *(18) CAMBRIDGE UNIVERSITY - CAMBRIDGE (UK)                                   *
 *                                                                             *
 *******************************************************************************
 EEEEEEEEEE STARTING  DATE 08 03 2024 TIME 17:17:09.1
 Z:\home\sanoj\Downloads\tmp_p\newconn.mol                                       

 CRYSTAL CALCULATION
 (INPUT ACCORDING TO THE INTERNATIONAL TABLES FOR X-RAY CRYSTALLOGRAPHY)
 CRYSTAL FAMILY                       :  TETRAGONAL  
 CRYSTAL CLASS  (GROTH - 1921)        :  TETRAGONAL DISPHENOIDAL              

 SPACE GROUP (NONCENTROSYMMETRIC)     :  I -4            

 LATTICE PARAMETERS  (ANGSTROMS AND DEGREES) - CONVENTIONAL CELL
        A           B           C        ALPHA        BETA       GAMMA
    10.87868    10.87868    12.75772    90.00000    90.00000    90.00000


 NUMBER OF IRREDUCIBLE ATOMS IN THE CONVENTIONAL CELL:   17

 INPUT COORDINATES

 ATOM AT. N.              COORDINATES
   1   1     6.395000000000E-02  7.774200000000E-01  3.874500000000E-01
   2   1     4.627200000000E-01  8.017900000000E-01  3.923600000000E-01
   3   1     8.776000000000E-02  5.475700000000E-01  3.855200000000E-01
   4   6     2.617500000000E-01  8.087100000000E-01  3.884000000000E-01
   5   6     2.531000000000E-01 -5.907000000000E-02  3.804000000000E-01
   6   6     1.551200000000E-01  7.353700000000E-01  3.890500000000E-01
   7   6     2.867300000000E-01  5.601000000000E-01  3.779600000000E-01
   8   6     3.766000000000E-01  7.496800000000E-01  3.877900000000E-01
   9   6     8.326800000000E-01  3.915000000000E-01  3.865600000000E-01
  10   7     3.395900000000E-01  1.560000000000E-02  3.364900000000E-01
  11   7     2.921100000000E-01  1.330200000000E-01  3.401900000000E-01
  12   7     1.552600000000E-01  1.044000000000E-02  4.102000000000E-01
  13   7     1.821400000000E-01  1.299100000000E-01  3.832000000000E-01
  14   7     3.885500000000E-01  6.275900000000E-01  3.803100000000E-01
  15  30     0.000000000000E+00  5.000000000000E-01  7.500000000000E-01
  16  30     0.000000000000E+00  0.000000000000E+00  5.000000000000E-01
  17  35     3.036300000000E-01  3.892700000000E-01  3.571000000000E-01

 *******************************************************************************

 << INFORMATION >>: FROM NOW ON, ALL COORDINATES REFER TO THE PRIMITIVE CELL

 *******************************************************************************

 LATTICE PARAMETERS  (ANGSTROMS AND DEGREES) - PRIMITIVE CELL
       A          B          C        ALPHA      BETA     GAMMA        VOLUME
    9.99313    9.99313    9.99313   114.04525 114.04525 100.66603    754.910044

 COORDINATES OF THE EQUIVALENT ATOMS (FRACTIONAL UNITS)

 N. ATOM EQUIV AT. N.          X                  Y                  Z

   1   1   1    1 H     1.64870000000E-01  4.51400000000E-01 -1.58630000000E-01
   2   1   2    1 H    -3.89970000000E-01  3.23500000000E-01  1.58630000000E-01
   3   1   3    1 H    -4.51400000000E-01  3.89970000000E-01 -2.86530000000E-01
   4   1   4    1 H    -3.23500000000E-01 -1.64870000000E-01  2.86530000000E-01

   5   2   1    1 H     1.94150000000E-01 -1.44920000000E-01  2.64510000000E-01
   6   2   2    1 H    -4.09430000000E-01 -7.03600000000E-02 -2.64510000000E-01
   7   2   3    1 H     1.44920000000E-01  4.09430000000E-01  3.39070000000E-01
   8   2   4    1 H     7.03600000000E-02 -1.94150000000E-01 -3.39070000000E-01

   9   3   1    1 H    -6.69100000000E-02  4.73280000000E-01 -3.64670000000E-01
  10   3   2    1 H    -1.62050000000E-01  2.97760000000E-01  3.64670000000E-01
  11   3   3    1 H    -4.73280000000E-01  1.62050000000E-01  4.59810000000E-01
  12   3   4    1 H    -2.97760000000E-01  6.69100000000E-02 -4.59810000000E-01

  13   4   1    6 C     1.97110000000E-01 -3.49850000000E-01  7.04600000000E-02
  14   4   2    6 C    -4.20310000000E-01  1.26650000000E-01 -7.04600000000E-02
  15   4   3    6 C     3.49850000000E-01  4.20310000000E-01 -4.53040000000E-01
  16   4   4    6 C    -1.26650000000E-01 -1.97110000000E-01  4.53040000000E-01

  17   5   1    6 C     3.21330000000E-01 -3.66500000000E-01  1.94030000000E-01
  18   5   2    6 C     4.39470000000E-01  1.27300000000E-01 -1.94030000000E-01
  19   5   3    6 C     3.66500000000E-01 -4.39470000000E-01 -3.12170000000E-01
  20   5   4    6 C    -1.27300000000E-01 -3.21330000000E-01  3.12170000000E-01

  21   6   1    6 C     1.24420000000E-01 -4.55830000000E-01 -1.09510000000E-01
  22   6   2    6 C    -3.46320000000E-01  2.33930000000E-01  1.09510000000E-01
  23   6   3    6 C     4.55830000000E-01  3.46320000000E-01 -4.19750000000E-01
  24   6   4    6 C    -2.33930000000E-01 -1.24420000000E-01  4.19750000000E-01

  25   7   1    6 C    -6.19400000000E-02 -3.35310000000E-01 -1.53170000000E-01
  26   7   2    6 C    -1.82140000000E-01  9.12300000000E-02  1.53170000000E-01
  27   7   3    6 C     3.35310000000E-01  1.82140000000E-01  2.73370000000E-01
  28   7   4    6 C    -9.12300000000E-02  6.19400000000E-02 -2.73370000000E-01

  29   8   1    6 C     1.37470000000E-01 -2.35610000000E-01  1.26280000000E-01
  30   8   2    6 C    -3.61890000000E-01  1.11900000000E-02 -1.26280000000E-01
  31   8   3    6 C     2.35610000000E-01  3.61890000000E-01  3.73080000000E-01
  32   8   4    6 C    -1.11900000000E-02 -1.37470000000E-01 -3.73080000000E-01

  33   9   1    6 C    -2.21940000000E-01  2.19240000000E-01  2.24180000000E-01
  34   9   2    6 C    -4.94000000000E-03 -4.46120000000E-01 -2.24180000000E-01
  35   9   3    6 C    -2.19240000000E-01  4.94000000000E-03 -4.41180000000E-01
  36   9   4    6 C     4.46120000000E-01  2.21940000000E-01  4.41180000000E-01

  37  10   1    7 N     3.52090000000E-01 -3.23920000000E-01  3.55190000000E-01
  38  10   2    7 N     3.20890000000E-01 -3.10000000000E-03 -3.55190000000E-01
  39  10   3    7 N     3.23920000000E-01 -3.20890000000E-01 -3.23990000000E-01
  40  10   4    7 N     3.10000000000E-03 -3.52090000000E-01  3.23990000000E-01

  41  11   1    7 N     4.73210000000E-01 -3.67700000000E-01  4.25130000000E-01
  42  11   2    7 N     2.07170000000E-01  4.80800000000E-02 -4.25130000000E-01
  43  11   3    7 N     3.67700000000E-01 -2.07170000000E-01 -1.59090000000E-01
  44  11   4    7 N    -4.80800000000E-02 -4.73210000000E-01  1.59090000000E-01

  45  12   1    7 N     4.20640000000E-01 -4.34540000000E-01  1.65700000000E-01
  46  12   2    7 N     3.99760000000E-01  2.54940000000E-01 -1.65700000000E-01
  47  12   3    7 N     4.34540000000E-01 -3.99760000000E-01 -1.44820000000E-01
  48  12   4    7 N    -2.54940000000E-01 -4.20640000000E-01  1.44820000000E-01

  49  13   1    7 N    -4.86890000000E-01 -4.34660000000E-01  3.12050000000E-01
  50  13   2    7 N     2.53290000000E-01  2.01060000000E-01 -3.12050000000E-01
  51  13   3    7 N     4.34660000000E-01 -2.53290000000E-01 -5.22300000000E-02
  52  13   4    7 N    -2.01060000000E-01  4.86890000000E-01  5.22300000000E-02

  53  14   1    7 N     7.90000000000E-03 -2.31140000000E-01  1.61400000000E-02
  54  14   2    7 N    -2.47280000000E-01 -8.24000000000E-03 -1.61400000000E-02
  55  14   3    7 N     2.31140000000E-01  2.47280000000E-01  2.39040000000E-01
  56  14   4    7 N     8.24000000000E-03 -7.90000000000E-03 -2.39040000000E-01

  57  15   1   30 ZN    2.50000000000E-01 -2.50000000000E-01 -5.00000000000E-01

  58  16   1   30 ZN   -5.00000000000E-01 -5.00000000000E-01  0.00000000000E+00

  59  17   1   35 BR   -2.53630000000E-01 -3.39270000000E-01 -3.07100000000E-01
  60  17   2   35 BR   -3.21700000000E-02  5.34700000000E-02  3.07100000000E-01
  61  17   3   35 BR    3.39270000000E-01  3.21700000000E-02  8.56400000000E-02
  62  17   4   35 BR   -5.34700000000E-02  2.53630000000E-01 -8.56400000000E-02

 NUMBER OF SYMMETRY OPERATORS         :    4
 *******************************************************************************
 * GEOMETRY EDITING - INPUT COORDINATES ARE GIVEN IN ANGSTROM         
 *******************************************************************************

 GEOMETRY NOW FULLY CONSISTENT WITH THE GROUP

 GCALCO - MAX INDICES DIRECT LATTICE VECTOR    14    14    16
 NO.OF VECTORS CREATED 6999 STARS  486 RMAX   204.94121 BOHR

 GEOMETRY FOR WAVE FUNCTION - DIMENSIONALITY OF THE SYSTEM    3
 (NON PERIODIC DIRECTION: LATTICE PARAMETER FORMALLY SET TO 500)
 *******************************************************************************
 LATTICE PARAMETERS (ANGSTROMS AND DEGREES) - BOHR = 0.5291772083 ANGSTROM
 PRIMITIVE CELL - CENTRING CODE 6/0 VOLUME=   754.910044 - DENSITY  2.252 g/cm^3
         A              B              C           ALPHA      BETA       GAMMA 
     9.99313023     9.99313023     9.99313023   114.045249 114.045249 100.666031
 *******************************************************************************
 ATOMS IN THE ASYMMETRIC UNIT   17 - ATOMS IN THE UNIT CELL:   62
     ATOM                 X/A                 Y/B                 Z/C    
 *******************************************************************************
      1 T   1 H     1.648700000000E-01  4.514000000000E-01 -1.586300000000E-01
      2 F   1 H    -3.899700000000E-01  3.235000000000E-01  1.586300000000E-01
      3 F   1 H    -4.514000000000E-01  3.899700000000E-01 -2.865300000000E-01
      4 F   1 H    -3.235000000000E-01 -1.648700000000E-01  2.865300000000E-01
      5 T   1 H     1.941500000000E-01 -1.449200000000E-01  2.645100000000E-01
      6 F   1 H    -4.094300000000E-01 -7.036000000000E-02 -2.645100000000E-01
      7 F   1 H     1.449200000000E-01  4.094300000000E-01  3.390700000000E-01
      8 F   1 H     7.036000000000E-02 -1.941500000000E-01 -3.390700000000E-01
      9 T   1 H    -6.691000000000E-02  4.732800000000E-01 -3.646700000000E-01
     10 F   1 H    -1.620500000000E-01  2.977600000000E-01  3.646700000000E-01
     11 F   1 H    -4.732800000000E-01  1.620500000000E-01  4.598100000000E-01
     12 F   1 H    -2.977600000000E-01  6.691000000000E-02 -4.598100000000E-01
     13 T   6 C     1.971100000000E-01 -3.498500000000E-01  7.046000000000E-02
     14 F   6 C    -4.203100000000E-01  1.266500000000E-01 -7.046000000000E-02
     15 F   6 C     3.498500000000E-01  4.203100000000E-01 -4.530400000000E-01
     16 F   6 C    -1.266500000000E-01 -1.971100000000E-01  4.530400000000E-01
     17 T   6 C     3.213300000000E-01 -3.665000000000E-01  1.940300000000E-01
     18 F   6 C     4.394700000000E-01  1.273000000000E-01 -1.940300000000E-01
     19 F   6 C     3.665000000000E-01 -4.394700000000E-01 -3.121700000000E-01
     20 F   6 C    -1.273000000000E-01 -3.213300000000E-01  3.121700000000E-01
     21 T   6 C     1.244200000000E-01 -4.558300000000E-01 -1.095100000000E-01
     22 F   6 C    -3.463200000000E-01  2.339300000000E-01  1.095100000000E-01
     23 F   6 C     4.558300000000E-01  3.463200000000E-01 -4.197500000000E-01
     24 F   6 C    -2.339300000000E-01 -1.244200000000E-01  4.197500000000E-01
     25 T   6 C    -6.194000000000E-02 -3.353100000000E-01 -1.531700000000E-01
     26 F   6 C    -1.821400000000E-01  9.123000000000E-02  1.531700000000E-01
     27 F   6 C     3.353100000000E-01  1.821400000000E-01  2.733700000000E-01
     28 F   6 C    -9.123000000000E-02  6.194000000000E-02 -2.733700000000E-01
     29 T   6 C     1.374700000000E-01 -2.356100000000E-01  1.262800000000E-01
     30 F   6 C    -3.618900000000E-01  1.119000000000E-02 -1.262800000000E-01
     31 F   6 C     2.356100000000E-01  3.618900000000E-01  3.730800000000E-01
     32 F   6 C    -1.119000000000E-02 -1.374700000000E-01 -3.730800000000E-01
     33 T   6 C    -2.219400000000E-01  2.192400000000E-01  2.241800000000E-01
     34 F   6 C    -4.940000000000E-03 -4.461200000000E-01 -2.241800000000E-01
     35 F   6 C    -2.192400000000E-01  4.940000000000E-03 -4.411800000000E-01
     36 F   6 C     4.461200000000E-01  2.219400000000E-01  4.411800000000E-01
     37 T   7 N     3.520900000000E-01 -3.239200000000E-01  3.551900000000E-01
     38 F   7 N     3.208900000000E-01 -3.100000000000E-03 -3.551900000000E-01
     39 F   7 N     3.239200000000E-01 -3.208900000000E-01 -3.239900000000E-01
     40 F   7 N     3.100000000000E-03 -3.520900000000E-01  3.239900000000E-01
     41 T   7 N     4.732100000000E-01 -3.677000000000E-01  4.251300000000E-01
     42 F   7 N     2.071700000000E-01  4.808000000000E-02 -4.251300000000E-01
     43 F   7 N     3.677000000000E-01 -2.071700000000E-01 -1.590900000000E-01
     44 F   7 N    -4.808000000000E-02 -4.732100000000E-01  1.590900000000E-01
     45 T   7 N     4.206400000000E-01 -4.345400000000E-01  1.657000000000E-01
     46 F   7 N     3.997600000000E-01  2.549400000000E-01 -1.657000000000E-01
     47 F   7 N     4.345400000000E-01 -3.997600000000E-01 -1.448200000000E-01
     48 F   7 N    -2.549400000000E-01 -4.206400000000E-01  1.448200000000E-01
     49 T   7 N    -4.868900000000E-01 -4.346600000000E-01  3.120500000000E-01
     50 F   7 N     2.532900000000E-01  2.010600000000E-01 -3.120500000000E-01
     51 F   7 N     4.346600000000E-01 -2.532900000000E-01 -5.223000000000E-02
     52 F   7 N    -2.010600000000E-01  4.868900000000E-01  5.223000000000E-02
     53 T   7 N     7.900000000000E-03 -2.311400000000E-01  1.614000000000E-02
     54 F   7 N    -2.472800000000E-01 -8.240000000000E-03 -1.614000000000E-02
     55 F   7 N     2.311400000000E-01  2.472800000000E-01  2.390400000000E-01
     56 F   7 N     8.240000000000E-03 -7.900000000000E-03 -2.390400000000E-01
     57 T  30 ZN    2.500000000000E-01 -2.500000000000E-01 -5.000000000000E-01
     58 T  30 ZN   -5.000000000000E-01  5.000000000000E-01  0.000000000000E+00
     59 T  35 BR   -2.536300000000E-01 -3.392700000000E-01 -3.071000000000E-01
     60 F  35 BR   -3.217000000000E-02  5.347000000000E-02  3.071000000000E-01
     61 F  35 BR    3.392700000000E-01  3.217000000000E-02  8.564000000000E-02
     62 F  35 BR   -5.347000000000E-02  2.536300000000E-01 -8.564000000000E-02

 TRANSFORMATION MATRIX PRIMITIVE-CRYSTALLOGRAPHIC CELL
  0.0000  1.0000  1.0000  1.0000  0.0000  1.0000  1.0000  1.0000  0.0000

 *******************************************************************************
 CRYSTALLOGRAPHIC CELL (VOLUME=       1509.82008812)
         A              B              C           ALPHA      BETA       GAMMA 
    10.87867793    10.87867793    12.75771690    90.000000  90.000000  90.000000

 COORDINATES IN THE CRYSTALLOGRAPHIC CELL
     ATOM                 X/A                 Y/B                 Z/C    
 *******************************************************************************
      1 T   1 H     6.395000000000E-02 -2.225800000000E-01  3.874500000000E-01
      2 F   1 H    -6.395000000000E-02  2.225800000000E-01  3.874500000000E-01
      3 F   1 H    -2.225800000000E-01 -6.395000000000E-02 -3.874500000000E-01
      4 F   1 H     2.225800000000E-01  6.395000000000E-02 -3.874500000000E-01
      5 T   1 H    -3.728000000000E-02  3.017900000000E-01 -1.076400000000E-01
      6 F   1 H     3.728000000000E-02 -3.017900000000E-01 -1.076400000000E-01
      7 F   1 H     3.017900000000E-01  3.728000000000E-02  1.076400000000E-01
      8 F   1 H    -3.017900000000E-01 -3.728000000000E-02  1.076400000000E-01
      9 T   1 H    -4.122400000000E-01  4.757000000000E-02 -1.144800000000E-01
     10 F   1 H     4.122400000000E-01 -4.757000000000E-02 -1.144800000000E-01
     11 F   1 H     4.757000000000E-02  4.122400000000E-01  1.144800000000E-01
     12 F   1 H    -4.757000000000E-02 -4.122400000000E-01  1.144800000000E-01
     13 T   6 C    -2.382500000000E-01  3.087100000000E-01 -1.116000000000E-01
     14 F   6 C     2.382500000000E-01 -3.087100000000E-01 -1.116000000000E-01
     15 F   6 C     3.087100000000E-01  2.382500000000E-01  1.116000000000E-01
     16 F   6 C    -3.087100000000E-01 -2.382500000000E-01  1.116000000000E-01
     17 T   6 C     2.531000000000E-01 -5.907000000000E-02  3.804000000000E-01
     18 F   6 C    -2.531000000000E-01  5.907000000000E-02  3.804000000000E-01
     19 F   6 C    -5.907000000000E-02 -2.531000000000E-01 -3.804000000000E-01
     20 F   6 C     5.907000000000E-02  2.531000000000E-01 -3.804000000000E-01
     21 T   6 C    -3.448800000000E-01  2.353700000000E-01 -1.109500000000E-01
     22 F   6 C     3.448800000000E-01 -2.353700000000E-01 -1.109500000000E-01
     23 F   6 C     2.353700000000E-01  3.448800000000E-01  1.109500000000E-01
     24 F   6 C    -2.353700000000E-01 -3.448800000000E-01  1.109500000000E-01
     25 T   6 C    -2.132700000000E-01  6.010000000000E-02 -1.220400000000E-01
     26 F   6 C     2.132700000000E-01 -6.010000000000E-02 -1.220400000000E-01
     27 F   6 C     6.010000000000E-02  2.132700000000E-01  1.220400000000E-01
     28 F   6 C    -6.010000000000E-02 -2.132700000000E-01  1.220400000000E-01
     29 T   6 C    -1.234000000000E-01  2.496800000000E-01 -1.122100000000E-01
     30 F   6 C     1.234000000000E-01 -2.496800000000E-01 -1.122100000000E-01
     31 F   6 C     2.496800000000E-01  1.234000000000E-01  1.122100000000E-01
     32 F   6 C    -2.496800000000E-01 -1.234000000000E-01  1.122100000000E-01
     33 T   6 C     3.326800000000E-01 -1.085000000000E-01 -1.134400000000E-01
     34 F   6 C    -3.326800000000E-01  1.085000000000E-01 -1.134400000000E-01
     35 F   6 C    -1.085000000000E-01 -3.326800000000E-01  1.134400000000E-01
     36 F   6 C     1.085000000000E-01  3.326800000000E-01  1.134400000000E-01
     37 T   7 N     3.395900000000E-01  1.560000000000E-02  3.364900000000E-01
     38 F   7 N    -3.395900000000E-01 -1.560000000000E-02  3.364900000000E-01
     39 F   7 N     1.560000000000E-02 -3.395900000000E-01 -3.364900000000E-01
     40 F   7 N    -1.560000000000E-02  3.395900000000E-01 -3.364900000000E-01
     41 T   7 N    -2.078900000000E-01 -3.669800000000E-01 -1.598100000000E-01
     42 F   7 N     2.078900000000E-01  3.669800000000E-01 -1.598100000000E-01
     43 F   7 N    -3.669800000000E-01  2.078900000000E-01  1.598100000000E-01
     44 F   7 N     3.669800000000E-01 -2.078900000000E-01  1.598100000000E-01
     45 T   7 N     1.552600000000E-01  1.044000000000E-02  4.102000000000E-01
     46 F   7 N    -1.552600000000E-01 -1.044000000000E-02  4.102000000000E-01
     47 F   7 N     1.044000000000E-02 -1.552600000000E-01 -4.102000000000E-01
     48 F   7 N    -1.044000000000E-02  1.552600000000E-01 -4.102000000000E-01
     49 T   7 N     1.821400000000E-01  1.299100000000E-01  3.832000000000E-01
     50 F   7 N    -1.821400000000E-01 -1.299100000000E-01  3.832000000000E-01
     51 F   7 N     1.299100000000E-01 -1.821400000000E-01 -3.832000000000E-01
     52 F   7 N    -1.299100000000E-01  1.821400000000E-01 -3.832000000000E-01
     53 T   7 N    -1.114500000000E-01  1.275900000000E-01 -1.196900000000E-01
     54 F   7 N     1.114500000000E-01 -1.275900000000E-01 -1.196900000000E-01
     55 F   7 N     1.275900000000E-01  1.114500000000E-01  1.196900000000E-01
     56 F   7 N    -1.275900000000E-01 -1.114500000000E-01  1.196900000000E-01
     57 T  30 ZN   -5.000000000000E-01 -4.320412642875E-17  2.500000000000E-01
     58 T  30 ZN    0.000000000000E+00  0.000000000000E+00  5.000000000000E-01
     59 T  35 BR   -1.963700000000E-01 -1.107300000000E-01 -1.429000000000E-01
     60 F  35 BR    1.963700000000E-01  1.107300000000E-01 -1.429000000000E-01
     61 F  35 BR   -1.107300000000E-01  1.963700000000E-01  1.429000000000E-01
     62 F  35 BR    1.107300000000E-01 -1.963700000000E-01  1.429000000000E-01

 T = ATOM BELONGING TO THE ASYMMETRIC UNIT

 ****    4 SYMMOPS - TRANSLATORS IN FRACTIONAL UNITS
 **** MATRICES AND TRANSLATORS IN THE CRYSTALLOGRAPHIC REFERENCE FRAME
   V INV                    ROTATION MATRICES                   TRANSLATORS
   1   1  1.00  0.00  0.00  0.00  1.00  0.00  0.00  0.00  1.00  0.00  0.00  0.00
   2   2  0.00  1.00 -1.00  1.00 -0.00 -1.00  0.00  0.00 -1.00  0.00  0.00  0.00
   3   4  0.00 -1.00  0.00  0.00 -1.00  1.00  1.00 -1.00  0.00  0.00  0.00  0.00
   4   3 -1.00  0.00  1.00 -1.00  0.00 -0.00 -1.00  1.00  0.00  0.00  0.00  0.00

 DIRECT LATTICE VECTORS CARTESIAN COMPONENTS (ANGSTROM)
          X                    Y                    Z
  -0.543933896435E+01   0.543933896435E+01   0.637885844950E+01
   0.543933896435E+01  -0.543933896435E+01   0.637885844950E+01
   0.543933896435E+01   0.543933896435E+01  -0.637885844950E+01


 CARTESIAN COORDINATES - PRIMITIVE CELL
 *******************************************************************************
 *      ATOM          X(ANGSTROM)         Y(ANGSTROM)         Z(ANGSTROM)
 *******************************************************************************
    1     1 H     6.956914535404E-01 -2.421376133370E+00  4.942977412518E+00
    2     1 H    -6.956914535404E-01  2.421376133370E+00  4.942977412518E+00
    3     1 H    -2.421376133370E+00 -6.956914535404E-01 -4.942977412518E+00
    4     1 H     2.421376133370E+00  6.956914535404E-01 -4.942977412518E+00
    5     1 H    -4.055571131819E-01  3.283076212102E+00 -1.373240647008E+00
    6     1 H     4.055571131819E-01 -3.283076212102E+00 -1.373240647008E+00
    7     1 H     3.283076212102E+00  4.055571131819E-01  1.373240647008E+00
    8     1 H    -3.283076212102E+00 -4.055571131819E-01  1.373240647008E+00
    9     1 H    -4.484626189327E+00  5.174987090683E-01 -1.460503430598E+00
   10     1 H     4.484626189327E+00 -5.174987090683E-01 -1.460503430598E+00
   11     1 H     5.174987090683E-01  4.484626189327E+00  1.460503430598E+00
   12     1 H    -5.174987090683E-01 -4.484626189327E+00  1.460503430598E+00
   13     6 C    -2.591845016513E+00  3.358356663369E+00 -1.423761205928E+00
   14     6 C     2.591845016513E+00 -3.358356663369E+00 -1.423761205928E+00
   15     6 C     3.358356663369E+00  2.591845016513E+00  1.423761205928E+00
   16     6 C    -3.358356663369E+00 -2.591845016513E+00  1.423761205928E+00
   17     6 C     2.753393383754E+00 -6.426035052483E-01  4.853035508380E+00
   18     6 C    -2.753393383754E+00  6.426035052483E-01  4.853035508380E+00
   19     6 C    -6.426035052483E-01 -2.753393383754E+00 -4.853035508380E+00
   20     6 C     6.426035052483E-01  2.753393383754E+00 -4.853035508380E+00
   21     6 C    -3.751838444050E+00  2.560514424078E+00 -1.415468689944E+00
   22     6 C     3.751838444050E+00 -2.560514424078E+00 -1.415468689944E+00
   23     6 C     2.560514424078E+00  3.751838444050E+00  1.415468689944E+00
   24     6 C    -2.560514424078E+00 -3.751838444050E+00  1.415468689944E+00
   25     6 C    -2.320095641854E+00  6.538085435149E-01 -1.556951770354E+00
   26     6 C     2.320095641854E+00 -6.538085435149E-01 -1.556951770354E+00
   27     6 C     6.538085435149E-01  2.320095641854E+00  1.556951770354E+00
   28     6 C    -6.538085435149E-01 -2.320095641854E+00  1.556951770354E+00
   29     6 C    -1.342428856402E+00  2.716188305238E+00 -1.431543413237E+00
   30     6 C     1.342428856402E+00 -2.716188305238E+00 -1.431543413237E+00
   31     6 C     2.716188305238E+00  1.342428856402E+00  1.431543413237E+00
   32     6 C    -2.716188305238E+00 -1.342428856402E+00  1.431543413237E+00
   33     6 C     3.619118573320E+00 -1.180336555264E+00 -1.447235405023E+00
   34     6 C    -3.619118573320E+00  1.180336555264E+00 -1.447235405023E+00
   35     6 C    -1.180336555264E+00 -3.619118573320E+00  1.447235405023E+00
   36     6 C     1.180336555264E+00  3.619118573320E+00  1.447235405023E+00
   37     7 N     3.694290237807E+00  1.697073756877E-01  4.292844159345E+00
   38     7 N    -3.694290237807E+00 -1.697073756877E-01  4.292844159345E+00
   39     7 N     1.697073756877E-01 -3.694290237807E+00 -4.292844159345E+00
   40     7 N    -1.697073756877E-01  3.694290237807E+00 -4.292844159345E+00
   41     7 N    -2.261568354597E+00 -3.992257226274E+00 -2.038810737629E+00
   42     7 N     2.261568354597E+00  3.992257226274E+00 -2.038810737629E+00
   43     7 N    -3.992257226274E+00  2.261568354597E+00  2.038810737629E+00
   44     7 N     3.992257226274E+00 -2.261568354597E+00  2.038810737629E+00
   45     7 N     1.689023535210E+00  1.135733975756E-01  5.233215471970E+00
   46     7 N    -1.689023535210E+00 -1.135733975756E-01  5.233215471970E+00
   47     7 N     1.135733975756E-01 -1.689023535210E+00 -5.233215471970E+00
   48     7 N    -1.135733975756E-01  1.689023535210E+00 -5.233215471970E+00
   49     7 N     1.981442397933E+00  1.413249049717E+00  4.888757115697E+00
   50     7 N    -1.981442397933E+00 -1.413249049717E+00  4.888757115697E+00
   51     7 N     1.413249049717E+00 -1.981442397933E+00 -4.888757115697E+00
   52     7 N    -1.413249049717E+00  1.981442397933E+00 -4.888757115697E+00
   53     7 N    -1.212428655154E+00  1.388010516923E+00 -1.526971135641E+00
   54     7 N     1.212428655154E+00 -1.388010516923E+00 -1.526971135641E+00
   55     7 N     1.388010516923E+00  1.212428655154E+00  1.526971135641E+00
   56     7 N    -1.388010516923E+00 -1.212428655154E+00  1.526971135641E+00
   57    30 ZN    5.439338964350E+00 -4.700037766092E-16 -9.568287674250E+00
   58    30 ZN    0.000000000000E+00  0.000000000000E+00  6.378858449500E+00
   59    35 BR   -2.136245984859E+00 -1.204596007045E+00 -1.823077744867E+00
   60    35 BR    2.136245984859E+00  1.204596007045E+00 -1.823077744867E+00
   61    35 BR   -1.204596007045E+00  2.136245984859E+00  1.823077744867E+00
   62    35 BR    1.204596007045E+00 -2.136245984859E+00  1.823077744867E+00

 *******************************************************************************
 STARTING BASIS SET HANDLING 
 *******************************************************************************

 Loading internal basis set: POB-DZVPP           

 Please cite in your publication:
 Peintinger, M. F., Oliveira, D. V. and Bredow, T. (2013), Generally applicable 
 solid-state Gaussian basis sets, in preparation                                
                                                                                
                    

 *******************************************************************************
 LOCAL ATOMIC FUNCTIONS BASIS SET
 *******************************************************************************
   ATOM   X(AU)   Y(AU)   Z(AU)  N. TYPE  EXPONENT  S COEF   P COEF   D/F/G COEF
 *******************************************************************************
   1 H    1.315  -4.576   9.341
                                  1 S  
                                         2.263E+01 1.441E-02 0.000E+00 0.000E+00
                                         3.236E+00 1.072E-01 0.000E+00 0.000E+00
                                         7.304E-01 3.846E-01 0.000E+00 0.000E+00
                                  2 S  
                                         1.417E-01 1.000E+00 0.000E+00 0.000E+00
                           3-     5 P  
                                         3.944E-01 0.000E+00 1.000E+00 0.000E+00
                           6-     8 P  
                                         1.006E-01 0.000E+00 1.000E+00 0.000E+00
   2 H   -1.315   4.576   9.341
   3 H   -4.576  -1.315  -9.341
   4 H    4.576   1.315  -9.341
   5 H   -0.766   6.204  -2.595
   6 H    0.766  -6.204  -2.595
   7 H    6.204   0.766   2.595
   8 H   -6.204  -0.766   2.595
   9 H   -8.475   0.978  -2.760
  10 H    8.475  -0.978  -2.760
  11 H    0.978   8.475   2.760
  12 H   -0.978  -8.475   2.760
  13 C   -4.898   6.346  -2.691
                                 97 S  
                                         1.238E+03 5.457E-03 0.000E+00 0.000E+00
                                         1.863E+02 4.064E-02 0.000E+00 0.000E+00
                                         4.225E+01 1.803E-01 0.000E+00 0.000E+00
                                         1.168E+01 4.632E-01 0.000E+00 0.000E+00
                                         3.593E+00 4.409E-01 0.000E+00 0.000E+00
                                 98 S  
                                         5.281E+00 1.000E+00 0.000E+00 0.000E+00
                                 99 S  
                                         4.447E-01 1.000E+00 0.000E+00 0.000E+00
                         100-   102 P  
                                         9.468E+00 0.000E+00 3.839E-02 0.000E+00
                                         2.010E+00 0.000E+00 2.112E-01 0.000E+00
                                         5.477E-01 0.000E+00 5.133E-01 0.000E+00
                         103-   105 P  
                                         1.604E-01 0.000E+00 1.000E+00 0.000E+00
                         106-   110 D  
                                         6.070E-01 0.000E+00 0.000E+00 1.000E+00
                         111-   115 D  
                                         2.939E-01 0.000E+00 0.000E+00 1.000E+00
  14 C    4.898  -6.346  -2.691
  15 C    6.346   4.898   2.691
  16 C   -6.346  -4.898   2.691
  17 C    5.203  -1.214   9.171
  18 C   -5.203   1.214   9.171
  19 C   -1.214  -5.203  -9.171
  20 C    1.214   5.203  -9.171
  21 C   -7.090   4.839  -2.675
  22 C    7.090  -4.839  -2.675
  23 C    4.839   7.090   2.675
  24 C   -4.839  -7.090   2.675
  25 C   -4.384   1.236  -2.942
  26 C    4.384  -1.236  -2.942
  27 C    1.236   4.384   2.942
  28 C   -1.236  -4.384   2.942
  29 C   -2.537   5.133  -2.705
  30 C    2.537  -5.133  -2.705
  31 C    5.133   2.537   2.705
  32 C   -5.133  -2.537   2.705
  33 C    6.839  -2.231  -2.735
  34 C   -6.839   2.231  -2.735
  35 C   -2.231  -6.839   2.735
  36 C    2.231   6.839   2.735
  37 N    6.981   0.321   8.112
                                553 S  
                                         1.713E+03-5.393E-03 0.000E+00 0.000E+00
                                         2.576E+02-4.022E-02 0.000E+00 0.000E+00
                                         5.846E+01-1.793E-01 0.000E+00 0.000E+00
                                         1.620E+01-4.638E-01 0.000E+00 0.000E+00
                                         5.005E+00-4.417E-01 0.000E+00 0.000E+00
                                554 S  
                                         6.217E-01 1.000E+00 0.000E+00 0.000E+00
                                555 S  
                                         2.921E-01 1.000E+00 0.000E+00 0.000E+00
                         556-   558 P  
                                         1.357E+01 0.000E+00-4.007E-02 0.000E+00
                                         2.926E+00 0.000E+00-2.181E-01 0.000E+00
                                         7.993E-01 0.000E+00-5.129E-01 0.000E+00
                         559-   561 P  
                                         2.244E-01 0.000E+00 1.000E+00 0.000E+00
                         562-   566 D  
                                         3.118E-01 0.000E+00 0.000E+00 1.000E+00
  38 N   -6.981  -0.321   8.112
  39 N    0.321  -6.981  -8.112
  40 N   -0.321   6.981  -8.112
  41 N   -4.274  -7.544  -3.853
  42 N    4.274   7.544  -3.853
  43 N   -7.544   4.274   3.853
  44 N    7.544  -4.274   3.853
  45 N    3.192   0.215   9.889
  46 N   -3.192  -0.215   9.889
  47 N    0.215  -3.192  -9.889
  48 N   -0.215   3.192  -9.889
  49 N    3.744   2.671   9.238
  50 N   -3.744  -2.671   9.238
  51 N    2.671  -3.744  -9.238
  52 N   -2.671   3.744  -9.238
  53 N   -2.291   2.623  -2.886
  54 N    2.291  -2.623  -2.886
  55 N    2.623   2.291   2.886
  56 N   -2.623  -2.291   2.886
  57 ZN  10.279  -0.000 -18.081
                                833 S  
                                         8.200E+04 1.421E-03 0.000E+00 0.000E+00
                                         1.231E+04 1.089E-02 0.000E+00 0.000E+00
                                         2.801E+03 5.406E-02 0.000E+00 0.000E+00
                                         7.910E+02 1.885E-01 0.000E+00 0.000E+00
                                         2.576E+02 3.835E-01 0.000E+00 0.000E+00
                                         8.881E+01 2.972E-01 0.000E+00 0.000E+00
                                834 S  
                                         1.719E+02-1.105E-01 0.000E+00 0.000E+00
                                         2.030E+01 6.461E-01 0.000E+00 0.000E+00
                                         8.346E+00 4.422E-01 0.000E+00 0.000E+00
                                835 S  
                                         1.485E+01-2.271E-01 0.000E+00 0.000E+00
                                         2.450E+00 7.243E-01 0.000E+00 0.000E+00
                                         9.985E-01 4.484E-01 0.000E+00 0.000E+00
                                836 S  
                                         1.493E+00 1.000E+00 0.000E+00 0.000E+00
                                837 S  
                                         1.830E-01 1.000E+00 0.000E+00 0.000E+00
                         838-   840 P  
                                         1.072E+03 0.000E+00 9.277E-03 0.000E+00
                                         2.527E+02 0.000E+00 6.954E-02 0.000E+00
                                         8.010E+01 0.000E+00 2.716E-01 0.000E+00
                                         2.890E+01 0.000E+00 5.340E-01 0.000E+00
                                         1.077E+01 0.000E+00 3.450E-01 0.000E+00
                         841-   843 P  
                                         5.645E+00 0.000E+00 3.413E-01 0.000E+00
                                         2.168E+00 0.000E+00 5.639E-01 0.000E+00
                                         8.054E-01 0.000E+00 2.368E-01 0.000E+00
                         844-   846 P  
                                         2.721E-01 0.000E+00 1.000E+00 0.000E+00
                         847-   851 D  
                                         5.609E+01 0.000E+00 0.000E+00 2.959E-02
                                         1.575E+01 0.000E+00 0.000E+00 1.587E-01
                                         5.312E+00 0.000E+00 0.000E+00 3.798E-01
                                         1.774E+00 0.000E+00 0.000E+00 4.690E-01
                         852-   856 D  
                                         5.073E-01 0.000E+00 0.000E+00 1.000E+00
                         857-   863 F  
                                         2.814E+00 0.000E+00 0.000E+00 1.000E+00
                         864-   870 F  
                                         1.300E+00 0.000E+00 0.000E+00 1.000E+00
  58 ZN   0.000   0.000  12.054
  59 BR  -4.037  -2.276  -3.445
                                909 S  
                                         1.133E+05 1.428E-03 0.000E+00 0.000E+00
                                         1.701E+04 1.095E-02 0.000E+00 0.000E+00
                                         3.870E+03 5.442E-02 0.000E+00 0.000E+00
                                         1.093E+03 1.905E-01 0.000E+00 0.000E+00
                                         3.564E+02 3.902E-01 0.000E+00 0.000E+00
                                         1.231E+02 3.081E-01 0.000E+00 0.000E+00
                                910 S  
                                         2.367E+02-1.123E-01 0.000E+00 0.000E+00
                                         2.847E+01 6.478E-01 0.000E+00 0.000E+00
                                         1.188E+01 4.424E-01 0.000E+00 0.000E+00
                                911 S  
                                         2.127E+01-2.264E-01 0.000E+00 0.000E+00
                                         3.613E+00 7.382E-01 0.000E+00 0.000E+00
                                         1.663E+00 4.268E-01 0.000E+00 0.000E+00
                                912 S  
                                         3.641E-01 1.000E+00 0.000E+00 0.000E+00
                                913 S  
                                         1.243E-01 1.000E+00 0.000E+00 0.000E+00
                         914-   916 P  
                                         1.560E+03 0.000E+00 8.717E-03 0.000E+00
                                         3.685E+02 0.000E+00 6.624E-02 0.000E+00
                                         1.172E+02 0.000E+00 2.650E-01 0.000E+00
                                         4.265E+01 0.000E+00 5.384E-01 0.000E+00
                                         1.609E+01 0.000E+00 3.658E-01 0.000E+00
                         917-   919 P  
                                         8.635E+00 0.000E+00 3.425E-01 0.000E+00
                                         3.561E+00 0.000E+00 5.750E-01 0.000E+00
                                         1.529E+00 0.000E+00 2.433E-01 0.000E+00
                         920-   922 P  
                                         6.447E-01 0.000E+00 1.000E+00 0.000E+00
                         923-   925 P  
                                         2.103E-01 0.000E+00 1.000E+00 0.000E+00
                         926-   930 D  
                                         1.049E+02 0.000E+00 0.000E+00 2.265E-02
                                         3.028E+01 0.000E+00 0.000E+00 1.346E-01
                                         1.065E+01 0.000E+00 0.000E+00 3.647E-01
                                         3.870E+00 0.000E+00 0.000E+00 4.904E-01
                         931-   935 D  
                                         1.342E+00 0.000E+00 0.000E+00 1.000E+00
                         936-   940 D  
                                         4.101E-01 0.000E+00 0.000E+00 1.000E+00
                         941-   945 D  
                                         1.985E-01 0.000E+00 0.000E+00 1.000E+00
  60 BR   4.037   2.276  -3.445
  61 BR  -2.276   4.037   3.445
  62 BR   2.276  -4.037   3.445

 *******************************************************************************
 FINISHED BASIS SET HANDLING 
 *******************************************************************************

 INFORMATION **** SET_MPP **** PCRYSTAL CALCULATION
 INFORMATION **** READM2 **** NEW DEFAULT: FOCK/KS MATRIX MIXING SET TO 30 %
 INFORMATION **** READM2 **** NEW DEFAULT: FULL DIRECT SCF MODE
 INFORMATION **** READM2 **** NEW DEFAULT: COULOMB BIPOLAR BUFFER SET TO 32 Mb
 INFORMATION **** READM2 **** NEW DEFAULT: EXCHANGE BIPOLAR BUFFER SET TO 32 Mb

 *******************************************************************************
 NEW DEFAULT: DFT INTEGRATION GRID INCREASED TO XLGRID
 NEW DEFAULT: DIIS ACCELERATOR ACTIVE
 USE KEYWORD NODIIS TO TURN IT OFF
 *******************************************************************************

 INFORMATION **** DFTD3_INPUT **** PERFORM DISPERSION CORRECTION DFT-D3(BJ) IN THE BECKE-JOHNSON DAMPING SCHEME

 PLEASE CITE:
 (1) DFT-D3 Reference
  S. Grimme, J. Antony, S. Ehrlich, and H. Krieg, J. Chem. Phys. 132 (2010), 154104
 (2) BJ-Damping Reference
  S. Grimme, S. Ehrlich, and L. Goerigk, J. Comput. Chem. 32 (2011), 1456-1465
 (3) General DFT-D Review
  S. Grimme, A. Hansen, J. G. Brandenburg, and C. Bannwarth,
  Chem. Rev. 116 (2016), 5105-5154

 INFORMATION **** TOLINTEG **** COULOMB AND EXCHANGE SERIES TOLERANCES MODIFIED
 INFORMATION **** BIPOSIZE **** COULOMB BIPOLAR BUFFER SET TO   100000000
 INFORMATION **** MAXCYCLE **** MAX NUMBER OF SCF CYCLES SET TO          50
 *******************************************************************************
 N. OF ATOMS PER CELL        62  COULOMB OVERLAP TOL         (T1) 10**  -12
 NUMBER OF SHELLS           412  COULOMB PENETRATION TOL     (T2) 10**  -12
 NUMBER OF AO              1056  EXCHANGE OVERLAP TOL        (T3) 10**   20
 N. OF ELECTRONS PER CELL   496  EXCHANGE PSEUDO OVP (F(G))  (T4) 10**   20
 CORE ELECTRONS PER CELL    236  EXCHANGE PSEUDO OVP (P(G))  (T5) 10**   20
 N. OF SYMMETRY OPERATORS     4  POLE ORDER IN MONO ZONE                  4
 *******************************************************************************
 TYPE OF CALCULATION :  RESTRICTED CLOSED SHELL
 KOHN-SHAM HAMILTONIAN

 (EXCHANGE)[CORRELATION] FUNCTIONAL:(PERDEW-BURKE-ERNZERHOF)[PERDEW-BURKE-ERNZERHOF]


 CAPPA:IS1  3;IS2  3;IS3  3; K PTS MONK NET   6; SYMMOPS:K SPACE   8;G SPACE   4

 *******************************************************************************
 MAX NUMBER OF SCF CYCLES      50  CONVERGENCE ON DELTAP        10**-16
 WEIGHT OF F(I) IN F(I+1)      30% CONVERGENCE ON ENERGY        10**- 6
 SHRINK. FACT.(MONKH.)    3  3  3  NUMBER OF K POINTS IN THE IBZ      6
 SHRINKING FACTOR(GILAT NET)    3  NUMBER OF K POINTS(GILAT NET)      6
 *******************************************************************************
 *** K POINTS COORDINATES (OBLIQUE COORDINATES IN UNITS OF IS =  3)
   1-R(  0  0  0)   2-C(  1  0  0)   3-C(  1  1  0)   4-C(  2  1  0)
   5-C(  2  1  1)   6-C(  2  2  1)

 DIRECT LATTICE VECTORS COMPON. (A.U.)     RECIP. LATTICE VECTORS COMPON. (A.U.) 
        X            Y            Z              X            Y            Z
  -10.2788610   10.2788610   12.0542955      0.0000000    0.3056363    0.2606202
   10.2788610  -10.2788610   12.0542955      0.3056363    0.0000000    0.2606202
   10.2788610   10.2788610  -12.0542955      0.3056363    0.3056363    0.0000000

 DISK SPACE FOR EIGENVECTORS (FTN 10)    12266496 REALS

 SYMMETRY ADAPTION OF THE BLOCH FUNCTIONS ENABLED
 TTTTTTTTTTTTTTTTTTTTTTTTTTTTTT gordsh1     TELAPSE       14.32 TCPU        0.07

 MATRIX SIZE: P(G) 1927728, F(G)  964680, P(G) IRR  243662, F(G) IRR  243662
 MAX G-VECTOR INDEX FOR 1- AND 2-ELECTRON INTEGRALS  59

 TTTTTTTTTTTTTTTTTTTTTTTTTTTTTT INPUT       TELAPSE       14.42 TCPU        0.12

 NEIGHBORS OF THE NON-EQUIVALENT ATOMS

 N = NUMBER OF NEIGHBORS AT DISTANCE R
    ATOM  N     R/ANG      R/AU   NEIGHBORS (ATOM LABELS AND CELL INDICES)
   1 H    1     1.0924     2.0644   21 C    0 1 0
   1 H    1     2.1544     4.0713   34 C    0 1 0
   1 H    1     2.1786     4.1169   13 C    0 1 0
   1 H    1     2.5140     4.7507    9 H    0 1 0
   1 H    1     2.7214     5.1428   17 C    0 0 0
   1 H    1     2.7380     5.1742   45 N    0 0 0

   5 H    1     1.0966     2.0722   29 C    0 0 0
   5 H    1     2.0654     3.9031   53 N    0 0 0
   5 H    1     2.1882     4.1350   13 C    0 0 0
   5 H    1     2.7413     5.1803   17 C    0-1 0
   5 H    1     2.7771     5.2480   37 N    0-1 0
   5 H    1     2.8389     5.3648   42 N    0 0 0

   9 H    1     1.0902     2.0603   34 C    0 0 0
   9 H    1     2.1709     4.1025   21 C    0 0 0
   9 H    1     2.1710     4.1025   25 C    0 0 0
   9 H    1     2.1719     4.1043   10 H    0-1-1
   9 H    1     2.5140     4.7507    1 H    0-1 0
   9 H    1     2.9346     5.5456   59 BR   0 0 0

  13 C    1     1.4048     2.6547   29 C    0 0 0
  13 C    1     1.4079     2.6606   21 C    0 0 0
  13 C    1     1.4451     2.7308   17 C    0-1 0
  13 C    1     2.1786     4.1169    1 H    0-1 0
  13 C    1     2.1882     4.1350    5 H    0 0 0
  13 C    1     2.4074     4.5494   53 N    0 0 0

  17 C    1     1.3599     2.5698   45 N    0 0 0
  17 C    1     1.3634     2.5765   37 N    0 0 0
  17 C    1     1.4451     2.7308   13 C    0 1 0
  17 C    1     2.1932     4.1445   41 N    1 1 1
  17 C    1     2.1963     4.1504   49 N    0 0 0
  17 C    1     2.4784     4.6835   29 C    0 1 0

  21 C    1     1.0924     2.0644    1 H    0-1 0
  21 C    1     1.3869     2.6209   34 C    0 0 0
  21 C    1     1.4079     2.6606   13 C    0 0 0
  21 C    1     2.1709     4.1025    9 H    0 0 0
  21 C    1     2.3886     4.5138   25 C    0 0 0
  21 C    1     2.4145     4.5627   29 C    0 0 0

  25 C    1     1.3292     2.5119   53 N    0 0 0
  25 C    1     1.4060     2.6569   34 C    0 0 0
  25 C    1     1.8863     3.5647   59 BR   0 0 0
  25 C    1     2.1710     4.1025    9 H    0 0 0
  25 C    1     2.2858     4.3196   29 C    0 0 0
  25 C    1     2.3886     4.5138   21 C    0 0 0

  29 C    1     1.0966     2.0722    5 H    0 0 0
  29 C    1     1.3379     2.5283   53 N    0 0 0
  29 C    1     1.4048     2.6547   13 C    0 0 0
  29 C    1     2.2858     4.3196   25 C    0 0 0
  29 C    1     2.4145     4.5627   21 C    0 0 0
  29 C    1     2.4784     4.6835   17 C    0-1 0

  33 C    1     1.0902     2.0603   10 H    0 0 0
  33 C    1     1.3869     2.6209   22 C    0 0 0
  33 C    1     1.4060     2.6569   26 C    0 0 0
  33 C    1     2.1544     4.0713    2 H   -1 0 0
  33 C    1     2.4082     4.5509   14 C    0 0 0
  33 C    1     2.4169     4.5674   54 N    0 0 0

  37 N    1     1.3634     2.5765   17 C    0 0 0
  37 N    1     1.3787     2.6053   41 N    1 1 1
  37 N    1     2.0716     3.9148   57 ZN   1 1 0
  37 N    1     2.1989     4.1554   49 N    0 0 0
  37 N    1     2.2155     4.1867   45 N    0 0 0
  37 N    1     2.4942     4.7134   13 C    0 1 0

  41 N    1     1.3166     2.4880   49 N   -1-1-1
  41 N    1     1.3787     2.6053   37 N   -1-1-1
  41 N    1     2.1891     4.1369   45 N   -1-1-1
  41 N    1     2.1932     4.1445   17 C   -1-1-1
  41 N    1     2.7988     5.2890   59 BR   0 0 0
  41 N    1     2.8389     5.3648    6 H    0 0 0

  45 N    1     1.3599     2.5698   17 C    0 0 0
  45 N    1     1.3760     2.6002   49 N    0 0 0
  45 N    1     2.0441     3.8627   58 ZN   0 0 0
  45 N    1     2.1891     4.1369   41 N    1 1 1
  45 N    1     2.2155     4.1867   37 N    0 0 0
  45 N    1     2.4971     4.7188   13 C    0 1 0

  49 N    1     1.3166     2.4880   41 N    1 1 1
  49 N    1     1.3760     2.6002   45 N    0 0 0
  49 N    1     2.1963     4.1504   17 C    0 0 0
  49 N    1     2.1989     4.1554   37 N    0 0 0
  49 N    1     2.8537     5.3928   58 ZN   0 0 0
  49 N    1     2.8612     5.4068    2 H    0 0 0

  53 N    1     1.3292     2.5119   25 C    0 0 0
  53 N    1     1.3379     2.5283   29 C    0 0 0
  53 N    1     2.0654     3.9031    5 H    0 0 0
  53 N    1     2.4074     4.5494   13 C    0 0 0
  53 N    1     2.4169     4.5674   34 C    0 0 0
  53 N    1     2.7682     5.2311   59 BR   0 0 0

  57 ZN   4     2.0716     3.9148   37 N   -1-1 0   38 N   -1 0 1   39 N    0 0 1
                                    40 N   -1 0 0
  57 ZN   4     2.8482     5.3824    5 H   -1 0 0    6 H    0 0 1    7 H   -1-1 0
                                     8 H   -1 0 1
  57 ZN   4     2.9211     5.5200   41 N    0 0 1   42 N   -1 0 0   43 N   -1 0 1
                                    44 N   -1-1 0
  57 ZN   4     3.2241     6.0927   17 C   -1-1 0   18 C   -1 0 1   19 C    0 0 1
                                    20 C   -1 0 0
  57 ZN   4     3.5083     6.6296   29 C   -1 0 0   30 C    0 0 1   31 C   -1-1 0
                                    32 C   -1 0 1
  57 ZN   4     3.7637     7.1124   13 C   -1 0 0   14 C    0 0 1   15 C   -1-1 0
                                    16 C   -1 0 1

  58 ZN   4     2.0441     3.8627   45 N    0 0 0   46 N    0 0 0   47 N    1 1 0
                                    48 N    1 1 0
  58 ZN   4     2.8537     5.3928   49 N    0 0 0   50 N    0 0 0   51 N    1 1 0
                                    52 N    1 1 0
  58 ZN   4     2.8998     5.4798    1 H    0 0 0    2 H    0 0 0    3 H    1 1 0
                                     4 H    1 1 0
  58 ZN   4     3.2128     6.0714   17 C    0 0 0   18 C    0 0 0   19 C    1 1 0
                                    20 C    1 1 0
  58 ZN   4     3.6248     6.8498   21 C    0 1 0   22 C    1 0 0   23 C    0 0-1
                                    24 C    1 1 1
  58 ZN   4     3.8034     7.1874   13 C    0 1 0   14 C    1 0 0   15 C    0 0-1
                                    16 C    1 1 1

  59 BR   1     1.8863     3.5647   25 C    0 0 0
  59 BR   1     2.7682     5.2311   53 N    0 0 0
  59 BR   1     2.7988     5.2890   41 N    0 0 0
  59 BR   1     2.8334     5.3543   34 C    0 0 0
  59 BR   1     2.9346     5.5456    9 H    0 0 0
  59 BR   1     3.1334     5.9213   49 N   -1-1-1


 SYMMETRY ALLOWED INTERNAL DEGREE(S) OF FREEDOM:  45
 TTTTTTTTTTTTTTTTTTTTTTTTTTTTTT SYMM        TELAPSE       14.63 TCPU        0.32
 TTTTTTTTTTTTTTTTTTTTTTTTTTTTTT INT_SCREEN  TELAPSE       14.64 TCPU        0.33
 INFORMATION **** EXCBUF **** EXCH. BIPO BUFFER: WORDS USED =           0

 DFT PARAMETERS

     ATOM       ELECTRONS   NET CHARGE   R(ANGSTROM)
   1   1  H       1.0000      0.0000     1.11000000
  13   6  C       6.0000      0.0000     0.77000000
  37   7  N       7.0000      0.0000     0.74000000
  57  30  ZN     30.0000      0.0000     1.37000000
  59  35  BR     35.0000      0.0000     1.14000000

 SIZE OF GRID=     454944
 TTTTTTTTTTTTTTTTTTTTTTTTTTTTTT MAKE_GRID2  TELAPSE       15.49 TCPU        1.17
 BECKE WEIGHT FUNCTION
 RADSAFE =     2.00
 TOLERANCES - DENSITY:10**- 6; POTENTIAL:10**- 9; GRID WGT:10**-14

 RADIAL INTEGRATION  - INTERVALS (POINTS,UPPER LIMIT):            1( 75,  4.0*R)

 ANGULAR INTEGRATION - INTERVALS (ACCURACY LEVEL [N. POINTS] UPPER LIMIT):
  1(  4[  86]   0.2)  2(  8[ 194]   0.5)  3( 12[ 350]   0.9)  4( 16[ 974]   3.5)
  5( 12[ 350]9999.0)
 TTTTTTTTTTTTTTTTTTTTTTTTTTTTTT INT_CALC    TELAPSE       15.54 TCPU        1.22
 EEEEEEEEEE INT_CALC TERMINATION  DATE 08 03 2024 TIME 17:17:24.2

 *******************************************************************************
 Z:\home\sanoj\Downloads\tmp_p\newconn.mol                                       
 CRYSTAL - SCF - TYPE OF CALCULATION :  RESTRICTED CLOSED SHELL
 *******************************************************************************

 CAPPA:IS1  3;IS2  3;IS3  3; K PTS MONK NET   6; SYMMOPS:K SPACE   8;G SPACE   4

 TTTTTTTTTTTTTTTTTTTTTTTTTTTTTT SDIK        TELAPSE       15.72 TCPU        1.40

 AAAAAAAAAAAAAAAAAAAAAAAAAAAAAAAAAAAAAAAAAAAAAAAAAAAAAAAAAAAAAAAAAAAAAAAAAAAAAAA
         ATOMIC WAVEFUNCTION(S)


 NUCLEAR CHARGE  1.0  SYMMETRY SPECIES            S
 N. ELECTRONS    1.0  NUMBER OF PRIMITIVE GTOS    4
                      NUMBER OF CONTRACTED GTOS   2
                      NUMBER OF CLOSED SHELLS     0
                      OPEN SHELL OCCUPATION       1

  ZNUC SCFIT  TOTAL HF ENERGY   KINETIC ENERGY   VIRIAL THEOREM ACCURACY
   1.0   1   -4.946643675E-01  4.917913167E-01 -2.005842012E+00  9.4E-17

 NUCLEAR CHARGE  6.0  SYMMETRY SPECIES            S    P
 N. ELECTRONS    6.0  NUMBER OF PRIMITIVE GTOS    7    4
                      NUMBER OF CONTRACTED GTOS   3    2
                      NUMBER OF CLOSED SHELLS     2    0
                      OPEN SHELL OCCUPATION       0    2

  ZNUC SCFIT  TOTAL HF ENERGY   KINETIC ENERGY   VIRIAL THEOREM ACCURACY
   6.0   6   -3.750912652E+01  3.905246519E+01 -1.960480378E+00  3.7E-06

 NUCLEAR CHARGE  7.0  SYMMETRY SPECIES            S    P
 N. ELECTRONS    7.0  NUMBER OF PRIMITIVE GTOS    7    4
                      NUMBER OF CONTRACTED GTOS   3    2
                      NUMBER OF CLOSED SHELLS     2    0
                      OPEN SHELL OCCUPATION       0    3

  ZNUC SCFIT  TOTAL HF ENERGY   KINETIC ENERGY   VIRIAL THEOREM ACCURACY
   7.0   9   -5.432196661E+01  5.425066284E+01 -2.001314339E+00  1.2E-06

 NUCLEAR CHARGE 30.0  SYMMETRY SPECIES            S    P    D
 N. ELECTRONS   30.0  NUMBER OF PRIMITIVE GTOS   14    9    5
                      NUMBER OF CONTRACTED GTOS   5    3    2
                      NUMBER OF CLOSED SHELLS     4    2    1
                      OPEN SHELL OCCUPATION       0    0    0

  ZNUC SCFIT  TOTAL HF ENERGY   KINETIC ENERGY   VIRIAL THEOREM ACCURACY
  30.0  10   -1.777404290E+03  1.777325716E+03 -2.000044209E+00  2.5E-06

 NUCLEAR CHARGE 35.0  SYMMETRY SPECIES            S    P    D
 N. ELECTRONS   35.0  NUMBER OF PRIMITIVE GTOS   14   10    7
                      NUMBER OF CONTRACTED GTOS   5    4    4
                      NUMBER OF CLOSED SHELLS     4    2    1
                      OPEN SHELL OCCUPATION       0    5    0

  ZNUC SCFIT  TOTAL HF ENERGY   KINETIC ENERGY   VIRIAL THEOREM ACCURACY
  35.0  13   -2.572060514E+03  2.572021521E+03 -2.000015161E+00  3.6E-06

 AAAAAAAAAAAAAAAAAAAAAAAAAAAAAAAAAAAAAAAAAAAAAAAAAAAAAAAAAAAAAAAAAAAAAAAAAAAAAAA

 TOTAL ATOMIC CHARGES:
   1.0000000   1.0000000   1.0000000   1.0000000   1.0000000   1.0000000
   1.0000000   1.0000000   1.0000000   1.0000000   1.0000000   1.0000000
   6.0000000   6.0000000   6.0000000   6.0000000   6.0000000   6.0000000
   6.0000000   6.0000000   6.0000000   6.0000000   6.0000000   6.0000000
   6.0000000   6.0000000   6.0000000   6.0000000   6.0000000   6.0000000
   6.0000000   6.0000000   6.0000000   6.0000000   6.0000000   6.0000000
   7.0000000   7.0000000   7.0000000   7.0000000   7.0000000   7.0000000
   7.0000000   7.0000000   7.0000000   7.0000000   7.0000000   7.0000000
   7.0000000   7.0000000   7.0000000   7.0000000   7.0000000   7.0000000
   7.0000000   7.0000000  30.0000000  30.0000000  35.0000000  35.0000000
  35.0000000  35.0000000
 TTTTTTTTTTTTTTTTTTTTTTTTTTTTTT MOQGAD      TELAPSE       16.55 TCPU        2.22
 TTTTTTTTTTTTTTTTTTTTTTTTTTTTTT SHELLXN     TELAPSE       41.64 TCPU       26.91
 TTTTTTTTTTTTTTTTTTTTTTTTTTTTTT MONMO3      TELAPSE       44.89 TCPU       30.15
 NUMERICALLY INTEGRATED DENSITY    496.0001227989
 TTTTTTTTTTTTTTTTTTTTTTTTTTTTTT NUMDFT      TELAPSE       45.53 TCPU       30.79
 CYC   0 ETOT(AU) -1.586800168802E+04 DETOT -1.59E+04 tst  0.00E+00 PX  1.00E+00
 TTTTTTTTTTTTTTTTTTTTTTTTTTTTTT DIIS        TELAPSE       45.59 TCPU       30.85
 TTTTTTTTTTTTTTTTTTTTTTTTTTTTTT FDIK        TELAPSE       67.19 TCPU       47.94
 INSULATING STATE
 TOP OF VALENCE BANDS -    BAND    248; K    4; EIG -1.3533797E-01 AU
 TOP OF VALENCE BANDS -    BAND    248; K    1; EIG -1.3664094E-01 AU
 BOTTOM OF VIRTUAL BANDS - BAND    249; K    4; EIG -1.0285524E-01 AU
 DIRECT ENERGY BAND GAP:   0.8839 eV
 BOTTOM OF VIRTUAL BANDS - BAND    249; K    1; EIG -1.0252706E-01 AU
 TTTTTTTTTTTTTTTTTTTTTTTTTTTTTT PDIG        TELAPSE       67.78 TCPU       48.52
 TOTAL ATOMIC CHARGES:
   1.2702711   1.2702711   1.2702711   1.2702711   1.3168126   1.3168126
   1.3168126   1.3168126   1.0810717   1.0810717   1.0810717   1.0810717
   6.0601021   6.0601021   6.0601021   6.0601021   5.4426778   5.4426778
   5.4426778   5.4426778   6.0626639   6.0626639   6.0626639   6.0626639
   5.2915921   5.2915921   5.2915921   5.2915921   5.7709116   5.7709116
   5.7709116   5.7709116   6.1666978   6.1666978   6.1666978   6.1666978
   7.3921584   7.3921584   7.3921584   7.3921584   7.1508433   7.1508433
   7.1508433   7.1508433   7.3862891   7.3862891   7.3862891   7.3862891
   7.1545643   7.1545643   7.1545643   7.1545643   7.5551448   7.5551448
   7.5551448   7.5551448  27.7875434  27.8093152  34.9989848  34.9989848
  34.9989848  34.9989848
 TTTTTTTTTTTTTTTTTTTTTTTTTTTTTT MOQGAD      TELAPSE       67.80 TCPU       48.55
 TTTTTTTTTTTTTTTTTTTTTTTTTTTTTT SHELLXN     TELAPSE       99.53 TCPU       77.79
 TTTTTTTTTTTTTTTTTTTTTTTTTTTTTT MONMO3      TELAPSE      103.53 TCPU       81.78
 NUMERICALLY INTEGRATED DENSITY    496.0000922467
 TTTTTTTTTTTTTTTTTTTTTTTTTTTTTT NUMDFT      TELAPSE      105.53 TCPU       83.76
 CYC   1 ETOT(AU) -1.586327124852E+04 DETOT  4.73E+00 tst  0.00E+00 PX  1.00E+00
 TTTTTTTTTTTTTTTTTTTTTTTTTTTTTT DIIS        TELAPSE      105.73 TCPU       83.96
 DIIS TEST: 0.10874E+02 AT SCF   CYCLE   1 - MIX   30 %
 TTTTTTTTTTTTTTTTTTTTTTTTTTTTTT FDIK        TELAPSE      113.51 TCPU       89.35
 INSULATING STATE
 TOP OF VALENCE BANDS -    BAND    248; K    2; EIG -1.5307174E-01 AU
 TOP OF VALENCE BANDS -    BAND    248; K    1; EIG -1.5331134E-01 AU
 BOTTOM OF VIRTUAL BANDS - BAND    249; K    5; EIG -1.2259722E-01 AU
 INDIRECT ENERGY BAND GAP:   0.8293 eV
 BOTTOM OF VIRTUAL BANDS - BAND    249; K    1; EIG -1.1835846E-01 AU
 TTTTTTTTTTTTTTTTTTTTTTTTTTTTTT PDIG        TELAPSE      114.08 TCPU       89.92
 TOTAL ATOMIC CHARGES:
   1.2371249   1.2371249   1.2371249   1.2371249   1.3217975   1.3217975
   1.3217975   1.3217975   1.0594549   1.0594549   1.0594549   1.0594549
   6.0837834   6.0837834   6.0837834   6.0837834   6.1625381   6.1625381
   6.1625381   6.1625381   6.2144900   6.2144900   6.2144900   6.2144900
   6.3300950   6.3300950   6.3300950   6.3300950   6.2375259   6.2375259
   6.2375259   6.2375259   5.9437254   5.9437254   5.9437254   5.9437254
   6.9512259   6.9512259   6.9512259   6.9512259   6.8674394   6.8674394
   6.8674394   6.8674394   6.9168871   6.9168871   6.9168871   6.9168871
   6.8339970   6.8339970   6.8339970   6.8339970   6.1091564   6.1091564
   6.1091564   6.1091564  29.6872710  29.6650539  34.8926780  34.8926780
  34.8926780  34.8926780
 TTTTTTTTTTTTTTTTTTTTTTTTTTTTTT MOQGAD      TELAPSE      114.11 TCPU       89.94
 TTTTTTTTTTTTTTTTTTTTTTTTTTTTTT SHELLXN     TELAPSE      146.02 TCPU      119.19
 TTTTTTTTTTTTTTTTTTTTTTTTTTTTTT MONMO3      TELAPSE      149.74 TCPU      122.90
 NUMERICALLY INTEGRATED DENSITY    496.0000949463
 TTTTTTTTTTTTTTTTTTTTTTTTTTTTTT NUMDFT      TELAPSE      151.62 TCPU      124.77
 CYC   2 ETOT(AU) -1.586244696573E+04 DETOT  8.24E-01 tst  4.08E-02 PX  7.31E-01
 TTTTTTTTTTTTTTTTTTTTTTTTTTTTTT DIIS        TELAPSE      151.75 TCPU      124.90
 DIIS TEST: 0.14212E+02 AT SCF   CYCLE   2 - DIIS ACTIVE - HISTORY:     2 CYCLES
 TTTTTTTTTTTTTTTTTTTTTTTTTTTTTT FDIK        TELAPSE      160.28 TCPU      133.27
 INSULATING STATE
 TOP OF VALENCE BANDS -    BAND    248; K    4; EIG -2.3478791E-01 AU
 TOP OF VALENCE BANDS -    BAND    248; K    1; EIG -2.3537888E-01 AU
 BOTTOM OF VIRTUAL BANDS - BAND    249; K    1; EIG -1.2024517E-01 AU
 INDIRECT ENERGY BAND GAP:   3.1169 eV
 TTTTTTTTTTTTTTTTTTTTTTTTTTTTTT PDIG        TELAPSE      160.85 TCPU      133.84
 TOTAL ATOMIC CHARGES:
   1.1928750   1.1928750   1.1928750   1.1928750   1.2403711   1.2403711
   1.2403711   1.2403711   1.0233321   1.0233321   1.0233321   1.0233321
   5.8845529   5.8845529   5.8845529   5.8845529   5.7015841   5.7015841
   5.7015841   5.7015841   5.9976399   5.9976399   5.9976399   5.9976399
   5.7582027   5.7582027   5.7582027   5.7582027   5.9740144   5.9740144
   5.9740144   5.9740144   5.9846350   5.9846350   5.9846350   5.9846350
   7.0921589   7.0921589   7.0921589   7.0921589   7.1283334   7.1283334
   7.1283334   7.1283334   7.0937728   7.0937728   7.0937728   7.0937728
   7.0971367   7.0971367   7.0971367   7.0971367   7.4366294   7.4366294
   7.4366294   7.4366294  29.0022915  29.0160788  34.8901690  34.8901690
  34.8901690  34.8901690
 TTTTTTTTTTTTTTTTTTTTTTTTTTTTTT MOQGAD      TELAPSE      160.87 TCPU      133.86
 TTTTTTTTTTTTTTTTTTTTTTTTTTTTTT SHELLXN     TELAPSE      192.86 TCPU      163.12
 TTTTTTTTTTTTTTTTTTTTTTTTTTTTTT MONMO3      TELAPSE      196.49 TCPU      166.74
 NUMERICALLY INTEGRATED DENSITY    496.0000951867
 TTTTTTTTTTTTTTTTTTTTTTTTTTTTTT NUMDFT      TELAPSE      198.35 TCPU      168.59
 CYC   3 ETOT(AU) -1.586483426804E+04 DETOT -2.39E+00 tst  6.68E-03 PX  6.36E-01
 TTTTTTTTTTTTTTTTTTTTTTTTTTTTTT DIIS        TELAPSE      198.48 TCPU      168.72
 DIIS TEST: 0.24243E+01 AT SCF   CYCLE   3 - DIIS ACTIVE - HISTORY:     3 CYCLES
 TTTTTTTTTTTTTTTTTTTTTTTTTTTTTT FDIK        TELAPSE      206.19 TCPU      174.31
 INSULATING STATE
 TOP OF VALENCE BANDS -    BAND    248; K    2; EIG -2.1783493E-01 AU
 TOP OF VALENCE BANDS -    BAND    248; K    1; EIG -2.1792234E-01 AU
 BOTTOM OF VIRTUAL BANDS - BAND    249; K    3; EIG -1.2449372E-01 AU
 INDIRECT ENERGY BAND GAP:   2.5399 eV
 BOTTOM OF VIRTUAL BANDS - BAND    249; K    1; EIG -1.1913411E-01 AU
 TTTTTTTTTTTTTTTTTTTTTTTTTTTTTT PDIG        TELAPSE      206.76 TCPU      174.88
 TOTAL ATOMIC CHARGES:
   1.1843799   1.1843799   1.1843799   1.1843799   1.2621960   1.2621960
   1.2621960   1.2621960   1.0431516   1.0431516   1.0431516   1.0431516
   6.0777440   6.0777440   6.0777440   6.0777440   5.7300025   5.7300025
   5.7300025   5.7300025   6.2407260   6.2407260   6.2407260   6.2407260
   5.6478637   5.6478637   5.6478637   5.6478637   5.9430395   5.9430395
   5.9430395   5.9430395   6.1310600   6.1310600   6.1310600   6.1310600
   7.2199574   7.2199574   7.2199574   7.2199574   7.0245808   7.0245808
   7.0245808   7.0245808   7.2229220   7.2229220   7.2229220   7.2229220
   7.0472013   7.0472013   7.0472013   7.0472013   6.9246131   6.9246131
   6.9246131   6.9246131  28.7194164  28.7465783  34.9340637  34.9340637
  34.9340637  34.9340637
 TTTTTTTTTTTTTTTTTTTTTTTTTTTTTT MOQGAD      TELAPSE      206.78 TCPU      174.90
 TTTTTTTTTTTTTTTTTTTTTTTTTTTTTT SHELLXN     TELAPSE      238.43 TCPU      204.18
 TTTTTTTTTTTTTTTTTTTTTTTTTTTTTT MONMO3      TELAPSE      242.44 TCPU      208.17
 NUMERICALLY INTEGRATED DENSITY    496.0000964346
 TTTTTTTTTTTTTTTTTTTTTTTTTTTTTT NUMDFT      TELAPSE      244.27 TCPU      209.99
 CYC   4 ETOT(AU) -1.586500103893E+04 DETOT -1.67E-01 tst  1.88E-03 PX  1.52E-01
 TTTTTTTTTTTTTTTTTTTTTTTTTTTTTT DIIS        TELAPSE      244.42 TCPU      210.14
 DIIS TEST: 0.10673E+01 AT SCF   CYCLE   4 - DIIS ACTIVE - HISTORY:     4 CYCLES
 TTTTTTTTTTTTTTTTTTTTTTTTTTTTTT FDIK        TELAPSE      250.42 TCPU      215.98
 INSULATING STATE
 TOP OF VALENCE BANDS -    BAND    248; K    4; EIG -2.3739098E-01 AU
 TOP OF VALENCE BANDS -    BAND    248; K    1; EIG -2.3967423E-01 AU
 BOTTOM OF VIRTUAL BANDS - BAND    249; K    3; EIG -1.2414068E-01 AU
 INDIRECT ENERGY BAND GAP:   3.0817 eV
 BOTTOM OF VIRTUAL BANDS - BAND    249; K    1; EIG -1.1897984E-01 AU
 TTTTTTTTTTTTTTTTTTTTTTTTTTTTTT PDIG        TELAPSE      250.99 TCPU      216.54
 TOTAL ATOMIC CHARGES:
   1.1940779   1.1940779   1.1940779   1.1940779   1.2538326   1.2538326
   1.2538326   1.2538326   1.0389558   1.0389558   1.0389558   1.0389558
   6.0146527   6.0146527   6.0146527   6.0146527   5.7469652   5.7469652
   5.7469652   5.7469652   6.1293726   6.1293726   6.1293726   6.1293726
   5.8058672   5.8058672   5.8058672   5.8058672   6.0154018   6.0154018
   6.0154018   6.0154018   6.0613423   6.0613423   6.0613423   6.0613423
   7.1850428   7.1850428   7.1850428   7.1850428   7.0668863   7.0668863
   7.0668863   7.0668863   7.1211876   7.1211876   7.1211876   7.1211876
   7.0169286   7.0169286   7.0169286   7.0169286   7.0494127   7.0494127
   7.0494127   7.0494127  28.7837087  28.7895814  34.9067514  34.9067514
  34.9067514  34.9067514
 TTTTTTTTTTTTTTTTTTTTTTTTTTTTTT MOQGAD      TELAPSE      251.01 TCPU      216.56
 TTTTTTTTTTTTTTTTTTTTTTTTTTTTTT SHELLXN     TELAPSE      280.61 TCPU      245.88
 TTTTTTTTTTTTTTTTTTTTTTTTTTTTTT MONMO3      TELAPSE      284.70 TCPU      249.96
 NUMERICALLY INTEGRATED DENSITY    496.0000941957
 TTTTTTTTTTTTTTTTTTTTTTTTTTTTTT NUMDFT      TELAPSE      286.57 TCPU      251.82
 CYC   5 ETOT(AU) -1.586514501902E+04 DETOT -1.44E-01 tst  3.44E-04 PX  9.59E-02
 TTTTTTTTTTTTTTTTTTTTTTTTTTTTTT DIIS        TELAPSE      286.73 TCPU      251.97
 DIIS TEST: 0.85852E-01 AT SCF   CYCLE   5 - DIIS ACTIVE - HISTORY:     5 CYCLES
 TTTTTTTTTTTTTTTTTTTTTTTTTTTTTT FDIK        TELAPSE      294.00 TCPU      257.04
 INSULATING STATE
 TOP OF VALENCE BANDS -    BAND    248; K    4; EIG -2.3577705E-01 AU
 TOP OF VALENCE BANDS -    BAND    248; K    1; EIG -2.3807387E-01 AU
 BOTTOM OF VIRTUAL BANDS - BAND    249; K    3; EIG -1.2360547E-01 AU
 INDIRECT ENERGY BAND GAP:   3.0523 eV
 BOTTOM OF VIRTUAL BANDS - BAND    249; K    1; EIG -1.1899902E-01 AU
 TTTTTTTTTTTTTTTTTTTTTTTTTTTTTT PDIG        TELAPSE      294.56 TCPU      257.60
 TOTAL ATOMIC CHARGES:
   1.1958354   1.1958354   1.1958354   1.1958354   1.2549693   1.2549693
   1.2549693   1.2549693   1.0400581   1.0400581   1.0400581   1.0400581
   6.0246170   6.0246170   6.0246170   6.0246170   5.7456866   5.7456866
   5.7456866   5.7456866   6.1531443   6.1531443   6.1531443   6.1531443
   5.7403792   5.7403792   5.7403792   5.7403792   5.9790320   5.9790320
   5.9790320   5.9790320   6.0466587   6.0466587   6.0466587   6.0466587
   7.1315344   7.1315344   7.1315344   7.1315344   7.0354207   7.0354207
   7.0354207   7.0354207   7.1756854   7.1756854   7.1756854   7.1756854
   7.0687279   7.0687279   7.0687279   7.0687279   7.0732339   7.0732339
   7.0732339   7.0732339  28.8121978  28.8297057  34.9245414  34.9245414
  34.9245414  34.9245414
 TTTTTTTTTTTTTTTTTTTTTTTTTTTTTT MOQGAD      TELAPSE      294.59 TCPU      257.62
 TTTTTTTTTTTTTTTTTTTTTTTTTTTTTT SHELLXN     TELAPSE      326.28 TCPU      286.91
 TTTTTTTTTTTTTTTTTTTTTTTTTTTTTT MONMO3      TELAPSE      330.18 TCPU      290.79
 NUMERICALLY INTEGRATED DENSITY    496.0000957891
 TTTTTTTTTTTTTTTTTTTTTTTTTTTTTT NUMDFT      TELAPSE      332.05 TCPU      292.65
 CYC   6 ETOT(AU) -1.586515277690E+04 DETOT -7.76E-03 tst  4.70E-05 PX  2.77E-02
 TTTTTTTTTTTTTTTTTTTTTTTTTTTTTT DIIS        TELAPSE      332.20 TCPU      292.79
 DIIS TEST: 0.37427E-01 AT SCF   CYCLE   6 - DIIS ACTIVE - HISTORY:     6 CYCLES
 TTTTTTTTTTTTTTTTTTTTTTTTTTTTTT FDIK        TELAPSE      339.76 TCPU      298.24
 INSULATING STATE
 TOP OF VALENCE BANDS -    BAND    248; K    4; EIG -2.3515335E-01 AU
 TOP OF VALENCE BANDS -    BAND    248; K    1; EIG -2.3707702E-01 AU
 BOTTOM OF VIRTUAL BANDS - BAND    249; K    3; EIG -1.2380309E-01 AU
 INDIRECT ENERGY BAND GAP:   3.0300 eV
 BOTTOM OF VIRTUAL BANDS - BAND    249; K    1; EIG -1.1879059E-01 AU
 TTTTTTTTTTTTTTTTTTTTTTTTTTTTTT PDIG        TELAPSE      340.32 TCPU      298.80
 TOTAL ATOMIC CHARGES:
   1.1936187   1.1936187   1.1936187   1.1936187   1.2576495   1.2576495
   1.2576495   1.2576495   1.0366602   1.0366602   1.0366602   1.0366602
   6.0155388   6.0155388   6.0155388   6.0155388   5.7511797   5.7511797
   5.7511797   5.7511797   6.1445959   6.1445959   6.1445959   6.1445959
   5.7457562   5.7457562   5.7457562   5.7457562   5.9839906   5.9839906
   5.9839906   5.9839906   6.0576381   6.0576381   6.0576381   6.0576381
   7.1796543   7.1796543   7.1796543   7.1796543   7.0748884   7.0748884
   7.0748884   7.0748884   7.1320236   7.1320236   7.1320236   7.1320236
   7.0287858   7.0287858   7.0287858   7.0287858   7.0644403   7.0644403
   7.0644403   7.0644403  28.8185965  28.8313180  34.9211014  34.9211014
  34.9211014  34.9211014
 TTTTTTTTTTTTTTTTTTTTTTTTTTTTTT MOQGAD      TELAPSE      340.35 TCPU      298.82
 TTTTTTTTTTTTTTTTTTTTTTTTTTTTTT SHELLXN     TELAPSE      369.95 TCPU      328.17
 TTTTTTTTTTTTTTTTTTTTTTTTTTTTTT MONMO3      TELAPSE      373.93 TCPU      332.13
 NUMERICALLY INTEGRATED DENSITY    496.0000949657
 TTTTTTTTTTTTTTTTTTTTTTTTTTTTTT NUMDFT      TELAPSE      375.79 TCPU      333.98
 CYC   7 ETOT(AU) -1.586515575150E+04 DETOT -2.97E-03 tst  2.48E-05 PX  1.40E-02
 TTTTTTTTTTTTTTTTTTTTTTTTTTTTTT DIIS        TELAPSE      375.93 TCPU      334.12
 DIIS TEST: 0.17046E-01 AT SCF   CYCLE   7 - DIIS ACTIVE - HISTORY:     7 CYCLES
 TTTTTTTTTTTTTTTTTTTTTTTTTTTTTT FDIK        TELAPSE      381.68 TCPU      339.68
 INSULATING STATE
 TOP OF VALENCE BANDS -    BAND    248; K    4; EIG -2.3550536E-01 AU
 TOP OF VALENCE BANDS -    BAND    248; K    1; EIG -2.3753921E-01 AU
 BOTTOM OF VIRTUAL BANDS - BAND    249; K    3; EIG -1.2393883E-01 AU
 INDIRECT ENERGY BAND GAP:   3.0359 eV
 BOTTOM OF VIRTUAL BANDS - BAND    249; K    1; EIG -1.1917683E-01 AU
 TTTTTTTTTTTTTTTTTTTTTTTTTTTTTT PDIG        TELAPSE      382.25 TCPU      340.25
 TOTAL ATOMIC CHARGES:
   1.1937017   1.1937017   1.1937017   1.1937017   1.2547904   1.2547904
   1.2547904   1.2547904   1.0352620   1.0352620   1.0352620   1.0352620
   6.0110905   6.0110905   6.0110905   6.0110905   5.7525274   5.7525274
   5.7525274   5.7525274   6.1438209   6.1438209   6.1438209   6.1438209
   5.7692124   5.7692124   5.7692124   5.7692124   5.9875329   5.9875329
   5.9875329   5.9875329   6.0584464   6.0584464   6.0584464   6.0584464
   7.1578738   7.1578738   7.1578738   7.1578738   7.0510535   7.0510535
   7.0510535   7.0510535   7.1491925   7.1491925   7.1491925   7.1491925
   7.0467719   7.0467719   7.0467719   7.0467719   7.0624496   7.0624496
   7.0624496   7.0624496  28.8170865  28.8316074  34.9141005  34.9141005
  34.9141005  34.9141005
 TTTTTTTTTTTTTTTTTTTTTTTTTTTTTT MOQGAD      TELAPSE      382.27 TCPU      340.27
 TTTTTTTTTTTTTTTTTTTTTTTTTTTTTT SHELLXN     TELAPSE      411.91 TCPU      369.61
 TTTTTTTTTTTTTTTTTTTTTTTTTTTTTT MONMO3      TELAPSE      415.79 TCPU      373.48
 NUMERICALLY INTEGRATED DENSITY    496.0000948990
 TTTTTTTTTTTTTTTTTTTTTTTTTTTTTT NUMDFT      TELAPSE      417.63 TCPU      375.31
 CYC   8 ETOT(AU) -1.586515809044E+04 DETOT -2.34E-03 tst  4.89E-06 PX  7.92E-03
 TTTTTTTTTTTTTTTTTTTTTTTTTTTTTT DIIS        TELAPSE      417.75 TCPU      375.43
 DIIS TEST: 0.16263E-02 AT SCF   CYCLE   8 - DIIS ACTIVE - HISTORY:     8 CYCLES
 TTTTTTTTTTTTTTTTTTTTTTTTTTTTTT FDIK        TELAPSE      423.69 TCPU      380.56
 INSULATING STATE
 TOP OF VALENCE BANDS -    BAND    248; K    4; EIG -2.3560088E-01 AU
 TOP OF VALENCE BANDS -    BAND    248; K    1; EIG -2.3768478E-01 AU
 BOTTOM OF VIRTUAL BANDS - BAND    249; K    3; EIG -1.2380661E-01 AU
 INDIRECT ENERGY BAND GAP:   3.0421 eV
 BOTTOM OF VIRTUAL BANDS - BAND    249; K    1; EIG -1.1903029E-01 AU
 TTTTTTTTTTTTTTTTTTTTTTTTTTTTTT PDIG        TELAPSE      424.26 TCPU      381.12
 TOTAL ATOMIC CHARGES:
   1.1932514   1.1932514   1.1932514   1.1932514   1.2538707   1.2538707
   1.2538707   1.2538707   1.0367656   1.0367656   1.0367656   1.0367656
   6.0187353   6.0187353   6.0187353   6.0187353   5.7489259   5.7489259
   5.7489259   5.7489259   6.1453717   6.1453717   6.1453717   6.1453717
   5.7571234   5.7571234   5.7571234   5.7571234   5.9915068   5.9915068
   5.9915068   5.9915068   6.0513413   6.0513413   6.0513413   6.0513413
   7.1592000   7.1592000   7.1592000   7.1592000   7.0559623   7.0559623
   7.0559623   7.0559623   7.1486872   7.1486872   7.1486872   7.1486872
   7.0413787   7.0413787   7.0413787   7.0413787   7.0666484   7.0666484
   7.0666484   7.0666484  28.8210309  28.8346322  34.9173156  34.9173156
  34.9173156  34.9173156
 TTTTTTTTTTTTTTTTTTTTTTTTTTTTTT MOQGAD      TELAPSE      424.28 TCPU      381.14
 TTTTTTTTTTTTTTTTTTTTTTTTTTTTTT SHELLXN     TELAPSE      454.98 TCPU      410.50
 TTTTTTTTTTTTTTTTTTTTTTTTTTTTTT MONMO3      TELAPSE      459.10 TCPU      414.58
 NUMERICALLY INTEGRATED DENSITY    496.0000951384
 TTTTTTTTTTTTTTTTTTTTTTTTTTTTTT NUMDFT      TELAPSE      460.93 TCPU      416.40
 CYC   9 ETOT(AU) -1.586515823728E+04 DETOT -1.47E-04 tst  7.49E-07 PX  3.23E-03
 TTTTTTTTTTTTTTTTTTTTTTTTTTTTTT DIIS        TELAPSE      461.05 TCPU      416.52
 DIIS TEST: 0.59754E-03 AT SCF   CYCLE   9 - DIIS ACTIVE - HISTORY:     9 CYCLES
 TTTTTTTTTTTTTTTTTTTTTTTTTTTTTT FDIK        TELAPSE      466.22 TCPU      421.50
 INSULATING STATE
 TOP OF VALENCE BANDS -    BAND    248; K    4; EIG -2.3552419E-01 AU
 TOP OF VALENCE BANDS -    BAND    248; K    1; EIG -2.3763157E-01 AU
 BOTTOM OF VIRTUAL BANDS - BAND    249; K    3; EIG -1.2374745E-01 AU
 INDIRECT ENERGY BAND GAP:   3.0416 eV
 BOTTOM OF VIRTUAL BANDS - BAND    249; K    1; EIG -1.1890897E-01 AU
 TTTTTTTTTTTTTTTTTTTTTTTTTTTTTT PDIG        TELAPSE      466.79 TCPU      422.07
 TOTAL ATOMIC CHARGES:
   1.1933193   1.1933193   1.1933193   1.1933193   1.2547075   1.2547075
   1.2547075   1.2547075   1.0362896   1.0362896   1.0362896   1.0362896
   6.0143824   6.0143824   6.0143824   6.0143824   5.7487885   5.7487885
   5.7487885   5.7487885   6.1451651   6.1451651   6.1451651   6.1451651
   5.7603803   5.7603803   5.7603803   5.7603803   5.9852310   5.9852310
   5.9852310   5.9852310   6.0568669   6.0568669   6.0568669   6.0568669
   7.1600905   7.1600905   7.1600905   7.1600905   7.0552098   7.0552098
   7.0552098   7.0552098   7.1476253   7.1476253   7.1476253   7.1476253
   7.0448259   7.0448259   7.0448259   7.0448259   7.0664677   7.0664677
   7.0664677   7.0664677  28.8201472  28.8343719  34.9170205  34.9170205
  34.9170205  34.9170205
 TTTTTTTTTTTTTTTTTTTTTTTTTTTTTT MOQGAD      TELAPSE      466.81 TCPU      422.09
 TTTTTTTTTTTTTTTTTTTTTTTTTTTTTT SHELLXN     TELAPSE      498.57 TCPU      451.44
 TTTTTTTTTTTTTTTTTTTTTTTTTTTTTT MONMO3      TELAPSE      502.45 TCPU      455.31
 NUMERICALLY INTEGRATED DENSITY    496.0000950505
 TTTTTTTTTTTTTTTTTTTTTTTTTTTTTT NUMDFT      TELAPSE      504.30 TCPU      457.15
 CYC  10 ETOT(AU) -1.586515829191E+04 DETOT -5.46E-05 tst  3.80E-07 PX  2.05E-03
 TTTTTTTTTTTTTTTTTTTTTTTTTTTTTT DIIS        TELAPSE      504.42 TCPU      457.27
 DIIS TEST: 0.19645E-03 AT SCF   CYCLE  10 - DIIS ACTIVE - HISTORY:    10 CYCLES
 TTTTTTTTTTTTTTTTTTTTTTTTTTTTTT FDIK        TELAPSE      512.09 TCPU      462.63
 INSULATING STATE
 TOP OF VALENCE BANDS -    BAND    248; K    4; EIG -2.3558226E-01 AU
 TOP OF VALENCE BANDS -    BAND    248; K    1; EIG -2.3767474E-01 AU
 BOTTOM OF VIRTUAL BANDS - BAND    249; K    3; EIG -1.2387524E-01 AU
 INDIRECT ENERGY BAND GAP:   3.0397 eV
 BOTTOM OF VIRTUAL BANDS - BAND    249; K    1; EIG -1.1909455E-01 AU
 TTTTTTTTTTTTTTTTTTTTTTTTTTTTTT PDIG        TELAPSE      512.66 TCPU      463.19
 TOTAL ATOMIC CHARGES:
   1.1933416   1.1933416   1.1933416   1.1933416   1.2543569   1.2543569
   1.2543569   1.2543569   1.0361490   1.0361490   1.0361490   1.0361490
   6.0150231   6.0150231   6.0150231   6.0150231   5.7508936   5.7508936
   5.7508936   5.7508936   6.1447804   6.1447804   6.1447804   6.1447804
   5.7606123   5.7606123   5.7606123   5.7606123   5.9884816   5.9884816
   5.9884816   5.9884816   6.0542428   6.0542428   6.0542428   6.0542428
   7.1593123   7.1593123   7.1593123   7.1593123   7.0544383   7.0544383
   7.0544383   7.0544383   7.1486567   7.1486567   7.1486567   7.1486567
   7.0440993   7.0440993   7.0440993   7.0440993   7.0658083   7.0658083
   7.0658083   7.0658083  28.8188516  28.8328016  34.9168903  34.9168903
  34.9168903  34.9168903
 TTTTTTTTTTTTTTTTTTTTTTTTTTTTTT MOQGAD      TELAPSE      512.68 TCPU      463.21
 TTTTTTTTTTTTTTTTTTTTTTTTTTTTTT SHELLXN     TELAPSE      544.33 TCPU      492.56
 TTTTTTTTTTTTTTTTTTTTTTTTTTTTTT MONMO3      TELAPSE      548.25 TCPU      496.47
 NUMERICALLY INTEGRATED DENSITY    496.0000950543
 TTTTTTTTTTTTTTTTTTTTTTTTTTTTTT NUMDFT      TELAPSE      550.08 TCPU      498.29
 CYC  11 ETOT(AU) -1.586515831534E+04 DETOT -2.34E-05 tst  8.42E-08 PX  1.00E-03
 TTTTTTTTTTTTTTTTTTTTTTTTTTTTTT DIIS        TELAPSE      550.21 TCPU      498.42
 DIIS TEST: 0.24650E-04 AT SCF   CYCLE  11 - DIIS ACTIVE - HISTORY:    11 CYCLES
 TTTTTTTTTTTTTTTTTTTTTTTTTTTTTT FDIK        TELAPSE      555.33 TCPU      503.36
 INSULATING STATE
 TOP OF VALENCE BANDS -    BAND    248; K    4; EIG -2.3559061E-01 AU
 TOP OF VALENCE BANDS -    BAND    248; K    1; EIG -2.3769143E-01 AU
 BOTTOM OF VIRTUAL BANDS - BAND    249; K    3; EIG -1.2381217E-01 AU
 INDIRECT ENERGY BAND GAP:   3.0416 eV
 BOTTOM OF VIRTUAL BANDS - BAND    249; K    1; EIG -1.1900380E-01 AU
 TTTTTTTTTTTTTTTTTTTTTTTTTTTTTT PDIG        TELAPSE      555.90 TCPU      503.93
 TOTAL ATOMIC CHARGES:
   1.1932819   1.1932819   1.1932819   1.1932819   1.2543399   1.2543399
   1.2543399   1.2543399   1.0361572   1.0361572   1.0361572   1.0361572
   6.0155042   6.0155042   6.0155042   6.0155042   5.7491647   5.7491647
   5.7491647   5.7491647   6.1453689   6.1453689   6.1453689   6.1453689
   5.7600433   5.7600433   5.7600433   5.7600433   5.9879745   5.9879745
   5.9879745   5.9879745   6.0550722   6.0550722   6.0550722   6.0550722
   7.1590380   7.1590380   7.1590380   7.1590380   7.0554332   7.0554332
   7.0554332   7.0554332   7.1480512   7.1480512   7.1480512   7.1480512
   7.0441707   7.0441707   7.0441707   7.0441707   7.0661284   7.0661284
   7.0661284   7.0661284  28.8197405  28.8338761  34.9168676  34.9168676
  34.9168676  34.9168676
 TTTTTTTTTTTTTTTTTTTTTTTTTTTTTT MOQGAD      TELAPSE      555.92 TCPU      503.95
 TTTTTTTTTTTTTTTTTTTTTTTTTTTTTT SHELLXN     TELAPSE      585.31 TCPU      533.03
 TTTTTTTTTTTTTTTTTTTTTTTTTTTTTT MONMO3      TELAPSE      589.51 TCPU      537.21
 NUMERICALLY INTEGRATED DENSITY    496.0000950496
 TTTTTTTTTTTTTTTTTTTTTTTTTTTTTT NUMDFT      TELAPSE      591.35 TCPU      539.03
 CYC  12 ETOT(AU) -1.586515831673E+04 DETOT -1.38E-06 tst  1.57E-08 PX  4.80E-04
 TTTTTTTTTTTTTTTTTTTTTTTTTTTTTT DIIS        TELAPSE      591.47 TCPU      539.15
 DIIS TEST: 0.14354E-04 AT SCF   CYCLE  12 - DIIS ACTIVE - HISTORY:    12 CYCLES
 TTTTTTTTTTTTTTTTTTTTTTTTTTTTTT FDIK        TELAPSE      598.71 TCPU      544.18
 INSULATING STATE
 TOP OF VALENCE BANDS -    BAND    248; K    4; EIG -2.3557294E-01 AU
 TOP OF VALENCE BANDS -    BAND    248; K    1; EIG -2.3767668E-01 AU
 BOTTOM OF VIRTUAL BANDS - BAND    249; K    3; EIG -1.2382429E-01 AU
 INDIRECT ENERGY BAND GAP:   3.0408 eV
 BOTTOM OF VIRTUAL BANDS - BAND    249; K    1; EIG -1.1902441E-01 AU
 TTTTTTTTTTTTTTTTTTTTTTTTTTTTTT PDIG        TELAPSE      599.27 TCPU      544.75
 TOTAL ATOMIC CHARGES:
   1.1933675   1.1933675   1.1933675   1.1933675   1.2543893   1.2543893
   1.2543893   1.2543893   1.0362699   1.0362699   1.0362699   1.0362699
   6.0154597   6.0154597   6.0154597   6.0154597   5.7497406   5.7497406
   5.7497406   5.7497406   6.1449338   6.1449338   6.1449338   6.1449338
   5.7601581   5.7601581   5.7601581   5.7601581   5.9877804   5.9877804
   5.9877804   5.9877804   6.0547811   6.0547811   6.0547811   6.0547811
   7.1597293   7.1597293   7.1597293   7.1597293   7.0545229   7.0545229
   7.0545229   7.0545229   7.1485020   7.1485020   7.1485020   7.1485020
[...]
 TTTTTTTTTTTTTTTTTTTTTTTTTTTTTT CP_MONMON   TELAPSE    50797.76 TCPU    50257.54
 DIIS TEST: 0.46028E-01 AT CPHF  CYCLE   7 - DIIS ACTIVE - HISTORY:     7 CYCLES
 CYCLE   7   ALPHA 1410.223971  EPSILON    4.478613  DELTA    7.6737E-01
 TTTTTTTTTTTTTTTTTTTTTTTTTTTTTT MOQGAD      TELAPSE    51284.05 TCPU    50738.92
 TTTTTTTTTTTTTTTTTTTTTTTTTTTTTT CP_MONMON   TELAPSE    51293.35 TCPU    50748.15
 DIIS TEST: 0.58359E-01 AT CPHF  CYCLE   8 - DIIS ACTIVE - HISTORY:     8 CYCLES
 CYCLE   8   ALPHA 1410.220120  EPSILON    4.478604  DELTA   -3.8511E-03
 TTTTTTTTTTTTTTTTTTTTTTTTTTTTTT MOQGAD      TELAPSE    51779.28 TCPU    51230.31
 TTTTTTTTTTTTTTTTTTTTTTTTTTTTTT CP_MONMON   TELAPSE    51788.56 TCPU    51239.55
 DIIS TEST: 0.43109E-01 AT CPHF  CYCLE   9 - DIIS ACTIVE - HISTORY:     9 CYCLES
 CYCLE   9   ALPHA 1410.469491  EPSILON    4.479219  DELTA    2.4937E-01
 TTTTTTTTTTTTTTTTTTTTTTTTTTTTTT MOQGAD      TELAPSE    52275.80 TCPU    51722.21
 TTTTTTTTTTTTTTTTTTTTTTTTTTTTTT CP_MONMON   TELAPSE    52285.08 TCPU    51731.45
 DIIS TEST: 0.15582E-02 AT CPHF  CYCLE  10 - DIIS ACTIVE - HISTORY:    10 CYCLES
 CYCLE  10   ALPHA 1410.453540  EPSILON    4.479180  DELTA   -1.5951E-02
 TTTTTTTTTTTTTTTTTTTTTTTTTTTTTT MOQGAD      TELAPSE    52772.66 TCPU    52212.31
 TTTTTTTTTTTTTTTTTTTTTTTTTTTTTT CP_MONMON   TELAPSE    52781.92 TCPU    52221.53
 DIIS TEST: 0.16919E-03 AT CPHF  CYCLE  11 - DIIS ACTIVE - HISTORY:    11 CYCLES
 CYCLE  11   ALPHA 1410.408488  EPSILON    4.479068  DELTA   -4.5052E-02
 TTTTTTTTTTTTTTTTTTTTTTTTTTTTTT MOQGAD      TELAPSE    53267.12 TCPU    52701.91
 TTTTTTTTTTTTTTTTTTTTTTTTTTTTTT CP_MONMON   TELAPSE    53276.40 TCPU    52711.16
 DIIS TEST: 0.43000E-04 AT CPHF  CYCLE  12 - DIIS ACTIVE - HISTORY:    12 CYCLES
 CYCLE  12   ALPHA 1410.385279  EPSILON    4.479011  DELTA   -2.3209E-02
 TTTTTTTTTTTTTTTTTTTTTTTTTTTTTT MOQGAD      TELAPSE    53761.92 TCPU    53191.31
 TTTTTTTTTTTTTTTTTTTTTTTTTTTTTT CP_MONMON   TELAPSE    53771.21 TCPU    53200.57
 DIIS TEST: 0.24436E-05 AT CPHF  CYCLE  13 - DIIS ACTIVE - HISTORY:    13 CYCLES
 CYCLE  13   ALPHA 1410.379797  EPSILON    4.478998  DELTA   -5.4826E-03
 TTTTTTTTTTTTTTTTTTTTTTTTTTTTTT MOQGAD      TELAPSE    54257.74 TCPU    53681.79
 TTTTTTTTTTTTTTTTTTTTTTTTTTTTTT CP_MONMON   TELAPSE    54267.02 TCPU    53691.03
 DIIS TEST: 0.40795E-06 AT CPHF  CYCLE  14 - DIIS ACTIVE - HISTORY:    14 CYCLES
 CYCLE  14   ALPHA 1410.377608  EPSILON    4.478992  DELTA   -2.1886E-03
 TTTTTTTTTTTTTTTTTTTTTTTTTTTTTT MOQGAD      TELAPSE    54753.64 TCPU    54172.89
 TTTTTTTTTTTTTTTTTTTTTTTTTTTTTT CP_MONMON   TELAPSE    54762.90 TCPU    54182.12
 DIIS TEST: 0.51729E-07 AT CPHF  CYCLE  15 - DIIS ACTIVE - HISTORY:    15 CYCLES
 CYCLE  15   ALPHA 1410.376436  EPSILON    4.478989  DELTA   -1.1723E-03
 TTTTTTTTTTTTTTTTTTTTTTTTTTTTTT MOQGAD      TELAPSE    55249.04 TCPU    54663.65
 TTTTTTTTTTTTTTTTTTTTTTTTTTTTTT CP_MONMON   TELAPSE    55258.32 TCPU    54672.88
 DIIS TEST: 0.75661E-08 AT CPHF  CYCLE  16 - DIIS ACTIVE - HISTORY:    16 CYCLES
 CYCLE  16   ALPHA 1410.376403  EPSILON    4.478989  DELTA   -3.2843E-05
 TTTTTTTTTTTTTTTTTTTTTTTTTTTTTT CP_SC       TELAPSE    55289.53 TCPU    54700.62

 *******************************************************************************

 ELECTRIC FIELD APPLIED ALONG CARTESIAN DIRECTION Z

 *******************************************************************************
 THE NUMBER OF SYMMETRY OPERATORS HAS BEEN REDUCED FROM  4 TO  1

 NEW GRID IN RECIPROCAL SPACE
 *******************************************************************************
 POINTS IN THE IBZ                  14 SHRINKING FACTORS               3  3  3
 *******************************************************************************
 *** K POINTS COORDINATES (OBLIQUE COORDINATES IN UNITS OF SHRINK FAC. )
   1-R(  0  0  0)   2-C(  1  0  0)   3-C(  0  1  2)   4-C(  2  0  1)
   5-C(  0  2  0)   6-C(  1  1  0)   7-C(  1  1  1)   8-C(  1  0  1)
   9-C(  0  1  1)  10-C(  2  1  0)  11-C(  0  0  2)  12-C(  2  1  1)
  13-C(  2  1  2)  14-C(  2  2  1)

 GCALCO - MAX INDICES DIRECT LATTICE VECTOR    14    14    16
 NO.OF VECTORS CREATED 6999 STARS  486 RMAX   204.94121 BOHR
 TTTTTTTTTTTTTTTTTTTTTTTTTTTTTT gordsh1     TELAPSE    55307.02 TCPU    54717.97

 MATRIX SIZE: P(G) 1927728, F(G)  964680, P(G) IRR  966478, F(G) IRR  966478
 MAX G-VECTOR INDEX FOR 1- AND 2-ELECTRON INTEGRALS  59

 TTTTTTTTTTTTTTTTTTTTTTTTTTTTTT INPUT       TELAPSE    55318.60 TCPU    54729.27
 TTTTTTTTTTTTTTTTTTTTTTTTTTTTTT SYMM        TELAPSE    55318.60 TCPU    54729.27

 ***** NEW REFERENCE GEOMETRY *****
 TTTTTTTTTTTTTTTTTTTTTTTTTTTTTT INT_SCREEN  TELAPSE    55318.61 TCPU    54729.28
 INFORMATION **** EXCBUF **** EXCH. BIPO BUFFER: WORDS USED =           0

 DFT PARAMETERS

     ATOM       ELECTRONS   NET CHARGE   R(ANGSTROM)
   1   1  H       1.0000      0.0000     1.11000000
  13   6  C       6.0000      0.0000     0.77000000
  37   7  N       7.0000      0.0000     0.74000000
  57  30  ZN     30.0000      0.0000     1.37000000
  59  35  BR     35.0000      0.0000     1.14000000

 SIZE OF GRID=    1819544
 TTTTTTTTTTTTTTTTTTTTTTTTTTTTTT MAKE_GRID2  TELAPSE    55319.91 TCPU    54730.56
 BECKE WEIGHT FUNCTION
 RADSAFE =     2.00
 TOLERANCES - DENSITY:10**- 6; POTENTIAL:10**- 9; GRID WGT:10**-14

 RADIAL INTEGRATION  - INTERVALS (POINTS,UPPER LIMIT):            1( 75,  4.0*R)

 ANGULAR INTEGRATION - INTERVALS (ACCURACY LEVEL [N. POINTS] UPPER LIMIT):
  1(  4[  86]   0.2)  2(  8[ 194]   0.5)  3( 12[ 350]   0.9)  4( 16[ 974]   3.5)
  5( 12[ 350]9999.0)
 TTTTTTTTTTTTTTTTTTTTTTTTTTTTTT INT_CALC    TELAPSE    55319.96 TCPU    54730.62
 CYCLE   0   ALPHA  751.324473  EPSILON    2.853299  DELTA    7.5132E+02
 TTTTTTTTTTTTTTTTTTTTTTTTTTTTTT MOQGAD      TELAPSE    55805.67 TCPU    55213.64
 TTTTTTTTTTTTTTTTTTTTTTTTTTTTTT CP_MONMON   TELAPSE    55814.94 TCPU    55222.88
 DIIS TEST: 0.90907E+02 AT CPHF  CYCLE   1 - MIX    0 %
 CYCLE   1   ALPHA  390.008781  EPSILON    1.962038  DELTA   -3.6132E+02
 TTTTTTTTTTTTTTTTTTTTTTTTTTTTTT MOQGAD      TELAPSE    56305.45 TCPU    55708.88
 TTTTTTTTTTTTTTTTTTTTTTTTTTTTTT CP_MONMON   TELAPSE    56314.72 TCPU    55718.12
 DIIS TEST: 0.88661E+03 AT CPHF  CYCLE   2 - DIIS ACTIVE - HISTORY:     2 CYCLES
 CYCLE   2   ALPHA  555.251496  EPSILON    2.369644  DELTA    1.6524E+02
 TTTTTTTTTTTTTTTTTTTTTTTTTTTTTT MOQGAD      TELAPSE    56805.56 TCPU    56205.29
 TTTTTTTTTTTTTTTTTTTTTTTTTTTTTT CP_MONMON   TELAPSE    56814.84 TCPU    56214.53
 DIIS TEST: 0.29115E+02 AT CPHF  CYCLE   3 - DIIS ACTIVE - HISTORY:     3 CYCLES
 CYCLE   3   ALPHA  600.057416  EPSILON    2.480167  DELTA    4.4806E+01
 TTTTTTTTTTTTTTTTTTTTTTTTTTTTTT MOQGAD      TELAPSE    57307.25 TCPU    56702.32
 TTTTTTTTTTTTTTTTTTTTTTTTTTTTTT CP_MONMON   TELAPSE    57316.52 TCPU    56711.56
 DIIS TEST: 0.31360E+01 AT CPHF  CYCLE   4 - DIIS ACTIVE - HISTORY:     4 CYCLES
 CYCLE   4   ALPHA  601.562834  EPSILON    2.483881  DELTA    1.5054E+00
 TTTTTTTTTTTTTTTTTTTTTTTTTTTTTT MOQGAD      TELAPSE    57807.92 TCPU    57198.56
 TTTTTTTTTTTTTTTTTTTTTTTTTTTTTT CP_MONMON   TELAPSE    57817.19 TCPU    57207.80
 DIIS TEST: 0.15739E+00 AT CPHF  CYCLE   5 - DIIS ACTIVE - HISTORY:     5 CYCLES
 CYCLE   5   ALPHA  601.670058  EPSILON    2.484145  DELTA    1.0722E-01
 TTTTTTTTTTTTTTTTTTTTTTTTTTTTTT MOQGAD      TELAPSE    58309.88 TCPU    57694.94
 TTTTTTTTTTTTTTTTTTTTTTTTTTTTTT CP_MONMON   TELAPSE    58319.14 TCPU    57704.16
 DIIS TEST: 0.26949E-01 AT CPHF  CYCLE   6 - DIIS ACTIVE - HISTORY:     6 CYCLES
 CYCLE   6   ALPHA  601.883345  EPSILON    2.484672  DELTA    2.1329E-01
 TTTTTTTTTTTTTTTTTTTTTTTTTTTTTT MOQGAD      TELAPSE    58812.34 TCPU    58191.66
 TTTTTTTTTTTTTTTTTTTTTTTTTTTTTT CP_MONMON   TELAPSE    58821.63 TCPU    58200.90
 DIIS TEST: 0.14363E-01 AT CPHF  CYCLE   7 - DIIS ACTIVE - HISTORY:     7 CYCLES
 CYCLE   7   ALPHA  601.895726  EPSILON    2.484702  DELTA    1.2381E-02
 TTTTTTTTTTTTTTTTTTTTTTTTTTTTTT MOQGAD      TELAPSE    59317.46 TCPU    58687.32
 TTTTTTTTTTTTTTTTTTTTTTTTTTTTTT CP_MONMON   TELAPSE    59326.73 TCPU    58696.56
 DIIS TEST: 0.41030E-01 AT CPHF  CYCLE   8 - DIIS ACTIVE - HISTORY:     8 CYCLES
 CYCLE   8   ALPHA  601.903835  EPSILON    2.484722  DELTA    8.1089E-03
 TTTTTTTTTTTTTTTTTTTTTTTTTTTTTT MOQGAD      TELAPSE    59819.29 TCPU    59185.70
 TTTTTTTTTTTTTTTTTTTTTTTTTTTTTT CP_MONMON   TELAPSE    59828.57 TCPU    59194.95
 DIIS TEST: 0.34137E-02 AT CPHF  CYCLE   9 - DIIS ACTIVE - HISTORY:     9 CYCLES
 CYCLE   9   ALPHA  601.907694  EPSILON    2.484732  DELTA    3.8584E-03
 TTTTTTTTTTTTTTTTTTTTTTTTTTTTTT MOQGAD      TELAPSE    60321.30 TCPU    59683.04
 TTTTTTTTTTTTTTTTTTTTTTTTTTTTTT CP_MONMON   TELAPSE    60330.57 TCPU    59692.28
 DIIS TEST: 0.13921E-03 AT CPHF  CYCLE  10 - DIIS ACTIVE - HISTORY:    10 CYCLES
 CYCLE  10   ALPHA  601.894313  EPSILON    2.484699  DELTA   -1.3381E-02
 TTTTTTTTTTTTTTTTTTTTTTTTTTTTTT MOQGAD      TELAPSE    60823.45 TCPU    60179.29
 TTTTTTTTTTTTTTTTTTTTTTTTTTTTTT CP_MONMON   TELAPSE    60832.73 TCPU    60188.53
 DIIS TEST: 0.33132E-04 AT CPHF  CYCLE  11 - DIIS ACTIVE - HISTORY:    11 CYCLES
 CYCLE  11   ALPHA  601.885480  EPSILON    2.484677  DELTA   -8.8328E-03
 TTTTTTTTTTTTTTTTTTTTTTTTTTTTTT MOQGAD      TELAPSE    61325.59 TCPU    60676.70
 TTTTTTTTTTTTTTTTTTTTTTTTTTTTTT CP_MONMON   TELAPSE    61334.85 TCPU    60685.92
 DIIS TEST: 0.17729E-05 AT CPHF  CYCLE  12 - DIIS ACTIVE - HISTORY:    12 CYCLES
 CYCLE  12   ALPHA  601.883885  EPSILON    2.484673  DELTA   -1.5958E-03
 TTTTTTTTTTTTTTTTTTTTTTTTTTTTTT MOQGAD      TELAPSE    61826.22 TCPU    61173.63
 TTTTTTTTTTTTTTTTTTTTTTTTTTTTTT CP_MONMON   TELAPSE    61835.49 TCPU    61182.87
 DIIS TEST: 0.53293E-06 AT CPHF  CYCLE  13 - DIIS ACTIVE - HISTORY:    13 CYCLES
 CYCLE  13   ALPHA  601.883532  EPSILON    2.484672  DELTA   -3.5238E-04
 TTTTTTTTTTTTTTTTTTTTTTTTTTTTTT CP_SC       TELAPSE    61861.99 TCPU    61206.71

 *******************************************************************************

 POLARIZABILITY (ALPHA), DIELECTRIC (EPSILON) AND FIRST-ORDER ELECTRIC
 SUSCEPTIBILITY (CHI(1)) TENSORS (INDEPENDENT COMPONENTS)

  FR.(eV) COMP.   ALPHA(Re,Im)           EPSILON(Re,Im)                CHI(1)
  2.331   XX    1410.3767       0.0000       4.4790       0.0000       3.4790
  2.331   XY       0.0008       0.0000       0.0000       0.0000       0.0000
  2.331   XZ      -0.0000       0.0000      -0.0000       0.0000      -0.0000
  2.331   YY    1410.3764       0.0000       4.4790       0.0000       3.4790
  2.331   YZ      -0.0000       0.0000      -0.0000       0.0000      -0.0000
  2.331   ZZ     601.8835       0.0000       2.4847       0.0000       1.4847

 DIELECTRIC TENSOR

 TENSOR IN PRINCIPAL AXES SYSTEM
 AA  4.478992E+00 BB  4.478988E+00 CC  2.484672E+00

 REFRACTIVE INDICES 
 AA  1.576284E+00 BB  2.116362E+00 CC  2.116363E+00

 OPTICALLY ANISOTROPIC - UNIAXIAL CRYSTAL

 BIREFRINGENCE =  0.5401 (NEGATIVE) - OBLATE OPTICAL ELLIPSOID

 EPSILON=N**2=1+CHI(1)=1+ALPHA*4*PI/V,   4*PI/V=   0.00247 BOHR**(-3)
 ALPHA IN BOHR**3; EPSILON AND CHI(1) ARE DIMENSIONLESS.
 *******************************************************************************


  Pockels Effect beta(-omega;omega,0) with omega=   1.1653 eV


 SIZE OF GRID=    1819544
 TTTTTTTTTTTTTTTTTTTTTTTTTTTTTT MAKE_GRID2  TELAPSE    61978.21 TCPU    61321.95
 BECKE WEIGHT FUNCTION
 RADSAFE =     2.00
 TOLERANCES - DENSITY:10**- 6; POTENTIAL:10**- 9; GRID WGT:10**-14

 RADIAL INTEGRATION  - INTERVALS (POINTS,UPPER LIMIT):            1( 75,  4.0*R)

 ANGULAR INTEGRATION - INTERVALS (ACCURACY LEVEL [N. POINTS] UPPER LIMIT):
  1(  4[  86]   0.2)  2(  8[ 194]   0.5)  3( 12[ 350]   0.9)  4( 16[ 974]   3.5)
  5( 12[ 350]9999.0)

 SIZE OF GRID=    1819544
 TTTTTTTTTTTTTTTTTTTTTTTTTTTTTT MAKE_GRID2  TELAPSE    61980.26 TCPU    61323.81
 BECKE WEIGHT FUNCTION
 RADSAFE =     2.00
 TOLERANCES - DENSITY:10**- 6; POTENTIAL:10**- 9; GRID WGT:10**-14

 RADIAL INTEGRATION  - INTERVALS (POINTS,UPPER LIMIT):            1( 75,  4.0*R)

 ANGULAR INTEGRATION - INTERVALS (ACCURACY LEVEL [N. POINTS] UPPER LIMIT):
  1(  4[  86]   0.2)  2(  8[ 194]   0.5)  3( 12[ 350]   0.9)  4( 16[ 974]   3.5)
  5( 12[ 350]9999.0)
 *******************************************************************************

 DC-POCKELS AND SECOND ELECTRIC SUSCEPTIBILITY (CHI(2))
 TENSORS (INDEPENDENT COMPONENTS)

BETA                                         CHI(2)       d(MKS)       d(cgs)
 *******************************************************************************

     XXX         -0.2788E-02  -0.3438E-05  -0.3343E-05  -0.7975E-07
     XXY         -0.8618E-04  -0.1063E-06  -0.1034E-06  -0.2466E-08
     XXZ          0.9436E+01   0.1164E-01   0.1132E-01   0.2700E-03
     XYX          0.5412E-03   0.6675E-06   0.6490E-06   0.1548E-07
     XYY         -0.1582E-02  -0.1952E-05  -0.1898E-05  -0.4527E-07
     XYZ         -0.7052E+03  -0.8697E+00  -0.8457E+00  -0.2017E-01
     XZX         -0.1230E+02  -0.1517E-01  -0.1475E-01  -0.3519E-03
     XZY         -0.6797E+03  -0.8383E+00  -0.8152E+00  -0.1945E-01
     XZZ         -0.1550E-02  -0.1912E-05  -0.1859E-05  -0.4434E-07
     YXX          0.5162E-03   0.6367E-06   0.6191E-06   0.1477E-07
     YXY         -0.1516E-02  -0.1870E-05  -0.1818E-05  -0.4337E-07
     YXZ         -0.7052E+03  -0.8697E+00  -0.8457E+00  -0.2017E-01
     YYX         -0.5458E-04  -0.6731E-07  -0.6545E-07  -0.1561E-08
     YYY          0.6883E-03   0.8489E-06   0.8254E-06   0.1969E-07
     YYZ         -0.9435E+01  -0.1164E-01  -0.1131E-01  -0.2699E-03
     YZX         -0.6797E+03  -0.8383E+00  -0.8152E+00  -0.1945E-01
     YZY          0.1230E+02   0.1517E-01   0.1475E-01   0.3519E-03
     YZZ          0.5825E-03   0.7185E-06   0.6986E-06   0.1667E-07
     ZXX         -0.1415E+02  -0.1746E-01  -0.1697E-01  -0.4050E-03
     ZXY         -0.6798E+03  -0.8384E+00  -0.8152E+00  -0.1945E-01
     ZXZ         -0.1599E-02  -0.1972E-05  -0.1917E-05  -0.4574E-07
     ZYX         -0.6798E+03  -0.8384E+00  -0.8152E+00  -0.1945E-01
     ZYY          0.1416E+02   0.1746E-01   0.1698E-01   0.4050E-03
     ZYZ          0.5796E-03   0.7149E-06   0.6951E-06   0.1658E-07
     ZZX          0.2904E-03   0.3582E-06   0.3483E-06   0.8309E-08
     ZZY         -0.2304E-03  -0.2842E-06  -0.2763E-06  -0.6592E-08
     ZZZ          0.1762E-04   0.2174E-07   0.2114E-07   0.5042E-09
 *******************************************************************************
 CHI(2) = BETA*2PI/V

 BETA AND CHI(2) IN A.U.:    [BETA] = M**(-1/2) L**(7/2) T
                             [CHI(2)] = 1/F
                             (L=LENGTH, M=MASS, T=TIME, F=FIELD INTENSITY)

 ELECTRIC SUSCEPTIBILITY IN THE SECOND HARMONIC GENERATION (SHG) CONVENTION IS:
                   d(A.U.)= 1/2 CHI(2)
                   d(MKS) = d(A.U.)/0.514220632 pm/V
                   d(CGS) = d(A.U.)/(4PI*1.7152535)  10**(-7) esu

 FIELD INTENSITY: 1 A.U. = 0.514220632*10**(11) V/m = 1.7152535*10**7 esu
 BEWARE:                CHI(2)=P/(E0*F**2)   (MKS)
                        CHI(2)=P/F**2        (CGS)
 WHERE P IS THE POLARIZATION VECTOR AND F IS THE APPLIED ELECTRIC FIELD.
 CONSISTENCY IS  PRESERVED BY MULTIPLYING THE CGS VALUE TIMES THE PERMITTIVITY
 OF THE VACUUM, E0 (CONVERSION FACTORS FROM www.physics.nist.gov/constants).
 IN PARENTHESIS: BETA BEFORE SYMMETRIZATION.

  SHG Effect beta(-2omega;omega,omega) with omega=   1.1653 eV


 SIZE OF GRID=    1819544
 TTTTTTTTTTTTTTTTTTTTTTTTTTTTTT MAKE_GRID2  TELAPSE    62071.55 TCPU    61414.79
 BECKE WEIGHT FUNCTION
 RADSAFE =     2.00
 TOLERANCES - DENSITY:10**- 6; POTENTIAL:10**- 9; GRID WGT:10**-14

 RADIAL INTEGRATION  - INTERVALS (POINTS,UPPER LIMIT):            1( 75,  4.0*R)

 ANGULAR INTEGRATION - INTERVALS (ACCURACY LEVEL [N. POINTS] UPPER LIMIT):
  1(  4[  86]   0.2)  2(  8[ 194]   0.5)  3( 12[ 350]   0.9)  4( 16[ 974]   3.5)
  5( 12[ 350]9999.0)

 SIZE OF GRID=    1819544
 TTTTTTTTTTTTTTTTTTTTTTTTTTTTTT MAKE_GRID2  TELAPSE    62073.03 TCPU    61416.26
 BECKE WEIGHT FUNCTION
 RADSAFE =     2.00
 TOLERANCES - DENSITY:10**- 6; POTENTIAL:10**- 9; GRID WGT:10**-14

 RADIAL INTEGRATION  - INTERVALS (POINTS,UPPER LIMIT):            1( 75,  4.0*R)

 ANGULAR INTEGRATION - INTERVALS (ACCURACY LEVEL [N. POINTS] UPPER LIMIT):
  1(  4[  86]   0.2)  2(  8[ 194]   0.5)  3( 12[ 350]   0.9)  4( 16[ 974]   3.5)
  5( 12[ 350]9999.0)
 *******************************************************************************

 SECOND HARMONIC GENERATION (SHG)  AND SECOND ELECTRIC SUSCEPTIBILITY (CHI(2))
 TENSORS (INDEPENDENT COMPONENTS)

BETA                                         CHI(2)       d(MKS)       d(cgs)
 *******************************************************************************

     XXX         -0.5108E-02  -0.6300E-05  -0.6126E-05  -0.1461E-06
     XXY          0.6673E-03   0.8230E-06   0.8002E-06   0.1909E-07
     XXZ          0.1822E+03   0.2247E+00   0.2185E+00   0.5213E-02
     XYX          0.6673E-03   0.8230E-06   0.8002E-06   0.1909E-07
     XYY         -0.2044E-02  -0.2521E-05  -0.2451E-05  -0.5847E-07
     XYZ         -0.1061E+04  -0.1309E+01  -0.1273E+01  -0.3036E-01
     XZX          0.1822E+03   0.2247E+00   0.2185E+00   0.5213E-02
     XZY         -0.1061E+04  -0.1309E+01  -0.1273E+01  -0.3036E-01
     XZZ         -0.1718E-02  -0.2119E-05  -0.2061E-05  -0.4916E-07
     YXX          0.3693E-03   0.4555E-06   0.4429E-06   0.1057E-07
     YXY         -0.1911E-02  -0.2357E-05  -0.2291E-05  -0.5466E-07
     YXZ         -0.1061E+04  -0.1309E+01  -0.1273E+01  -0.3036E-01
     YYX         -0.1911E-02  -0.2357E-05  -0.2291E-05  -0.5466E-07
     YYY          0.1556E-02   0.1919E-05   0.1866E-05   0.4452E-07
     YYZ         -0.1822E+03  -0.2247E+00  -0.2185E+00  -0.5213E-02
     YZX         -0.1061E+04  -0.1309E+01  -0.1273E+01  -0.3036E-01
     YZY         -0.1822E+03  -0.2247E+00  -0.2185E+00  -0.5213E-02
     YZZ          0.6366E-03   0.7851E-06   0.7634E-06   0.1821E-07
     ZXX          0.5728E+02   0.7064E-01   0.6869E-01   0.1639E-02
     ZXY         -0.1024E+04  -0.1263E+01  -0.1228E+01  -0.2930E-01
     ZXZ         -0.1654E-02  -0.2040E-05  -0.1983E-05  -0.4731E-07
     ZYX         -0.1024E+04  -0.1263E+01  -0.1228E+01  -0.2930E-01
     ZYY         -0.5728E+02  -0.7064E-01  -0.6869E-01  -0.1639E-02
     ZYZ          0.5881E-03   0.7253E-06   0.7052E-06   0.1682E-07
     ZZX         -0.1654E-02  -0.2040E-05  -0.1983E-05  -0.4731E-07
     ZZY          0.5881E-03   0.7253E-06   0.7052E-06   0.1682E-07
     ZZZ          0.2812E-03   0.3468E-06   0.3372E-06   0.8045E-08
 *******************************************************************************
 CHI(2) = BETA*2PI/V

 BETA AND CHI(2) IN A.U.:    [BETA] = M**(-1/2) L**(7/2) T
                             [CHI(2)] = 1/F
                             (L=LENGTH, M=MASS, T=TIME, F=FIELD INTENSITY)

 ELECTRIC SUSCEPTIBILITY IN THE SECOND HARMONIC GENERATION (SHG) CONVENTION IS:
                   d(A.U.)= 1/2 CHI(2)
                   d(MKS) = d(A.U.)/0.514220632 pm/V
                   d(CGS) = d(A.U.)/(4PI*1.7152535)  10**(-7) esu

 FIELD INTENSITY: 1 A.U. = 0.514220632*10**(11) V/m = 1.7152535*10**7 esu
 BEWARE:                CHI(2)=P/(E0*F**2)   (MKS)
                        CHI(2)=P/F**2        (CGS)
 WHERE P IS THE POLARIZATION VECTOR AND F IS THE APPLIED ELECTRIC FIELD.
 CONSISTENCY IS  PRESERVED BY MULTIPLYING THE CGS VALUE TIMES THE PERMITTIVITY
 OF THE VACUUM, E0 (CONVERSION FACTORS FROM www.physics.nist.gov/constants).
 IN PARENTHESIS: BETA BEFORE SYMMETRIZATION.

 *******************************************************************************


 GCALCO - MAX INDICES DIRECT LATTICE VECTOR    14    14    16
 NO.OF VECTORS CREATED 6999 STARS  486 RMAX   204.94121 BOHR

 CAPPA:IS1  3;IS2  3;IS3  3; K PTS MONK NET   6; SYMMOPS:K SPACE   8;G SPACE   4

 TTTTTTTTTTTTTTTTTTTTTTTTTTTTTT END         TELAPSE    62073.21 TCPU    61416.43
 EEEEEEEEEE TERMINATION  DATE 09 03 2024 TIME 10:31:41.9
NODE    0 CPU TIME =     61416.434
    TOTAL CPU TIME =   3933099.363
