Loading crystal17/1.0.2/intel/19.0
  Loading requirement: intel/19.0 ompi/4.0.1/intel/19.0
          64 PROCESSORS WORKING

         
 *******************************************************************************
 *                                                                             *
 *                               CRYSTAL17                                     *
 *                      public : 1.0.2 - March 1st, 2018                       *
 *                       HTTP://WWW.CRYSTAL.UNITO.IT                           *
 *                                                                             *
 *                              MAIN AUTHORS                                   *
 *                                                                             *
 *  R. DOVESI(1,11), V.R. SAUNDERS(2), C. ROETTI(1,11), R. ORLANDO(1,11),      *
 *  C.M. ZICOVICH-WILSON(1,3), F. PASCALE(4), B. CIVALLERI(1,11),              *
 *  K. DOLL(5), N.M. HARRISON(2,6), I.J. BUSH(7), Ph. D'ARCO(8),               *
 *  M. LLUNELL(9), M. CAUSA'(10), Y. NOEL(8), L. MASCHIO(1,11), A. ERBA(1,11)  *
 *  M. RE'RAT(14), S. CASASSA(1,11)                                            *
 *                                                                             *
 *        CONTRIBUTIONS TO THE CODE HAVE ALSO BEEN GIVEN BY                    *
 *                                                                             *
 *  M. FERRABONE(1,11), M. DE LA PIERRE(1,11), M. FERRERO(1,11),               *
 *  J. BAIMA(1,11), E. ALBANESE(1,11), M.F. PEINTINGER(12), R. BAST(13),       *
 *  B. KIRTMAN(15), V. LACIVITA(1,11), R. DEMICHELIS(1,16)                     *
 *  G. BRANDEBURG(17), S. SALUSTRO(1,11), G. SANSONE(1,11)                     *
 *  M.T. RUGGIERO(18)                                                          *
 *                                                                             *
 * (1) THEORETICAL CHEMISTRY GROUP - UNIVERSITA' DI TORINO - TORINO (ITALY)    *
 * (2) COMPUTATIONAL SCIENCE & ENGINEERING DEPARTMENT - STFC DARESBURY (UK)    *
 * (3) UNIVERSIDAD AUTONOMA DEL ESTADO DE MORELOS - CUERNAVACA (MEXICO)        *
 * (4) UNIVERSITE' DE LORRAINE - NANCY (FRANCE)                                *
 * (5) UNIVERSITAET STUTTGART- STUTTGART (GERMANY)                             *
 * (6) IMPERIAL COLLEGE - LONDON (UK)                                          *
 * (7) OXFORD E-RESEARCH CENTRE - OXFORD (UK)                                  *
 * (8) UPMC - SORBONNE UNIVERSITES - PARIS (FRANCE)                            *
 * (9) UNIVERSIDAD DE BARCELONA - BARCELONA (SPAIN)                            *
 *(10) UNIVERSITA' DI NAPOLI "FEDERICO II" - NAPOLI (ITALY)                    *
 *(11) NIS - NANOSTRUCTURED INTERFACES AND SURFACES - TORINO (ITALY)           *
 *(12) MPI FUER CHEMISCHE ENERGIEKONVERSION - MUELHEIM AN DER RUHR (GERMANY)   *
 *(13) UNIVERSITY OF TROMSO - TROMSO (NORWAY)                                  *
 *(14) UNIVERSITE' DE PAU ET DES PAYS DE L'ADOUR - PAU (FRANCE)                *
 *(15) UNIVERSITY OF CALIFORNIA SANTA BARBARA - SANTA BARBARA (USA)            *
 *(16) CURTIN UNIVERSITY - PERTH (AUSTRALIA)                                   *
 *(17) UNIVERSITY COLLEGE LONDON - LONDON (UK)                                 *
 *(18) CAMBRIDGE UNIVERSITY - CAMBRIDGE (UK)                                   *
 *                                                                             *
 *******************************************************************************
 EEEEEEEEEE STARTING  DATE 21 01 2024 TIME 21:26:26.4
 Z:\home\sanoj\Downloads\tmp_p\newconn.mol                                       

 CRYSTAL CALCULATION
 (INPUT ACCORDING TO THE INTERNATIONAL TABLES FOR X-RAY CRYSTALLOGRAPHY)
 CRYSTAL FAMILY                       :  TETRAGONAL  
 CRYSTAL CLASS  (GROTH - 1921)        :  TETRAGONAL DISPHENOIDAL              

 SPACE GROUP (NONCENTROSYMMETRIC)     :  I -4            

 LATTICE PARAMETERS  (ANGSTROMS AND DEGREES) - CONVENTIONAL CELL
        A           B           C        ALPHA        BETA       GAMMA
    10.93297    10.93297    14.03179    90.00000    90.00000    90.00000


 NUMBER OF IRREDUCIBLE ATOMS IN THE CONVENTIONAL CELL:   17

 INPUT COORDINATES

 ATOM AT. N.              COORDINATES
   1   1     1.448400000000E-01  4.945300000000E-01  3.463500000000E-01
   2   1     3.708700000000E-01  4.399000000000E-01  3.598800000000E-01
   3   6     2.683600000000E-01  7.798900000000E-01  3.812300000000E-01
   4   6     2.453800000000E-01 -8.797000000000E-02  3.710500000000E-01
   5   6     1.802800000000E-01  6.872100000000E-01  3.671200000000E-01
   6   6     3.371900000000E-01  5.337600000000E-01  3.666300000000E-01
   7   6     3.877600000000E-01  7.340900000000E-01  3.960800000000E-01
   8   6     7.858200000000E-01  4.353600000000E-01  3.576700000000E-01
   9   7     3.165400000000E-01 -1.586000000000E-02  3.135200000000E-01
  10   7     2.671800000000E-01  9.918000000000E-02  3.167300000000E-01
  11   7     1.545100000000E-01 -1.752000000000E-02  4.098100000000E-01
  12   7     1.728700000000E-01  9.881000000000E-02  3.747200000000E-01
  13   7     4.219700000000E-01  6.185100000000E-01  3.889100000000E-01
  14  30     0.000000000000E+00  5.000000000000E-01  7.500000000000E-01
  15  30     0.000000000000E+00  0.000000000000E+00  5.000000000000E-01
  16  35     1.354000000000E-02  7.293600000000E-01  3.666600000000E-01
  17  35     5.134300000000E-01  8.443900000000E-01  4.322200000000E-01

 *******************************************************************************

 << INFORMATION >>: FROM NOW ON, ALL COORDINATES REFER TO THE PRIMITIVE CELL

 *******************************************************************************

 LATTICE PARAMETERS  (ANGSTROMS AND DEGREES) - PRIMITIVE CELL
       A          B          C        ALPHA      BETA     GAMMA        VOLUME
   10.43971   10.43971   10.43971   116.84870 116.84870  95.55078    838.608234

 COORDINATES OF THE EQUIVALENT ATOMS (FRACTIONAL UNITS)

 N. ATOM EQUIV AT. N.          X                  Y                  Z

   1   1   1    1 H    -1.59120000000E-01  4.91190000000E-01 -3.60630000000E-01
   2   1   2    1 H    -1.48180000000E-01  2.01510000000E-01  3.60630000000E-01
   3   1   3    1 H    -4.91190000000E-01  1.48180000000E-01  3.49690000000E-01
   4   1   4    1 H    -2.01510000000E-01  1.59120000000E-01 -3.49690000000E-01

   5   2   1    1 H    -2.00220000000E-01 -2.69250000000E-01 -1.89230000000E-01
   6   2   2    1 H    -8.00200000000E-02 -1.09900000000E-02  1.89230000000E-01
   7   2   3    1 H     2.69250000000E-01  8.00200000000E-02  6.90300000000E-02
   8   2   4    1 H     1.09900000000E-02  2.00220000000E-01 -6.90300000000E-02

   9   3   1    6 C     1.61120000000E-01 -3.50410000000E-01  4.82500000000E-02
  10   3   2    6 C    -3.98660000000E-01  1.12870000000E-01 -4.82500000000E-02
  11   3   3    6 C     3.50410000000E-01  3.98660000000E-01 -4.88470000000E-01
  12   3   4    6 C    -1.12870000000E-01 -1.61120000000E-01  4.88470000000E-01

  13   4   1    6 C     2.83080000000E-01 -3.83570000000E-01  1.57410000000E-01
  14   4   2    6 C     4.59020000000E-01  1.25670000000E-01 -1.57410000000E-01
  15   4   3    6 C     3.83570000000E-01 -4.59020000000E-01 -3.33350000000E-01
  16   4   4    6 C    -1.25670000000E-01 -2.83080000000E-01  3.33350000000E-01

  17   5   1    6 C     5.43300000000E-02 -4.52600000000E-01 -1.32510000000E-01
  18   5   2    6 C    -3.20090000000E-01  1.86840000000E-01  1.32510000000E-01
  19   5   3    6 C     4.52600000000E-01  3.20090000000E-01 -4.93070000000E-01
  20   5   4    6 C    -1.86840000000E-01 -5.43300000000E-02  4.93070000000E-01

  21   6   1    6 C    -9.96100000000E-02 -2.96180000000E-01 -1.29050000000E-01
  22   6   2    6 C    -1.67130000000E-01  2.94400000000E-02  1.29050000000E-01
  23   6   3    6 C     2.96180000000E-01  1.67130000000E-01  1.96570000000E-01
  24   6   4    6 C    -2.94400000000E-02  9.96100000000E-02 -1.96570000000E-01

  25   7   1    6 C     1.30170000000E-01 -2.16160000000E-01  1.21850000000E-01
  26   7   2    6 C    -3.38010000000E-01  8.32000000000E-03 -1.21850000000E-01
  27   7   3    6 C     2.16160000000E-01  3.38010000000E-01  3.46330000000E-01
  28   7   4    6 C    -8.32000000000E-03 -1.30170000000E-01 -3.46330000000E-01

  29   8   1    6 C    -2.06970000000E-01  1.43490000000E-01  2.21180000000E-01
  30   8   2    6 C    -7.76900000000E-02 -4.28150000000E-01 -2.21180000000E-01
  31   8   3    6 C    -1.43490000000E-01  7.76900000000E-02 -3.50460000000E-01
  32   8   4    6 C     4.28150000000E-01  2.06970000000E-01  3.50460000000E-01

  33   9   1    7 N     2.97660000000E-01 -3.69940000000E-01  3.00680000000E-01
  34   9   2    7 N     3.29380000000E-01 -3.02000000000E-03 -3.00680000000E-01
  35   9   3    7 N     3.69940000000E-01 -3.29380000000E-01 -3.32400000000E-01
  36   9   4    7 N     3.02000000000E-03 -2.97660000000E-01  3.32400000000E-01

  37  10   1    7 N     4.15910000000E-01 -4.16090000000E-01  3.66360000000E-01
  38  10   2    7 N     2.17550000000E-01  4.95500000000E-02 -3.66360000000E-01
  39  10   3    7 N     4.16090000000E-01 -2.17550000000E-01 -1.68000000000E-01
  40  10   4    7 N    -4.95500000000E-02 -4.15910000000E-01  1.68000000000E-01

  41  11   1    7 N     3.92290000000E-01 -4.35680000000E-01  1.36990000000E-01
  42  11   2    7 N     4.27330000000E-01  2.55300000000E-01 -1.36990000000E-01
  43  11   3    7 N     4.35680000000E-01 -4.27330000000E-01 -1.72030000000E-01
  44  11   4    7 N    -2.55300000000E-01 -3.92290000000E-01  1.72030000000E-01

  45  12   1    7 N     4.73530000000E-01 -4.52410000000E-01  2.71680000000E-01
  46  12   2    7 N     2.75910000000E-01  2.01850000000E-01 -2.71680000000E-01
  47  12   3    7 N     4.52410000000E-01 -2.75910000000E-01 -7.40600000000E-02
  48  12   4    7 N    -2.01850000000E-01 -4.73530000000E-01  7.40600000000E-02

  49  13   1    7 N     7.42000000000E-03 -1.89120000000E-01  4.04800000000E-02
  50  13   2    7 N    -2.29600000000E-01 -3.30600000000E-02 -4.04800000000E-02
  51  13   3    7 N     1.89120000000E-01  2.29600000000E-01  1.96540000000E-01
  52  13   4    7 N     3.30600000000E-02 -7.42000000000E-03 -1.96540000000E-01

  53  14   1   30 ZN    2.50000000000E-01 -2.50000000000E-01 -5.00000000000E-01

  54  15   1   30 ZN   -5.00000000000E-01 -5.00000000000E-01  0.00000000000E+00

  55  16   1   35 BR    9.60200000000E-02  3.80200000000E-01 -2.57100000000E-01
  56  16   2   35 BR   -3.62700000000E-01  3.53120000000E-01  2.57100000000E-01
  57  16   3   35 BR   -3.80200000000E-01  3.62700000000E-01 -2.84180000000E-01
  58  16   4   35 BR   -3.53120000000E-01 -9.60200000000E-02  2.84180000000E-01

  59  17   1   35 BR    2.76610000000E-01 -5.43500000000E-02  3.57820000000E-01
  60  17   2   35 BR   -4.12170000000E-01 -8.12100000000E-02 -3.57820000000E-01
  61  17   3   35 BR    5.43500000000E-02  4.12170000000E-01  3.30960000000E-01
  62  17   4   35 BR    8.12100000000E-02 -2.76610000000E-01 -3.30960000000E-01

 NUMBER OF SYMMETRY OPERATORS         :    4
 *******************************************************************************
 * GEOMETRY EDITING - INPUT COORDINATES ARE GIVEN IN ANGSTROM         
 *******************************************************************************

 GEOMETRY NOW FULLY CONSISTENT WITH THE GROUP

 GCALCO - MAX INDICES DIRECT LATTICE VECTOR    14    14    16
 NO.OF VECTORS CREATED 6999 STARS  481 RMAX   211.88695 BOHR

 GEOMETRY FOR WAVE FUNCTION - DIMENSIONALITY OF THE SYSTEM    3
 (NON PERIODIC DIRECTION: LATTICE PARAMETER FORMALLY SET TO 500)
 *******************************************************************************
 LATTICE PARAMETERS (ANGSTROMS AND DEGREES) - BOHR = 0.5291772083 ANGSTROM
 PRIMITIVE CELL - CENTRING CODE 6/0 VOLUME=   838.608234 - DENSITY  2.644 g/cm^3
         A              B              C           ALPHA      BETA       GAMMA 
    10.43971498    10.43971498    10.43971498   116.848699 116.848699  95.550781
 *******************************************************************************
 ATOMS IN THE ASYMMETRIC UNIT   17 - ATOMS IN THE UNIT CELL:   62
     ATOM                 X/A                 Y/B                 Z/C    
 *******************************************************************************
      1 T   1 H    -1.591200000000E-01  4.911900000000E-01 -3.606300000000E-01
      2 F   1 H    -1.481800000000E-01  2.015100000000E-01  3.606300000000E-01
      3 F   1 H    -4.911900000000E-01  1.481800000000E-01  3.496900000000E-01
      4 F   1 H    -2.015100000000E-01  1.591200000000E-01 -3.496900000000E-01
      5 T   1 H    -2.002200000000E-01 -2.692500000000E-01 -1.892300000000E-01
      6 F   1 H    -8.002000000000E-02 -1.099000000000E-02  1.892300000000E-01
      7 F   1 H     2.692500000000E-01  8.002000000000E-02  6.903000000000E-02
      8 F   1 H     1.099000000000E-02  2.002200000000E-01 -6.903000000000E-02
      9 T   6 C     1.611200000000E-01 -3.504100000000E-01  4.825000000000E-02
     10 F   6 C    -3.986600000000E-01  1.128700000000E-01 -4.825000000000E-02
     11 F   6 C     3.504100000000E-01  3.986600000000E-01 -4.884700000000E-01
     12 F   6 C    -1.128700000000E-01 -1.611200000000E-01  4.884700000000E-01
     13 T   6 C     2.830800000000E-01 -3.835700000000E-01  1.574100000000E-01
     14 F   6 C     4.590200000000E-01  1.256700000000E-01 -1.574100000000E-01
     15 F   6 C     3.835700000000E-01 -4.590200000000E-01 -3.333500000000E-01
     16 F   6 C    -1.256700000000E-01 -2.830800000000E-01  3.333500000000E-01
     17 T   6 C     5.433000000000E-02 -4.526000000000E-01 -1.325100000000E-01
     18 F   6 C    -3.200900000000E-01  1.868400000000E-01  1.325100000000E-01
     19 F   6 C     4.526000000000E-01  3.200900000000E-01 -4.930700000000E-01
     20 F   6 C    -1.868400000000E-01 -5.433000000000E-02  4.930700000000E-01
     21 T   6 C    -9.961000000000E-02 -2.961800000000E-01 -1.290500000000E-01
     22 F   6 C    -1.671300000000E-01  2.944000000000E-02  1.290500000000E-01
     23 F   6 C     2.961800000000E-01  1.671300000000E-01  1.965700000000E-01
     24 F   6 C    -2.944000000000E-02  9.961000000000E-02 -1.965700000000E-01
     25 T   6 C     1.301700000000E-01 -2.161600000000E-01  1.218500000000E-01
     26 F   6 C    -3.380100000000E-01  8.320000000000E-03 -1.218500000000E-01
     27 F   6 C     2.161600000000E-01  3.380100000000E-01  3.463300000000E-01
     28 F   6 C    -8.320000000000E-03 -1.301700000000E-01 -3.463300000000E-01
     29 T   6 C    -2.069700000000E-01  1.434900000000E-01  2.211800000000E-01
     30 F   6 C    -7.769000000000E-02 -4.281500000000E-01 -2.211800000000E-01
     31 F   6 C    -1.434900000000E-01  7.769000000000E-02 -3.504600000000E-01
     32 F   6 C     4.281500000000E-01  2.069700000000E-01  3.504600000000E-01
     33 T   7 N     2.976600000000E-01 -3.699400000000E-01  3.006800000000E-01
     34 F   7 N     3.293800000000E-01 -3.020000000000E-03 -3.006800000000E-01
     35 F   7 N     3.699400000000E-01 -3.293800000000E-01 -3.324000000000E-01
     36 F   7 N     3.020000000000E-03 -2.976600000000E-01  3.324000000000E-01
     37 T   7 N     4.159100000000E-01 -4.160900000000E-01  3.663600000000E-01
     38 F   7 N     2.175500000000E-01  4.955000000000E-02 -3.663600000000E-01
     39 F   7 N     4.160900000000E-01 -2.175500000000E-01 -1.680000000000E-01
     40 F   7 N    -4.955000000000E-02 -4.159100000000E-01  1.680000000000E-01
     41 T   7 N     3.922900000000E-01 -4.356800000000E-01  1.369900000000E-01
     42 F   7 N     4.273300000000E-01  2.553000000000E-01 -1.369900000000E-01
     43 F   7 N     4.356800000000E-01 -4.273300000000E-01 -1.720300000000E-01
     44 F   7 N    -2.553000000000E-01 -3.922900000000E-01  1.720300000000E-01
     45 T   7 N     4.735300000000E-01 -4.524100000000E-01  2.716800000000E-01
     46 F   7 N     2.759100000000E-01  2.018500000000E-01 -2.716800000000E-01
     47 F   7 N     4.524100000000E-01 -2.759100000000E-01 -7.406000000000E-02
     48 F   7 N    -2.018500000000E-01 -4.735300000000E-01  7.406000000000E-02
     49 T   7 N     7.420000000000E-03 -1.891200000000E-01  4.048000000000E-02
     50 F   7 N    -2.296000000000E-01 -3.306000000000E-02 -4.048000000000E-02
     51 F   7 N     1.891200000000E-01  2.296000000000E-01  1.965400000000E-01
     52 F   7 N     3.306000000000E-02 -7.420000000000E-03 -1.965400000000E-01
     53 T  30 ZN    2.500000000000E-01 -2.500000000000E-01 -5.000000000000E-01
     54 T  30 ZN   -5.000000000000E-01 -5.000000000000E-01  0.000000000000E+00
     55 T  35 BR    9.602000000000E-02  3.802000000000E-01 -2.571000000000E-01
     56 F  35 BR   -3.627000000000E-01  3.531200000000E-01  2.571000000000E-01
     57 F  35 BR   -3.802000000000E-01  3.627000000000E-01 -2.841800000000E-01
     58 F  35 BR   -3.531200000000E-01 -9.602000000000E-02  2.841800000000E-01
     59 T  35 BR    2.766100000000E-01 -5.435000000000E-02  3.578200000000E-01
     60 F  35 BR   -4.121700000000E-01 -8.121000000000E-02 -3.578200000000E-01
     61 F  35 BR    5.435000000000E-02  4.121700000000E-01  3.309600000000E-01
     62 F  35 BR    8.121000000000E-02 -2.766100000000E-01 -3.309600000000E-01

 TRANSFORMATION MATRIX PRIMITIVE-CRYSTALLOGRAPHIC CELL
  0.0000  1.0000  1.0000  1.0000  0.0000  1.0000  1.0000  1.0000  0.0000

 *******************************************************************************
 CRYSTALLOGRAPHIC CELL (VOLUME=       1677.21646872)
         A              B              C           ALPHA      BETA       GAMMA 
    10.93296841    10.93296841    14.03178531    90.000000  90.000000  90.000000

 COORDINATES IN THE CRYSTALLOGRAPHIC CELL
     ATOM                 X/A                 Y/B                 Z/C    
 *******************************************************************************
      1 T   1 H    -3.551600000000E-01 -5.470000000000E-03 -1.536500000000E-01
      2 F   1 H     3.551600000000E-01  5.470000000000E-03 -1.536500000000E-01
      3 F   1 H    -5.470000000000E-03  3.551600000000E-01  1.536500000000E-01
      4 F   1 H     5.470000000000E-03 -3.551600000000E-01  1.536500000000E-01
      5 T   1 H    -1.291300000000E-01 -6.010000000000E-02 -1.401200000000E-01
      6 F   1 H     1.291300000000E-01  6.010000000000E-02 -1.401200000000E-01
      7 F   1 H    -6.010000000000E-02  1.291300000000E-01  1.401200000000E-01
      8 F   1 H     6.010000000000E-02 -1.291300000000E-01  1.401200000000E-01
      9 T   6 C    -2.316400000000E-01  2.798900000000E-01 -1.187700000000E-01
     10 F   6 C     2.316400000000E-01 -2.798900000000E-01 -1.187700000000E-01
     11 F   6 C     2.798900000000E-01  2.316400000000E-01  1.187700000000E-01
     12 F   6 C    -2.798900000000E-01 -2.316400000000E-01  1.187700000000E-01
     13 T   6 C    -2.546200000000E-01  4.120300000000E-01 -1.289500000000E-01
     14 F   6 C     2.546200000000E-01 -4.120300000000E-01 -1.289500000000E-01
     15 F   6 C     4.120300000000E-01  2.546200000000E-01  1.289500000000E-01
     16 F   6 C    -4.120300000000E-01 -2.546200000000E-01  1.289500000000E-01
     17 T   6 C    -3.197200000000E-01  1.872100000000E-01 -1.328800000000E-01
     18 F   6 C     3.197200000000E-01 -1.872100000000E-01 -1.328800000000E-01
     19 F   6 C     1.872100000000E-01  3.197200000000E-01  1.328800000000E-01
     20 F   6 C    -1.872100000000E-01 -3.197200000000E-01  1.328800000000E-01
     21 T   6 C    -1.628100000000E-01  3.376000000000E-02 -1.333700000000E-01
     22 F   6 C     1.628100000000E-01 -3.376000000000E-02 -1.333700000000E-01
     23 F   6 C     3.376000000000E-02  1.628100000000E-01  1.333700000000E-01
     24 F   6 C    -3.376000000000E-02 -1.628100000000E-01  1.333700000000E-01
     25 T   6 C    -1.122400000000E-01  2.340900000000E-01 -1.039200000000E-01
     26 F   6 C     1.122400000000E-01 -2.340900000000E-01 -1.039200000000E-01
     27 F   6 C     2.340900000000E-01  1.122400000000E-01  1.039200000000E-01
     28 F   6 C    -2.340900000000E-01 -1.122400000000E-01  1.039200000000E-01
     29 T   6 C     2.858200000000E-01 -6.464000000000E-02 -1.423300000000E-01
     30 F   6 C    -2.858200000000E-01  6.464000000000E-02 -1.423300000000E-01
     31 F   6 C    -6.464000000000E-02 -2.858200000000E-01  1.423300000000E-01
     32 F   6 C     6.464000000000E-02  2.858200000000E-01  1.423300000000E-01
     33 T   7 N     3.165400000000E-01 -1.586000000000E-02  3.135200000000E-01
     34 F   7 N    -3.165400000000E-01  1.586000000000E-02  3.135200000000E-01
     35 F   7 N    -1.586000000000E-02 -3.165400000000E-01 -3.135200000000E-01
     36 F   7 N     1.586000000000E-02  3.165400000000E-01 -3.135200000000E-01
     37 T   7 N     2.671800000000E-01  9.918000000000E-02  3.167300000000E-01
     38 F   7 N    -2.671800000000E-01 -9.918000000000E-02  3.167300000000E-01
     39 F   7 N     9.918000000000E-02 -2.671800000000E-01 -3.167300000000E-01
     40 F   7 N    -9.918000000000E-02  2.671800000000E-01 -3.167300000000E-01
     41 T   7 N     1.545100000000E-01 -1.752000000000E-02  4.098100000000E-01
     42 F   7 N    -1.545100000000E-01  1.752000000000E-02  4.098100000000E-01
     43 F   7 N    -1.752000000000E-02 -1.545100000000E-01 -4.098100000000E-01
     44 F   7 N     1.752000000000E-02  1.545100000000E-01 -4.098100000000E-01
     45 T   7 N     1.728700000000E-01  9.881000000000E-02  3.747200000000E-01
     46 F   7 N    -1.728700000000E-01 -9.881000000000E-02  3.747200000000E-01
     47 F   7 N     9.881000000000E-02 -1.728700000000E-01 -3.747200000000E-01
     48 F   7 N    -9.881000000000E-02  1.728700000000E-01 -3.747200000000E-01
     49 T   7 N    -7.803000000000E-02  1.185100000000E-01 -1.110900000000E-01
     50 F   7 N     7.803000000000E-02 -1.185100000000E-01 -1.110900000000E-01
     51 F   7 N     1.185100000000E-01  7.803000000000E-02  1.110900000000E-01
     52 F   7 N    -1.185100000000E-01 -7.803000000000E-02  1.110900000000E-01
     53 T  30 ZN    5.000000000000E-01  0.000000000000E+00  2.500000000000E-01
     54 T  30 ZN    0.000000000000E+00  0.000000000000E+00 -5.000000000000E-01
     55 T  35 BR    1.354000000000E-02 -2.706400000000E-01  3.666600000000E-01
     56 F  35 BR   -1.354000000000E-02  2.706400000000E-01  3.666600000000E-01
     57 F  35 BR   -2.706400000000E-01 -1.354000000000E-02 -3.666600000000E-01
     58 F  35 BR    2.706400000000E-01  1.354000000000E-02 -3.666600000000E-01
     59 T  35 BR    1.343000000000E-02  3.443900000000E-01 -6.778000000000E-02
     60 F  35 BR   -1.343000000000E-02 -3.443900000000E-01 -6.778000000000E-02
     61 F  35 BR    3.443900000000E-01 -1.343000000000E-02  6.778000000000E-02
     62 F  35 BR   -3.443900000000E-01  1.343000000000E-02  6.778000000000E-02

 T = ATOM BELONGING TO THE ASYMMETRIC UNIT

 ****    4 SYMMOPS - TRANSLATORS IN FRACTIONAL UNITS
 **** MATRICES AND TRANSLATORS IN THE CRYSTALLOGRAPHIC REFERENCE FRAME
   V INV                    ROTATION MATRICES                   TRANSLATORS
   1   1  1.00  0.00  0.00  0.00  1.00  0.00  0.00  0.00  1.00  0.00  0.00  0.00
   2   2  0.00  1.00 -1.00  1.00  0.00 -1.00 -0.00  0.00 -1.00  0.00  0.00  0.00
   3   4 -0.00 -1.00  0.00 -0.00 -1.00  1.00  1.00 -1.00  0.00  0.00  0.00  0.00
   4   3 -1.00 -0.00  1.00 -1.00 -0.00  0.00 -1.00  1.00 -0.00  0.00  0.00  0.00

 DIRECT LATTICE VECTORS CARTESIAN COMPONENTS (ANGSTROM)
          X                    Y                    Z
  -0.546648420645E+01   0.546648420645E+01   0.701589265745E+01
   0.546648420645E+01  -0.546648420645E+01   0.701589265745E+01
   0.546648420645E+01   0.546648420645E+01  -0.701589265745E+01


 CARTESIAN COORDINATES - PRIMITIVE CELL
 *******************************************************************************
 *      ATOM          X(ANGSTROM)         Y(ANGSTROM)         Z(ANGSTROM)
 *******************************************************************************
    1     1 H    -3.882953061526E+00 -5.980333721856E-02 -2.155983813634E+00
    2     1 H     3.882953061526E+00  5.980333721856E-02 -2.155983813634E+00
    3     1 H    -5.980333721856E-02  3.882953061526E+00  2.155983813634E+00
    4     1 H     5.980333721856E-02 -3.882953061526E+00  2.155983813634E+00
    5     1 H    -1.411774211158E+00 -6.570714016153E-01 -1.966133758324E+00
    6     1 H     1.411774211158E+00  6.570714016153E-01 -1.966133758324E+00
    7     1 H    -6.570714016153E-01  1.411774211158E+00  1.966133758324E+00
    8     1 H     6.570714016153E-01 -1.411774211158E+00  1.966133758324E+00
    9     6 C    -2.532512803164E+00  3.060028529087E+00 -1.666555141851E+00
   10     6 C     2.532512803164E+00 -3.060028529087E+00 -1.666555141851E+00
   11     6 C     3.060028529087E+00  2.532512803164E+00  1.666555141851E+00
   12     6 C    -3.060028529087E+00 -2.532512803164E+00  1.666555141851E+00
   13     6 C    -2.783752417293E+00  4.504710975167E+00 -1.809398716356E+00
   14     6 C     2.783752417293E+00 -4.504710975167E+00 -1.809398716356E+00
   15     6 C     4.504710975167E+00  2.783752417293E+00  1.809398716356E+00
   16     6 C    -4.504710975167E+00 -2.783752417293E+00  1.809398716356E+00
   17     6 C    -3.495488660972E+00  2.046761016579E+00 -1.864543632644E+00
   18     6 C     3.495488660972E+00 -2.046761016579E+00 -1.864543632644E+00
   19     6 C     2.046761016579E+00  3.495488660972E+00  1.864543632644E+00
   20     6 C    -2.046761016579E+00 -3.495488660972E+00  1.864543632644E+00
   21     6 C    -1.779996587304E+00  3.690970136195E-01 -1.871419207448E+00
   22     6 C     1.779996587304E+00 -3.690970136195E-01 -1.871419207448E+00
   23     6 C     3.690970136195E-01  1.779996587304E+00  1.871419207448E+00
   24     6 C    -3.690970136195E-01 -1.779996587304E+00  1.871419207448E+00
   25     6 C    -1.227116374664E+00  2.559298575776E+00 -1.458183129924E+00
   26     6 C     1.227116374664E+00 -2.559298575776E+00 -1.458183129924E+00
   27     6 C     2.559298575776E+00  1.227116374664E+00  1.458183129924E+00
   28     6 C    -2.559298575776E+00 -1.227116374664E+00  1.458183129924E+00
   29     6 C     3.124861031775E+00 -7.067070782099E-01 -1.997144003870E+00
   30     6 C    -3.124861031775E+00  7.067070782099E-01 -1.997144003870E+00
   31     6 C    -7.067070782099E-01 -3.124861031775E+00  1.997144003870E+00
   32     6 C     7.067070782099E-01  3.124861031775E+00  1.997144003870E+00
   33     7 N     3.460721821419E+00 -1.733968790286E-01  4.399245331927E+00
   34     7 N    -3.460721821419E+00  1.733968790286E-01  4.399245331927E+00
   35     7 N    -1.733968790286E-01 -3.460721821419E+00 -4.399245331927E+00
   36     7 N     1.733968790286E-01  3.460721821419E+00 -4.399245331927E+00
   37     7 N     2.921070500559E+00  1.084331807191E+00  4.444287362788E+00
   38     7 N    -2.921070500559E+00 -1.084331807191E+00  4.444287362788E+00
   39     7 N     1.084331807191E+00 -2.921070500559E+00 -4.444287362788E+00
   40     7 N    -1.084331807191E+00  2.921070500559E+00 -4.444287362788E+00
   41     7 N     1.689252949477E+00 -1.915456065940E-01  5.750365939899E+00
   42     7 N    -1.689252949477E+00  1.915456065940E-01  5.750365939899E+00
   43     7 N    -1.915456065940E-01 -1.689252949477E+00 -5.750365939899E+00
   44     7 N     1.915456065940E-01  1.689252949477E+00 -5.750365939899E+00
   45     7 N     1.889982249538E+00  1.080286608879E+00  5.257990593199E+00
   46     7 N    -1.889982249538E+00 -1.080286608879E+00  5.257990593199E+00
   47     7 N     1.080286608879E+00 -1.889982249538E+00 -5.257990593199E+00
   48     7 N    -1.080286608879E+00  1.889982249538E+00 -5.257990593199E+00
   49     7 N    -8.530995252586E-01  1.295666086613E+00 -1.558791030632E+00
   50     7 N     8.530995252586E-01 -1.295666086613E+00 -1.558791030632E+00
   51     7 N     1.295666086613E+00  8.530995252586E-01  1.558791030632E+00
   52     7 N    -1.295666086613E+00 -8.530995252586E-01  1.558791030632E+00
   53    30 ZN    5.466484206450E+00  0.000000000000E+00 -1.052383898617E+01
   54    30 ZN    0.000000000000E+00  0.000000000000E+00  7.015892657450E+00
   55    35 BR    1.480323923107E-01 -2.958898571267E+00  5.144894403561E+00
   56    35 BR   -1.480323923107E-01  2.958898571267E+00  5.144894403561E+00
   57    35 BR   -2.958898571267E+00 -1.480323923107E-01 -5.144894403561E+00
   58    35 BR    2.958898571267E+00  1.480323923107E-01 -5.144894403561E+00
   59    35 BR    1.468297657852E-01  3.765204991719E+00 -9.510744086439E-01
   60    35 BR   -1.468297657852E-01 -3.765204991719E+00 -9.510744086439E-01
   61    35 BR    3.765204991719E+00 -1.468297657852E-01  9.510744086439E-01
   62    35 BR   -3.765204991719E+00  1.468297657852E-01  9.510744086439E-01

 *******************************************************************************
 STARTING BASIS SET HANDLING 
 *******************************************************************************

 Loading internal basis set: POB-DZVPP           

 Please cite in your publication:
 Peintinger, M. F., Oliveira, D. V. and Bredow, T. (2013), Generally applicable 
 solid-state Gaussian basis sets, in preparation                                
                                                                                
                    

 *******************************************************************************
 LOCAL ATOMIC FUNCTIONS BASIS SET
 *******************************************************************************
   ATOM   X(AU)   Y(AU)   Z(AU)  N. TYPE  EXPONENT  S COEF   P COEF   D/F/G COEF
 *******************************************************************************
   1 H   -7.338  -0.113  -4.074
                                  1 S  
                                         2.263E+01 1.441E-02 0.000E+00 0.000E+00
                                         3.236E+00 1.072E-01 0.000E+00 0.000E+00
                                         7.304E-01 3.846E-01 0.000E+00 0.000E+00
                                  2 S  
                                         1.417E-01 1.000E+00 0.000E+00 0.000E+00
                           3-     5 P  
                                         3.944E-01 0.000E+00 1.000E+00 0.000E+00
                           6-     8 P  
                                         1.006E-01 0.000E+00 1.000E+00 0.000E+00
   2 H    7.338   0.113  -4.074
   3 H   -0.113   7.338   4.074
   4 H    0.113  -7.338   4.074
   5 H   -2.668  -1.242  -3.715
   6 H    2.668   1.242  -3.715
   7 H   -1.242   2.668   3.715
   8 H    1.242  -2.668   3.715
   9 C   -4.786   5.783  -3.149
                                 65 S  
                                         1.238E+03 5.457E-03 0.000E+00 0.000E+00
                                         1.863E+02 4.064E-02 0.000E+00 0.000E+00
                                         4.225E+01 1.803E-01 0.000E+00 0.000E+00
                                         1.168E+01 4.632E-01 0.000E+00 0.000E+00
                                         3.593E+00 4.409E-01 0.000E+00 0.000E+00
                                 66 S  
                                         5.281E+00 1.000E+00 0.000E+00 0.000E+00
                                 67 S  
                                         4.447E-01 1.000E+00 0.000E+00 0.000E+00
                          68-    70 P  
                                         9.468E+00 0.000E+00 3.839E-02 0.000E+00
                                         2.010E+00 0.000E+00 2.112E-01 0.000E+00
                                         5.477E-01 0.000E+00 5.133E-01 0.000E+00
                          71-    73 P  
                                         1.604E-01 0.000E+00 1.000E+00 0.000E+00
                          74-    78 D  
                                         6.070E-01 0.000E+00 0.000E+00 1.000E+00
                          79-    83 D  
                                         2.939E-01 0.000E+00 0.000E+00 1.000E+00
  10 C    4.786  -5.783  -3.149
  11 C    5.783   4.786   3.149
  12 C   -5.783  -4.786   3.149
  13 C   -5.261   8.513  -3.419
  14 C    5.261  -8.513  -3.419
  15 C    8.513   5.261   3.419
  16 C   -8.513  -5.261   3.419
  17 C   -6.606   3.868  -3.523
  18 C    6.606  -3.868  -3.523
  19 C    3.868   6.606   3.523
  20 C   -3.868  -6.606   3.523
  21 C   -3.364   0.697  -3.536
  22 C    3.364  -0.697  -3.536
  23 C    0.697   3.364   3.536
  24 C   -0.697  -3.364   3.536
  25 C   -2.319   4.836  -2.756
  26 C    2.319  -4.836  -2.756
  27 C    4.836   2.319   2.756
  28 C   -4.836  -2.319   2.756
  29 C    5.905  -1.335  -3.774
  30 C   -5.905   1.335  -3.774
  31 C   -1.335  -5.905   3.774
  32 C    1.335   5.905   3.774
  33 N    6.540  -0.328   8.313
                                521 S  
                                         1.713E+03-5.393E-03 0.000E+00 0.000E+00
                                         2.576E+02-4.022E-02 0.000E+00 0.000E+00
                                         5.846E+01-1.793E-01 0.000E+00 0.000E+00
                                         1.620E+01-4.638E-01 0.000E+00 0.000E+00
                                         5.005E+00-4.417E-01 0.000E+00 0.000E+00
                                522 S  
                                         6.217E-01 1.000E+00 0.000E+00 0.000E+00
                                523 S  
                                         2.921E-01 1.000E+00 0.000E+00 0.000E+00
                         524-   526 P  
                                         1.357E+01 0.000E+00-4.007E-02 0.000E+00
                                         2.926E+00 0.000E+00-2.181E-01 0.000E+00
                                         7.993E-01 0.000E+00-5.129E-01 0.000E+00
                         527-   529 P  
                                         2.244E-01 0.000E+00 1.000E+00 0.000E+00
                         530-   534 D  
                                         3.118E-01 0.000E+00 0.000E+00 1.000E+00
  34 N   -6.540   0.328   8.313
  35 N   -0.328  -6.540  -8.313
  36 N    0.328   6.540  -8.313
  37 N    5.520   2.049   8.398
  38 N   -5.520  -2.049   8.398
  39 N    2.049  -5.520  -8.398
  40 N   -2.049   5.520  -8.398
  41 N    3.192  -0.362  10.867
  42 N   -3.192   0.362  10.867
  43 N   -0.362  -3.192 -10.867
  44 N    0.362   3.192 -10.867
  45 N    3.572   2.041   9.936
  46 N   -3.572  -2.041   9.936
  47 N    2.041  -3.572  -9.936
  48 N   -2.041   3.572  -9.936
  49 N   -1.612   2.448  -2.946
  50 N    1.612  -2.448  -2.946
  51 N    2.448   1.612   2.946
  52 N   -2.448  -1.612   2.946
  53 ZN  10.330   0.000 -19.887
                                801 S  
                                         8.200E+04 1.421E-03 0.000E+00 0.000E+00
                                         1.231E+04 1.089E-02 0.000E+00 0.000E+00
                                         2.801E+03 5.406E-02 0.000E+00 0.000E+00
                                         7.910E+02 1.885E-01 0.000E+00 0.000E+00
                                         2.576E+02 3.835E-01 0.000E+00 0.000E+00
                                         8.881E+01 2.972E-01 0.000E+00 0.000E+00
                                802 S  
                                         1.719E+02-1.105E-01 0.000E+00 0.000E+00
                                         2.030E+01 6.461E-01 0.000E+00 0.000E+00
                                         8.346E+00 4.422E-01 0.000E+00 0.000E+00
                                803 S  
                                         1.485E+01-2.271E-01 0.000E+00 0.000E+00
                                         2.450E+00 7.243E-01 0.000E+00 0.000E+00
                                         9.985E-01 4.484E-01 0.000E+00 0.000E+00
                                804 S  
                                         1.493E+00 1.000E+00 0.000E+00 0.000E+00
                                805 S  
                                         1.830E-01 1.000E+00 0.000E+00 0.000E+00
                         806-   808 P  
                                         1.072E+03 0.000E+00 9.277E-03 0.000E+00
                                         2.527E+02 0.000E+00 6.954E-02 0.000E+00
                                         8.010E+01 0.000E+00 2.716E-01 0.000E+00
                                         2.890E+01 0.000E+00 5.340E-01 0.000E+00
                                         1.077E+01 0.000E+00 3.450E-01 0.000E+00
                         809-   811 P  
                                         5.645E+00 0.000E+00 3.413E-01 0.000E+00
                                         2.168E+00 0.000E+00 5.639E-01 0.000E+00
                                         8.054E-01 0.000E+00 2.368E-01 0.000E+00
                         812-   814 P  
                                         2.721E-01 0.000E+00 1.000E+00 0.000E+00
                         815-   819 D  
                                         5.609E+01 0.000E+00 0.000E+00 2.959E-02
                                         1.575E+01 0.000E+00 0.000E+00 1.587E-01
                                         5.312E+00 0.000E+00 0.000E+00 3.798E-01
                                         1.774E+00 0.000E+00 0.000E+00 4.690E-01
                         820-   824 D  
                                         5.073E-01 0.000E+00 0.000E+00 1.000E+00
                         825-   831 F  
                                         2.814E+00 0.000E+00 0.000E+00 1.000E+00
                         832-   838 F  
                                         1.300E+00 0.000E+00 0.000E+00 1.000E+00
  54 ZN   0.000   0.000  13.258
  55 BR   0.280  -5.592   9.722
                                877 S  
                                         1.133E+05 1.428E-03 0.000E+00 0.000E+00
                                         1.701E+04 1.095E-02 0.000E+00 0.000E+00
                                         3.870E+03 5.442E-02 0.000E+00 0.000E+00
                                         1.093E+03 1.905E-01 0.000E+00 0.000E+00
                                         3.564E+02 3.902E-01 0.000E+00 0.000E+00
                                         1.231E+02 3.081E-01 0.000E+00 0.000E+00
                                878 S  
                                         2.367E+02-1.123E-01 0.000E+00 0.000E+00
                                         2.847E+01 6.478E-01 0.000E+00 0.000E+00
                                         1.188E+01 4.424E-01 0.000E+00 0.000E+00
                                879 S  
                                         2.127E+01-2.264E-01 0.000E+00 0.000E+00
                                         3.613E+00 7.382E-01 0.000E+00 0.000E+00
                                         1.663E+00 4.268E-01 0.000E+00 0.000E+00
                                880 S  
                                         3.641E-01 1.000E+00 0.000E+00 0.000E+00
                                881 S  
                                         1.243E-01 1.000E+00 0.000E+00 0.000E+00
                         882-   884 P  
                                         1.560E+03 0.000E+00 8.717E-03 0.000E+00
                                         3.685E+02 0.000E+00 6.624E-02 0.000E+00
                                         1.172E+02 0.000E+00 2.650E-01 0.000E+00
                                         4.265E+01 0.000E+00 5.384E-01 0.000E+00
                                         1.609E+01 0.000E+00 3.658E-01 0.000E+00
                         885-   887 P  
                                         8.635E+00 0.000E+00 3.425E-01 0.000E+00
                                         3.561E+00 0.000E+00 5.750E-01 0.000E+00
                                         1.529E+00 0.000E+00 2.433E-01 0.000E+00
                         888-   890 P  
                                         6.447E-01 0.000E+00 1.000E+00 0.000E+00
                         891-   893 P  
                                         2.103E-01 0.000E+00 1.000E+00 0.000E+00
                         894-   898 D  
                                         1.049E+02 0.000E+00 0.000E+00 2.265E-02
                                         3.028E+01 0.000E+00 0.000E+00 1.346E-01
                                         1.065E+01 0.000E+00 0.000E+00 3.647E-01
                                         3.870E+00 0.000E+00 0.000E+00 4.904E-01
                         899-   903 D  
                                         1.342E+00 0.000E+00 0.000E+00 1.000E+00
                         904-   908 D  
                                         4.101E-01 0.000E+00 0.000E+00 1.000E+00
                         909-   913 D  
                                         1.985E-01 0.000E+00 0.000E+00 1.000E+00
  56 BR  -0.280   5.592   9.722
  57 BR  -5.592  -0.280  -9.722
  58 BR   5.592   0.280  -9.722
  59 BR   0.277   7.115  -1.797
  60 BR  -0.277  -7.115  -1.797
  61 BR   7.115  -0.277   1.797
  62 BR  -7.115   0.277   1.797

 *******************************************************************************
 FINISHED BASIS SET HANDLING 
 *******************************************************************************

 INFORMATION **** SET_MPP **** PCRYSTAL CALCULATION
 INFORMATION **** READM2 **** NEW DEFAULT: FOCK/KS MATRIX MIXING SET TO 30 %
 INFORMATION **** READM2 **** NEW DEFAULT: FULL DIRECT SCF MODE
 INFORMATION **** READM2 **** NEW DEFAULT: COULOMB BIPOLAR BUFFER SET TO 32 Mb
 INFORMATION **** READM2 **** NEW DEFAULT: EXCHANGE BIPOLAR BUFFER SET TO 32 Mb

 *******************************************************************************
 NEW DEFAULT: DFT INTEGRATION GRID INCREASED TO XLGRID
 NEW DEFAULT: DIIS ACCELERATOR ACTIVE
 USE KEYWORD NODIIS TO TURN IT OFF
 *******************************************************************************

 INFORMATION **** DFTD3_INPUT **** PERFORM DISPERSION CORRECTION DFT-D3(BJ) IN THE BECKE-JOHNSON DAMPING SCHEME

 PLEASE CITE:
 (1) DFT-D3 Reference
  S. Grimme, J. Antony, S. Ehrlich, and H. Krieg, J. Chem. Phys. 132 (2010), 154104
 (2) BJ-Damping Reference
  S. Grimme, S. Ehrlich, and L. Goerigk, J. Comput. Chem. 32 (2011), 1456-1465
 (3) General DFT-D Review
  S. Grimme, A. Hansen, J. G. Brandenburg, and C. Bannwarth,
  Chem. Rev. 116 (2016), 5105-5154

 INFORMATION **** TOLINTEG **** COULOMB AND EXCHANGE SERIES TOLERANCES MODIFIED
 INFORMATION **** BIPOSIZE **** COULOMB BIPOLAR BUFFER SET TO   100000000
 INFORMATION **** MAXCYCLE **** MAX NUMBER OF SCF CYCLES SET TO          50
 *******************************************************************************
 N. OF ATOMS PER CELL        62  COULOMB OVERLAP TOL         (T1) 10**  -12
 NUMBER OF SHELLS           448  COULOMB PENETRATION TOL     (T2) 10**  -12
 NUMBER OF AO              1172  EXCHANGE OVERLAP TOL        (T3) 10**   20
 N. OF ELECTRONS PER CELL   632  EXCHANGE PSEUDO OVP (F(G))  (T4) 10**   20
 CORE ELECTRONS PER CELL    348  EXCHANGE PSEUDO OVP (P(G))  (T5) 10**   20
 N. OF SYMMETRY OPERATORS     4  POLE ORDER IN MONO ZONE                  4
 *******************************************************************************
 TYPE OF CALCULATION :  RESTRICTED CLOSED SHELL
 KOHN-SHAM HAMILTONIAN

 (EXCHANGE)[CORRELATION] FUNCTIONAL:(PERDEW-BURKE-ERNZERHOF)[PERDEW-BURKE-ERNZERHOF]


 CAPPA:IS1  3;IS2  3;IS3  3; K PTS MONK NET   6; SYMMOPS:K SPACE   8;G SPACE   4

 *******************************************************************************
 MAX NUMBER OF SCF CYCLES      50  CONVERGENCE ON DELTAP        10**-16
 WEIGHT OF F(I) IN F(I+1)      30% CONVERGENCE ON ENERGY        10**- 6
 SHRINK. FACT.(MONKH.)    3  3  3  NUMBER OF K POINTS IN THE IBZ      6
 SHRINKING FACTOR(GILAT NET)    3  NUMBER OF K POINTS(GILAT NET)      6
 *******************************************************************************
 *** K POINTS COORDINATES (OBLIQUE COORDINATES IN UNITS OF IS =  3)
   1-R(  0  0  0)   2-C(  1  0  0)   3-C(  1  1  0)   4-C(  2  1  0)
   5-C(  2  1  1)   6-C(  2  2  1)

 DIRECT LATTICE VECTORS COMPON. (A.U.)     RECIP. LATTICE VECTORS COMPON. (A.U.) 
        X            Y            Z              X            Y            Z
  -10.3301581   10.3301581   13.2581157      0.0000000    0.3041185    0.2369562
   10.3301581  -10.3301581   13.2581157      0.3041185    0.0000000    0.2369562
   10.3301581   10.3301581  -13.2581157      0.3041185    0.3041185    0.0000000

 DISK SPACE FOR EIGENVECTORS (FTN 10)    15109424 REALS

 SYMMETRY ADAPTION OF THE BLOCH FUNCTIONS ENABLED
 TTTTTTTTTTTTTTTTTTTTTTTTTTTTTT gordsh1     TELAPSE       11.86 TCPU        0.10

 MATRIX SIZE: P(G) 1956316, F(G)  978968, P(G) IRR  247143, F(G) IRR  247143
 MAX G-VECTOR INDEX FOR 1- AND 2-ELECTRON INTEGRALS  63

 TTTTTTTTTTTTTTTTTTTTTTTTTTTTTT INPUT       TELAPSE       12.08 TCPU        0.31

 NEIGHBORS OF THE NON-EQUIVALENT ATOMS

 N = NUMBER OF NEIGHBORS AT DISTANCE R
    ATOM  N     R/ANG      R/AU   NEIGHBORS (ATOM LABELS AND CELL INDICES)
   1 H    1     1.0897     2.0593   30 C    0 0 0
   1 H    1     2.1616     4.0849   17 C    0 0 0
   1 H    1     2.1650     4.0913   21 C    0 0 0
   1 H    1     2.5494     4.8177    5 H    0 0 0
   1 H    1     2.9552     5.5846   55 BR   0-1 0
   1 H    1     3.0118     5.6915   56 BR  -1-1-1

   5 H    1     1.0943     2.0680   21 C    0 0 0
   5 H    1     2.0715     3.9146   49 N    0 0 0
   5 H    1     2.1899     4.1382   30 C    0 0 0
   5 H    1     2.3882     4.5130   50 N    0 0 0
   5 H    1     2.5494     4.8177    1 H    0 0 0
   5 H    1     3.1144     5.8853    6 H    0 0 0

   9 C    1     1.4118     2.6680   17 C    0 0 0
   9 C    1     1.4136     2.6713   25 C    0 0 0
   9 C    1     1.4733     2.7841   13 C    0 0 0
   9 C    1     2.4382     4.6076   49 N    0 0 0
   9 C    1     2.4491     4.6282   30 C    0 0 0
   9 C    1     2.4833     4.6927   33 N    0-1 0

  13 C    1     1.3697     2.5883   41 N    0-1 0
  13 C    1     1.3706     2.5900   33 N    0-1 0
  13 C    1     1.4733     2.7841    9 C    0 0 0
  13 C    1     2.1911     4.1407   45 N    0-1 0
  13 C    1     2.1964     4.1507   37 N    0-1 0
  13 C    1     2.5162     4.7549   25 C    0 0 0

  17 C    1     1.3967     2.6393   30 C    0 0 0
  17 C    1     1.4118     2.6680    9 C    0 0 0
  17 C    1     1.8803     3.5533   55 BR   0-1 0
  17 C    1     2.1616     4.0849    1 H    0 0 0
  17 C    1     2.3608     4.4612   25 C    0 0 0
  17 C    1     2.3995     4.5344   21 C    0 0 0

  21 C    1     1.0943     2.0680    5 H    0 0 0
  21 C    1     1.3474     2.5462   49 N    0 0 0
  21 C    1     1.3923     2.6310   30 C    0 0 0
  21 C    1     2.1650     4.0913    1 H    0 0 0
  21 C    1     2.2964     4.3396   25 C    0 0 0
  21 C    1     2.3995     4.5344   17 C    0 0 0

  25 C    1     1.3217     2.4976   49 N    0 0 0
  25 C    1     1.4136     2.6713    9 C    0 0 0
  25 C    1     1.8971     3.5851   59 BR   0 0 0
  25 C    1     2.2964     4.3396   21 C    0 0 0
  25 C    1     2.3608     4.4612   17 C    0 0 0
  25 C    1     2.5162     4.7549   13 C    0 0 0

  29 C    1     1.0897     2.0593    2 H    0 0 0
  29 C    1     1.3923     2.6310   22 C    0 0 0
  29 C    1     1.3967     2.6393   18 C    0 0 0
  29 C    1     2.1899     4.1382    6 H    0 0 0
  29 C    1     2.3875     4.5116   50 N    0 0 0
  29 C    1     2.4491     4.6282   10 C    0 0 0

  33 N    1     1.3694     2.5877   37 N    0 0 0
  33 N    1     1.3706     2.5900   13 C    0 1 0
  33 N    1     2.1855     4.1300   45 N    0 0 0
  33 N    1     2.2017     4.1606   53 ZN   1 1 0
  33 N    1     2.2280     4.2103   41 N    0 0 0
  33 N    1     2.4833     4.6927    9 C    0 1 0

  37 N    1     1.3135     2.4821   45 N    0 0 0
  37 N    1     1.3694     2.5877   33 N    0 0 0
  37 N    1     2.1964     4.1507   13 C    0 1 0
  37 N    1     2.2025     4.1622   41 N    0 0 0
  37 N    1     2.9209     5.5197   53 ZN   1 1 0
  37 N    1     2.9597     5.5931   60 BR   1 1 1

  41 N    1     1.3697     2.5883   13 C    0 1 0
  41 N    1     1.3785     2.6050   45 N    0 0 0
  41 N    1     2.1194     4.0051   54 ZN   0 0 0
  41 N    1     2.2025     4.1622   37 N    0 0 0
  41 N    1     2.2280     4.2103   33 N    0 0 0
  41 N    1     2.5722     4.8607    9 C    0 1 0

  45 N    1     1.3135     2.4821   37 N    0 0 0
  45 N    1     1.3785     2.6050   41 N    0 0 0
  45 N    1     2.1855     4.1300   33 N    0 0 0
  45 N    1     2.1911     4.1407   13 C    0 1 0
  45 N    1     2.7741     5.2422   56 BR   0 0 0
  45 N    1     2.7981     5.2876   54 ZN   0 0 0

  49 N    1     1.3217     2.4976   25 C    0 0 0
  49 N    1     1.3474     2.5462   21 C    0 0 0
  49 N    1     2.0715     3.9146    5 H    0 0 0
  49 N    1     2.3875     4.5116   30 C    0 0 0
  49 N    1     2.3882     4.5130    6 H    0 0 0
  49 N    1     2.4382     4.6076    9 C    0 0 0

  53 ZN   4     2.2017     4.1606   33 N   -1-1 0   34 N   -1 0 1   35 N    0 0 1
                                    36 N   -1 0 0
  53 ZN   4     2.9209     5.5197   37 N   -1-1 0   38 N   -1 0 1   39 N    0 0 1
                                    40 N   -1 0 0
  53 ZN   4     3.0747     5.8103   59 BR  -1 0 0   60 BR   0 0 1   61 BR  -1-1 0
                                    62 BR  -1 0 1
  53 ZN   4     3.3999     6.4249   13 C   -1 0 0   14 C    0 0 1   15 C   -1-1 0
                                    16 C   -1 0 1
  53 ZN   4     3.7629     7.1108   25 C   -1 0 0   26 C    0 0 1   27 C   -1-1 0
                                    28 C   -1 0 1
  53 ZN   4     3.9491     7.4627    9 C   -1 0 0   10 C    0 0 1   11 C   -1-1 0
                                    12 C   -1 0 1

  54 ZN   4     2.1194     4.0051   41 N    0 0 0   42 N    0 0 0   43 N    1 1 0
                                    44 N    1 1 0
  54 ZN   4     2.7981     5.2876   45 N    0 0 0   46 N    0 0 0   47 N    1 1 0
                                    48 N    1 1 0
  54 ZN   4     3.3758     6.3793   13 C    0 1 0   14 C    1 0 0   15 C    0 0-1
                                    16 C    1 1 1
  54 ZN   4     3.5039     6.6215   55 BR   0 0 0   56 BR   0 0 0   57 BR   1 1 0
                                    58 BR   1 1 0
  54 ZN   4     4.0400     7.6345   37 N    0 0 0   38 N    0 0 0   39 N    1 1 0
                                    40 N    1 1 0
  54 ZN   4     4.1445     7.8319    9 C    0 1 0   10 C    1 0 0   11 C    0 0-1
                                    12 C    1 1 1

  55 BR   1     1.8803     3.5533   17 C    0 1 0
  55 BR   1     2.7741     5.2422   46 N    0 0 0
  55 BR   1     2.8409     5.3686   30 C    0 1 0
  55 BR   1     2.8475     5.3811    9 C    0 1 0
  55 BR   1     2.9552     5.5846    1 H    0 1 0
  55 BR   1     3.0118     5.6915    2 H    0 0-1

  59 BR   1     1.8971     3.5851   25 C    0 0 0
  59 BR   1     2.7327     5.1641   49 N    0 0 0
  59 BR   1     2.8615     5.4074    9 C    0 0 0
  59 BR   1     2.9597     5.5931   38 N    0 0 1
  59 BR   1     3.0685     5.7986   32 C    0 0 0
  59 BR   1     3.0747     5.8103   53 ZN   1 0 0


 SYMMETRY ALLOWED INTERNAL DEGREE(S) OF FREEDOM:  45
 TTTTTTTTTTTTTTTTTTTTTTTTTTTTTT SYMM        TELAPSE       12.21 TCPU        0.39
 TTTTTTTTTTTTTTTTTTTTTTTTTTTTTT INT_SCREEN  TELAPSE       12.21 TCPU        0.40
 INFORMATION **** EXCBUF **** EXCH. BIPO BUFFER: WORDS USED =           0

 DFT PARAMETERS

     ATOM       ELECTRONS   NET CHARGE   R(ANGSTROM)
   1   1  H       1.0000      0.0000     1.11000000
   9   6  C       6.0000      0.0000     0.77000000
  33   7  N       7.0000      0.0000     0.74000000
  53  30  ZN     30.0000      0.0000     1.37000000
  55  35  BR     35.0000      0.0000     1.14000000

 SIZE OF GRID=     471849
 TTTTTTTTTTTTTTTTTTTTTTTTTTTTTT MAKE_GRID2  TELAPSE       12.97 TCPU        1.15
 BECKE WEIGHT FUNCTION
 RADSAFE =     2.00
 TOLERANCES - DENSITY:10**- 6; POTENTIAL:10**- 9; GRID WGT:10**-14

 RADIAL INTEGRATION  - INTERVALS (POINTS,UPPER LIMIT):            1( 75,  4.0*R)

 ANGULAR INTEGRATION - INTERVALS (ACCURACY LEVEL [N. POINTS] UPPER LIMIT):
  1(  4[  86]   0.2)  2(  8[ 194]   0.5)  3( 12[ 350]   0.9)  4( 16[ 974]   3.5)
  5( 12[ 350]9999.0)
 TTTTTTTTTTTTTTTTTTTTTTTTTTTTTT INT_CALC    TELAPSE       13.02 TCPU        1.20
 EEEEEEEEEE INT_CALC TERMINATION  DATE 21 01 2024 TIME 21:26:39.3

 *******************************************************************************
 Z:\home\sanoj\Downloads\tmp_p\newconn.mol                                       
 CRYSTAL - SCF - TYPE OF CALCULATION :  RESTRICTED CLOSED SHELL
 *******************************************************************************

 CAPPA:IS1  3;IS2  3;IS3  3; K PTS MONK NET   6; SYMMOPS:K SPACE   8;G SPACE   4

 TTTTTTTTTTTTTTTTTTTTTTTTTTTTTT SDIK        TELAPSE       13.20 TCPU        1.38

 AAAAAAAAAAAAAAAAAAAAAAAAAAAAAAAAAAAAAAAAAAAAAAAAAAAAAAAAAAAAAAAAAAAAAAAAAAAAAAA
         ATOMIC WAVEFUNCTION(S)


 NUCLEAR CHARGE  1.0  SYMMETRY SPECIES            S
 N. ELECTRONS    1.0  NUMBER OF PRIMITIVE GTOS    4
                      NUMBER OF CONTRACTED GTOS   2
                      NUMBER OF CLOSED SHELLS     0
                      OPEN SHELL OCCUPATION       1

  ZNUC SCFIT  TOTAL HF ENERGY   KINETIC ENERGY   VIRIAL THEOREM ACCURACY
   1.0   1   -4.946643675E-01  4.917913167E-01 -2.005842012E+00  9.4E-17

 NUCLEAR CHARGE  6.0  SYMMETRY SPECIES            S    P
 N. ELECTRONS    6.0  NUMBER OF PRIMITIVE GTOS    7    4
                      NUMBER OF CONTRACTED GTOS   3    2
                      NUMBER OF CLOSED SHELLS     2    0
                      OPEN SHELL OCCUPATION       0    2

  ZNUC SCFIT  TOTAL HF ENERGY   KINETIC ENERGY   VIRIAL THEOREM ACCURACY
   6.0   6   -3.750912652E+01  3.905246519E+01 -1.960480378E+00  3.7E-06

 NUCLEAR CHARGE  7.0  SYMMETRY SPECIES            S    P
 N. ELECTRONS    7.0  NUMBER OF PRIMITIVE GTOS    7    4
                      NUMBER OF CONTRACTED GTOS   3    2
                      NUMBER OF CLOSED SHELLS     2    0
                      OPEN SHELL OCCUPATION       0    3

  ZNUC SCFIT  TOTAL HF ENERGY   KINETIC ENERGY   VIRIAL THEOREM ACCURACY
   7.0   9   -5.432196661E+01  5.425066284E+01 -2.001314339E+00  1.2E-06

 NUCLEAR CHARGE 30.0  SYMMETRY SPECIES            S    P    D
 N. ELECTRONS   30.0  NUMBER OF PRIMITIVE GTOS   14    9    5
                      NUMBER OF CONTRACTED GTOS   5    3    2
                      NUMBER OF CLOSED SHELLS     4    2    1
                      OPEN SHELL OCCUPATION       0    0    0

  ZNUC SCFIT  TOTAL HF ENERGY   KINETIC ENERGY   VIRIAL THEOREM ACCURACY
  30.0  10   -1.777404290E+03  1.777325716E+03 -2.000044209E+00  2.5E-06

 NUCLEAR CHARGE 35.0  SYMMETRY SPECIES            S    P    D
 N. ELECTRONS   35.0  NUMBER OF PRIMITIVE GTOS   14   10    7
                      NUMBER OF CONTRACTED GTOS   5    4    4
                      NUMBER OF CLOSED SHELLS     4    2    1
                      OPEN SHELL OCCUPATION       0    5    0

  ZNUC SCFIT  TOTAL HF ENERGY   KINETIC ENERGY   VIRIAL THEOREM ACCURACY
  35.0  13   -2.572060514E+03  2.572021521E+03 -2.000015161E+00  3.6E-06

 AAAAAAAAAAAAAAAAAAAAAAAAAAAAAAAAAAAAAAAAAAAAAAAAAAAAAAAAAAAAAAAAAAAAAAAAAAAAAAA

 TOTAL ATOMIC CHARGES:
   1.0000000   1.0000000   1.0000000   1.0000000   1.0000000   1.0000000
   1.0000000   1.0000000   6.0000000   6.0000000   6.0000000   6.0000000
   6.0000000   6.0000000   6.0000000   6.0000000   6.0000000   6.0000000
   6.0000000   6.0000000   6.0000000   6.0000000   6.0000000   6.0000000
   6.0000000   6.0000000   6.0000000   6.0000000   6.0000000   6.0000000
   6.0000000   6.0000000   7.0000000   7.0000000   7.0000000   7.0000000
   7.0000000   7.0000000   7.0000000   7.0000000   7.0000000   7.0000000
   7.0000000   7.0000000   7.0000000   7.0000000   7.0000000   7.0000000
   7.0000000   7.0000000   7.0000000   7.0000000  30.0000000  30.0000000
  35.0000000  35.0000000  35.0000000  35.0000000  35.0000000  35.0000000
  35.0000000  35.0000000
 TTTTTTTTTTTTTTTTTTTTTTTTTTTTTT MOQGAD      TELAPSE       14.27 TCPU        2.44
 TTTTTTTTTTTTTTTTTTTTTTTTTTTTTT SHELLXN     TELAPSE       39.12 TCPU       26.96
 TTTTTTTTTTTTTTTTTTTTTTTTTTTTTT MONMO3      TELAPSE       39.79 TCPU       27.63
 NUMERICALLY INTEGRATED DENSITY    631.9997908572
 TTTTTTTTTTTTTTTTTTTTTTTTTTTTTT NUMDFT      TELAPSE       40.40 TCPU       28.23
 CYC   0 ETOT(AU) -2.615971402789E+04 DETOT -2.62E+04 tst  0.00E+00 PX  1.00E+00
 TTTTTTTTTTTTTTTTTTTTTTTTTTTTTT DIIS        TELAPSE       40.45 TCPU       28.29
 TTTTTTTTTTTTTTTTTTTTTTTTTTTTTT FDIK        TELAPSE       65.67 TCPU       51.14
 INSULATING STATE
 TOP OF VALENCE BANDS -    BAND    316; K    4; EIG -1.2875456E-01 AU
 TOP OF VALENCE BANDS -    BAND    316; K    1; EIG -1.2947520E-01 AU
 BOTTOM OF VIRTUAL BANDS - BAND    317; K    6; EIG -9.6255777E-02 AU
 INDIRECT ENERGY BAND GAP:   0.8843 eV
 BOTTOM OF VIRTUAL BANDS - BAND    317; K    1; EIG -9.1829168E-02 AU
 TTTTTTTTTTTTTTTTTTTTTTTTTTTTTT PDIG        TELAPSE       66.46 TCPU       51.93
 TOTAL ATOMIC CHARGES:
   1.2473666   1.2473666   1.2473666   1.2473666   1.1700319   1.1700319
   1.1700319   1.1700319   6.2927678   6.2927678   6.2927678   6.2927678
   5.4742416   5.4742416   5.4742416   5.4742416   5.6386064   5.6386064
   5.6386064   5.6386064   5.7235868   5.7235868   5.7235868   5.7235868
   5.3300236   5.3300236   5.3300236   5.3300236   6.2960477   6.2960477
   6.2960477   6.2960477   7.4613378   7.4613378   7.4613378   7.4613378
   7.2161817   7.2161817   7.2161817   7.2161817   7.4444280   7.4444280
   7.4444280   7.4444280   7.1346222   7.1346222   7.1346222   7.1346222
   7.5473278   7.5473278   7.5473278   7.5473278  28.0277193  28.0270239
  34.9554051  34.9554051  34.9554051  34.9554051  35.0543394  35.0543394
  35.0543394  35.0543394
 TTTTTTTTTTTTTTTTTTTTTTTTTTTTTT MOQGAD      TELAPSE       66.49 TCPU       51.95
 TTTTTTTTTTTTTTTTTTTTTTTTTTTTTT SHELLXN     TELAPSE       97.85 TCPU       80.80
 TTTTTTTTTTTTTTTTTTTTTTTTTTTTTT MONMO3      TELAPSE       98.93 TCPU       81.88
 NUMERICALLY INTEGRATED DENSITY    631.9998172601
 TTTTTTTTTTTTTTTTTTTTTTTTTTTTTT NUMDFT      TELAPSE      100.66 TCPU       83.60
 CYC   1 ETOT(AU) -2.615491836147E+04 DETOT  4.80E+00 tst  0.00E+00 PX  1.00E+00
 TTTTTTTTTTTTTTTTTTTTTTTTTTTTTT DIIS        TELAPSE      100.85 TCPU       83.79
 DIIS TEST: 0.84289E+01 AT SCF   CYCLE   1 - MIX   30 %
 TTTTTTTTTTTTTTTTTTTTTTTTTTTTTT FDIK        TELAPSE      111.01 TCPU       91.74
 INSULATING STATE
 TOP OF VALENCE BANDS -    BAND    316; K    4; EIG -1.4706052E-01 AU
 TOP OF VALENCE BANDS -    BAND    316; K    1; EIG -1.4869998E-01 AU
 BOTTOM OF VIRTUAL BANDS - BAND    317; K    6; EIG -1.2611132E-01 AU
 INDIRECT ENERGY BAND GAP:   0.5701 eV
 BOTTOM OF VIRTUAL BANDS - BAND    317; K    1; EIG -1.2285748E-01 AU
 TTTTTTTTTTTTTTTTTTTTTTTTTTTTTT PDIG        TELAPSE      111.81 TCPU       92.53
 TOTAL ATOMIC CHARGES:
   1.2016078   1.2016078   1.2016078   1.2016078   1.1445963   1.1445963
   1.1445963   1.1445963   6.3470067   6.3470067   6.3470067   6.3470067
   6.4342923   6.4342923   6.4342923   6.4342923   6.4095802   6.4095802
   6.4095802   6.4095802   5.8982950   5.8982950   5.8982950   5.8982950
   6.4442935   6.4442935   6.4442935   6.4442935   5.9185394   5.9185394
   5.9185394   5.9185394   6.8688729   6.8688729   6.8688729   6.8688729
   6.9682108   6.9682108   6.9682108   6.9682108   6.9354597   6.9354597
   6.9354597   6.9354597   6.8570499   6.8570499   6.8570499   6.8570499
   5.8649813   5.8649813   5.8649813   5.8649813  29.4435525  29.3640386
  34.9030436  34.9030436  34.9030436  34.9030436  35.1022726  35.1022726
  35.1022726  35.1022726
 TTTTTTTTTTTTTTTTTTTTTTTTTTTTTT MOQGAD      TELAPSE      111.83 TCPU       92.55
 TTTTTTTTTTTTTTTTTTTTTTTTTTTTTT SHELLXN     TELAPSE      143.21 TCPU      121.41
 TTTTTTTTTTTTTTTTTTTTTTTTTTTTTT MONMO3      TELAPSE      144.29 TCPU      122.49
 NUMERICALLY INTEGRATED DENSITY    631.9998259522
 TTTTTTTTTTTTTTTTTTTTTTTTTTTTTT NUMDFT      TELAPSE      145.97 TCPU      124.16
 CYC   2 ETOT(AU) -2.615286344969E+04 DETOT  2.05E+00 tst  1.07E-02 PX  6.14E-01
 TTTTTTTTTTTTTTTTTTTTTTTTTTTTTT DIIS        TELAPSE      146.37 TCPU      124.56
 DIIS TEST: 0.25124E+02 AT SCF   CYCLE   2 - DIIS ACTIVE - HISTORY:     2 CYCLES
 TTTTTTTTTTTTTTTTTTTTTTTTTTTTTT FDIK        TELAPSE      155.96 TCPU      129.95
 INSULATING STATE
 TOP OF VALENCE BANDS -    BAND    316; K    4; EIG -2.2469447E-01 AU
 TOP OF VALENCE BANDS -    BAND    316; K    1; EIG -2.2930797E-01 AU
 BOTTOM OF VIRTUAL BANDS - BAND    317; K    6; EIG -1.2260291E-01 AU
 INDIRECT ENERGY BAND GAP:   2.7781 eV
 BOTTOM OF VIRTUAL BANDS - BAND    317; K    1; EIG -1.1836086E-01 AU
 TTTTTTTTTTTTTTTTTTTTTTTTTTTTTT PDIG        TELAPSE      156.75 TCPU      130.74
 TOTAL ATOMIC CHARGES:
   1.1731475   1.1731475   1.1731475   1.1731475   1.0920126   1.0920126
   1.0920126   1.0920126   5.9926510   5.9926510   5.9926510   5.9926510
   5.9646161   5.9646161   5.9646161   5.9646161   5.8802804   5.8802804
   5.8802804   5.8802804   6.1242857   6.1242857   6.1242857   6.1242857
   5.8911658   5.8911658   5.8911658   5.8911658   6.0126037   6.0126037
   6.0126037   6.0126037   7.0229001   7.0229001   7.0229001   7.0229001
   7.1174753   7.1174753   7.1174753   7.1174753   7.0353211   7.0353211
   7.0353211   7.0353211   7.0498111   7.0498111   7.0498111   7.0498111
   7.2790882   7.2790882   7.2790882   7.2790882  29.1418942  29.1710922
  34.9237345  34.9237345  34.9237345  34.9237345  34.8626602  34.8626602
  34.8626602  34.8626602
 TTTTTTTTTTTTTTTTTTTTTTTTTTTTTT MOQGAD      TELAPSE      156.77 TCPU      130.76
 TTTTTTTTTTTTTTTTTTTTTTTTTTTTTT SHELLXN     TELAPSE      187.95 TCPU      159.66
 TTTTTTTTTTTTTTTTTTTTTTTTTTTTTT MONMO3      TELAPSE      189.06 TCPU      160.76
 NUMERICALLY INTEGRATED DENSITY    631.9998321837
 TTTTTTTTTTTTTTTTTTTTTTTTTTTTTT NUMDFT      TELAPSE      190.76 TCPU      162.46
 CYC   3 ETOT(AU) -2.615596994418E+04 DETOT -3.11E+00 tst  1.22E-02 PX  2.98E-01
 TTTTTTTTTTTTTTTTTTTTTTTTTTTTTT DIIS        TELAPSE      191.12 TCPU      162.81
 DIIS TEST: 0.31301E+01 AT SCF   CYCLE   3 - DIIS ACTIVE - HISTORY:     3 CYCLES
 TTTTTTTTTTTTTTTTTTTTTTTTTTTTTT FDIK        TELAPSE      198.56 TCPU      170.07
 INSULATING STATE
 TOP OF VALENCE BANDS -    BAND    316; K    3; EIG -2.2522592E-01 AU
 TOP OF VALENCE BANDS -    BAND    316; K    1; EIG -2.2657627E-01 AU
 BOTTOM OF VIRTUAL BANDS - BAND    317; K    6; EIG -1.2447028E-01 AU
 INDIRECT ENERGY BAND GAP:   2.7417 eV
 BOTTOM OF VIRTUAL BANDS - BAND    317; K    1; EIG -1.1924511E-01 AU
 TTTTTTTTTTTTTTTTTTTTTTTTTTTTTT PDIG        TELAPSE      199.36 TCPU      170.86
 TOTAL ATOMIC CHARGES:
   1.1949020   1.1949020   1.1949020   1.1949020   1.1322144   1.1322144
   1.1322144   1.1322144   6.3075419   6.3075419   6.3075419   6.3075419
   5.8181072   5.8181072   5.8181072   5.8181072   5.9574637   5.9574637
   5.9574637   5.9574637   5.7674991   5.7674991   5.7674991   5.7674991
   5.7024209   5.7024209   5.7024209   5.7024209   6.2205492   6.2205492
   6.2205492   6.2205492   7.2682082   7.2682082   7.2682082   7.2682082
   7.1144997   7.1144997   7.1144997   7.1144997   7.2433125   7.2433125
   7.2433125   7.2433125   6.9923571   6.9923571   6.9923571   6.9923571
   6.9577629   6.9577629   6.9577629   6.9577629  28.7655832  28.7635701
  34.9306103  34.9306103  34.9306103  34.9306103  35.0102626  35.0102626
  35.0102626  35.0102626
 TTTTTTTTTTTTTTTTTTTTTTTTTTTTTT MOQGAD      TELAPSE      199.38 TCPU      170.88
 TTTTTTTTTTTTTTTTTTTTTTTTTTTTTT SHELLXN     TELAPSE      228.59 TCPU      199.79
 TTTTTTTTTTTTTTTTTTTTTTTTTTTTTT MONMO3      TELAPSE      229.65 TCPU      200.85
 NUMERICALLY INTEGRATED DENSITY    631.9998168799
 TTTTTTTTTTTTTTTTTTTTTTTTTTTTTT NUMDFT      TELAPSE      231.37 TCPU      202.56
 CYC   4 ETOT(AU) -2.615641054573E+04 DETOT -4.41E-01 tst  3.37E-03 PX  2.51E-01
 TTTTTTTTTTTTTTTTTTTTTTTTTTTTTT DIIS        TELAPSE      231.55 TCPU      202.74
 DIIS TEST: 0.68153E+00 AT SCF   CYCLE   4 - DIIS ACTIVE - HISTORY:     4 CYCLES
 TTTTTTTTTTTTTTTTTTTTTTTTTTTTTT FDIK        TELAPSE      240.21 TCPU      209.94
 INSULATING STATE
 TOP OF VALENCE BANDS -    BAND    316; K    5; EIG -2.2845176E-01 AU
 TOP OF VALENCE BANDS -    BAND    316; K    1; EIG -2.3627606E-01 AU
 BOTTOM OF VIRTUAL BANDS - BAND    317; K    6; EIG -1.2674052E-01 AU
 INDIRECT ENERGY BAND GAP:   2.7677 eV
 BOTTOM OF VIRTUAL BANDS - BAND    317; K    1; EIG -1.2190365E-01 AU
 TTTTTTTTTTTTTTTTTTTTTTTTTTTTTT PDIG        TELAPSE      241.00 TCPU      210.73
 TOTAL ATOMIC CHARGES:
   1.1978946   1.1978946   1.1978946   1.1978946   1.1212872   1.1212872
   1.1212872   1.1212872   6.2583846   6.2583846   6.2583846   6.2583846
   5.8853391   5.8853391   5.8853391   5.8853391   5.9105757   5.9105757
   5.9105757   5.9105757   5.8750105   5.8750105   5.8750105   5.8750105
   5.8629233   5.8629233   5.8629233   5.8629233   6.1123774   6.1123774
   6.1123774   6.1123774   7.1387256   7.1387256   7.1387256   7.1387256
   7.1447278   7.1447278   7.1447278   7.1447278   7.1699258   7.1699258
   7.1699258   7.1699258   7.0478742   7.0478742   7.0478742   7.0478742
   7.0342256   7.0342256   7.0342256   7.0342256  28.7545870  28.7492149
  34.9065331  34.9065331  34.9065331  34.9065331  34.9582449  34.9582449
  34.9582449  34.9582449
 TTTTTTTTTTTTTTTTTTTTTTTTTTTTTT MOQGAD      TELAPSE      241.02 TCPU      210.75
 TTTTTTTTTTTTTTTTTTTTTTTTTTTTTT SHELLXN     TELAPSE      270.23 TCPU      239.65
 TTTTTTTTTTTTTTTTTTTTTTTTTTTTTT MONMO3      TELAPSE      271.30 TCPU      240.73
 NUMERICALLY INTEGRATED DENSITY    631.9998219929
 TTTTTTTTTTTTTTTTTTTTTTTTTTTTTT NUMDFT      TELAPSE      273.02 TCPU      242.43
 CYC   5 ETOT(AU) -2.615649117547E+04 DETOT -8.06E-02 tst  3.65E-04 PX  4.66E-02
 TTTTTTTTTTTTTTTTTTTTTTTTTTTTTT DIIS        TELAPSE      273.22 TCPU      242.63
 DIIS TEST: 0.12240E+00 AT SCF   CYCLE   5 - DIIS ACTIVE - HISTORY:     5 CYCLES
 TTTTTTTTTTTTTTTTTTTTTTTTTTTTTT FDIK        TELAPSE      281.91 TCPU      249.30
 INSULATING STATE
 TOP OF VALENCE BANDS -    BAND    316; K    3; EIG -2.2835832E-01 AU
 TOP OF VALENCE BANDS -    BAND    316; K    1; EIG -2.3447228E-01 AU
 BOTTOM OF VIRTUAL BANDS - BAND    317; K    6; EIG -1.2497692E-01 AU
 INDIRECT ENERGY BAND GAP:   2.8132 eV
 BOTTOM OF VIRTUAL BANDS - BAND    317; K    1; EIG -1.1993567E-01 AU
 TTTTTTTTTTTTTTTTTTTTTTTTTTTTTT PDIG        TELAPSE      282.71 TCPU      250.09
 TOTAL ATOMIC CHARGES:
   1.1945675   1.1945675   1.1945675   1.1945675   1.1197528   1.1197528
   1.1197528   1.1197528   6.2162539   6.2162539   6.2162539   6.2162539
   5.8622294   5.8622294   5.8622294   5.8622294   5.9352355   5.9352355
   5.9352355   5.9352355   5.8800794   5.8800794   5.8800794   5.8800794
   5.7642216   5.7642216   5.7642216   5.7642216   6.1548340   6.1548340
   6.1548340   6.1548340   7.1871628   7.1871628   7.1871628   7.1871628
   7.1213749   7.1213749   7.1213749   7.1213749   7.1862455   7.1862455
   7.1862455   7.1862455   7.0260967   7.0260967   7.0260967   7.0260967
   7.0478241   7.0478241   7.0478241   7.0478241  28.7874958  28.7852262
  34.9261559  34.9261559  34.9261559  34.9261559  34.9847854  34.9847854
  34.9847854  34.9847854
 TTTTTTTTTTTTTTTTTTTTTTTTTTTTTT MOQGAD      TELAPSE      282.73 TCPU      250.11
 TTTTTTTTTTTTTTTTTTTTTTTTTTTTTT SHELLXN     TELAPSE      313.91 TCPU      278.99
 TTTTTTTTTTTTTTTTTTTTTTTTTTTTTT MONMO3      TELAPSE      315.03 TCPU      280.10
 NUMERICALLY INTEGRATED DENSITY    631.9998211382
 TTTTTTTTTTTTTTTTTTTTTTTTTTTTTT NUMDFT      TELAPSE      316.76 TCPU      281.82
 CYC   6 ETOT(AU) -2.615650825452E+04 DETOT -1.71E-02 tst  4.97E-05 PX  3.75E-02
 TTTTTTTTTTTTTTTTTTTTTTTTTTTTTT DIIS        TELAPSE      316.97 TCPU      282.04
 DIIS TEST: 0.13258E-01 AT SCF   CYCLE   6 - DIIS ACTIVE - HISTORY:     6 CYCLES
 TTTTTTTTTTTTTTTTTTTTTTTTTTTTTT FDIK        TELAPSE      326.09 TCPU      289.02
 INSULATING STATE
 TOP OF VALENCE BANDS -    BAND    316; K    3; EIG -2.2769012E-01 AU
 TOP OF VALENCE BANDS -    BAND    316; K    1; EIG -2.3436709E-01 AU
 BOTTOM OF VIRTUAL BANDS - BAND    317; K    6; EIG -1.2567924E-01 AU
 INDIRECT ENERGY BAND GAP:   2.7759 eV
 BOTTOM OF VIRTUAL BANDS - BAND    317; K    1; EIG -1.2067598E-01 AU
 TTTTTTTTTTTTTTTTTTTTTTTTTTTTTT PDIG        TELAPSE      326.89 TCPU      289.81
 TOTAL ATOMIC CHARGES:
   1.1919964   1.1919964   1.1919964   1.1919964   1.1211982   1.1211982
   1.1211982   1.1211982   6.2356827   6.2356827   6.2356827   6.2356827
   5.8661937   5.8661937   5.8661937   5.8661937   5.9179530   5.9179530
   5.9179530   5.9179530   5.8591744   5.8591744   5.8591744   5.8591744
   5.7876699   5.7876699   5.7876699   5.7876699   6.1403486   6.1403486
   6.1403486   6.1403486   7.1833353   7.1833353   7.1833353   7.1833353
   7.1281756   7.1281756   7.1281756   7.1281756   7.1851999   7.1851999
   7.1851999   7.1851999   7.0260322   7.0260322   7.0260322   7.0260322
   7.0660940   7.0660940   7.0660940   7.0660940  28.7912118  28.7901571
  34.9285348  34.9285348  34.9285348  34.9285348  34.9670692  34.9670692
  34.9670692  34.9670692
 TTTTTTTTTTTTTTTTTTTTTTTTTTTTTT MOQGAD      TELAPSE      326.91 TCPU      289.83
 TTTTTTTTTTTTTTTTTTTTTTTTTTTTTT SHELLXN     TELAPSE      356.17 TCPU      318.73
 TTTTTTTTTTTTTTTTTTTTTTTTTTTTTT MONMO3      TELAPSE      357.24 TCPU      319.80
 NUMERICALLY INTEGRATED DENSITY    631.9998211674
 TTTTTTTTTTTTTTTTTTTTTTTTTTTTTT NUMDFT      TELAPSE      358.91 TCPU      321.46
 CYC   7 ETOT(AU) -2.615650988605E+04 DETOT -1.63E-03 tst  7.79E-06 PX  7.35E-03
 TTTTTTTTTTTTTTTTTTTTTTTTTTTTTT DIIS        TELAPSE      359.11 TCPU      321.66
 DIIS TEST: 0.54682E-02 AT SCF   CYCLE   7 - DIIS ACTIVE - HISTORY:     7 CYCLES
 TTTTTTTTTTTTTTTTTTTTTTTTTTTTTT FDIK        TELAPSE      368.16 TCPU      328.43
 INSULATING STATE
 TOP OF VALENCE BANDS -    BAND    316; K    3; EIG -2.2821111E-01 AU
 TOP OF VALENCE BANDS -    BAND    316; K    1; EIG -2.3457238E-01 AU
 BOTTOM OF VIRTUAL BANDS - BAND    317; K    6; EIG -1.2553154E-01 AU
 INDIRECT ENERGY BAND GAP:   2.7941 eV
 BOTTOM OF VIRTUAL BANDS - BAND    317; K    1; EIG -1.2052605E-01 AU
 TTTTTTTTTTTTTTTTTTTTTTTTTTTTTT PDIG        TELAPSE      368.96 TCPU      329.22
 TOTAL ATOMIC CHARGES:
   1.1923381   1.1923381   1.1923381   1.1923381   1.1195885   1.1195885
   1.1195885   1.1195885   6.2239794   6.2239794   6.2239794   6.2239794
   5.8669727   5.8669727   5.8669727   5.8669727   5.9260672   5.9260672
   5.9260672   5.9260672   5.8777327   5.8777327   5.8777327   5.8777327
   5.7869387   5.7869387   5.7869387   5.7869387   6.1487500   6.1487500
   6.1487500   6.1487500   7.1705829   7.1705829   7.1705829   7.1705829
   7.1282127   7.1282127   7.1282127   7.1282127   7.1835105   7.1835105
   7.1835105   7.1835105   7.0336774   7.0336774   7.0336774   7.0336774
   7.0511131   7.0511131   7.0511131   7.0511131  28.7888506  28.7886891
  34.9248511  34.9248511  34.9248511  34.9248511  34.9712999  34.9712999
  34.9712999  34.9712999
 TTTTTTTTTTTTTTTTTTTTTTTTTTTTTT MOQGAD      TELAPSE      368.98 TCPU      329.24
 TTTTTTTTTTTTTTTTTTTTTTTTTTTTTT SHELLXN     TELAPSE      400.16 TCPU      358.14
 TTTTTTTTTTTTTTTTTTTTTTTTTTTTTT MONMO3      TELAPSE      401.27 TCPU      359.24
 NUMERICALLY INTEGRATED DENSITY    631.9998215959
 TTTTTTTTTTTTTTTTTTTTTTTTTTTTTT NUMDFT      TELAPSE      403.00 TCPU      360.96
 CYC   8 ETOT(AU) -2.615651043912E+04 DETOT -5.53E-04 tst  3.62E-06 PX  5.26E-03
 TTTTTTTTTTTTTTTTTTTTTTTTTTTTTT DIIS        TELAPSE      403.18 TCPU      361.14
 DIIS TEST: 0.15921E-02 AT SCF   CYCLE   8 - DIIS ACTIVE - HISTORY:     8 CYCLES
 TTTTTTTTTTTTTTTTTTTTTTTTTTTTTT FDIK        TELAPSE      411.84 TCPU      367.48
 INSULATING STATE
 TOP OF VALENCE BANDS -    BAND    316; K    3; EIG -2.2834622E-01 AU
 TOP OF VALENCE BANDS -    BAND    316; K    1; EIG -2.3491710E-01 AU
 BOTTOM OF VIRTUAL BANDS - BAND    317; K    6; EIG -1.2564214E-01 AU
 INDIRECT ENERGY BAND GAP:   2.7947 eV
 BOTTOM OF VIRTUAL BANDS - BAND    317; K    1; EIG -1.2066753E-01 AU
 TTTTTTTTTTTTTTTTTTTTTTTTTTTTTT PDIG        TELAPSE      412.63 TCPU      368.27
 TOTAL ATOMIC CHARGES:
   1.1929823   1.1929823   1.1929823   1.1929823   1.1195172   1.1195172
   1.1195172   1.1195172   6.2266169   6.2266169   6.2266169   6.2266169
   5.8647449   5.8647449   5.8647449   5.8647449   5.9242383   5.9242383
   5.9242383   5.9242383   5.8758038   5.8758038   5.8758038   5.8758038
   5.7854204   5.7854204   5.7854204   5.7854204   6.1445352   6.1445352
   6.1445352   6.1445352   7.1839536   7.1839536   7.1839536   7.1839536
   7.1281398   7.1281398   7.1281398   7.1281398   7.1822370   7.1822370
   7.1822370   7.1822370   7.0244380   7.0244380   7.0244380   7.0244380
   7.0557477   7.0557477   7.0557477   7.0557477  28.7903107  28.7879191
  34.9233937  34.9233937  34.9233937  34.9233937  34.9736738  34.9736738
  34.9736738  34.9736738
 TTTTTTTTTTTTTTTTTTTTTTTTTTTTTT MOQGAD      TELAPSE      412.65 TCPU      368.29
 TTTTTTTTTTTTTTTTTTTTTTTTTTTTTT SHELLXN     TELAPSE      443.84 TCPU      397.11
 TTTTTTTTTTTTTTTTTTTTTTTTTTTTTT MONMO3      TELAPSE      444.99 TCPU      398.26
 NUMERICALLY INTEGRATED DENSITY    631.9998214399
 TTTTTTTTTTTTTTTTTTTTTTTTTTTTTT NUMDFT      TELAPSE      446.67 TCPU      399.92
 CYC   9 ETOT(AU) -2.615651054143E+04 DETOT -1.02E-04 tst  1.06E-06 PX  3.26E-03
 TTTTTTTTTTTTTTTTTTTTTTTTTTTTTT DIIS        TELAPSE      446.83 TCPU      400.09
 DIIS TEST: 0.82145E-03 AT SCF   CYCLE   9 - DIIS ACTIVE - HISTORY:     9 CYCLES
 TTTTTTTTTTTTTTTTTTTTTTTTTTTTTT FDIK        TELAPSE      455.65 TCPU      406.54
 INSULATING STATE
 TOP OF VALENCE BANDS -    BAND    316; K    3; EIG -2.2815440E-01 AU
 TOP OF VALENCE BANDS -    BAND    316; K    1; EIG -2.3461920E-01 AU
 BOTTOM OF VIRTUAL BANDS - BAND    317; K    6; EIG -1.2559858E-01 AU
 INDIRECT ENERGY BAND GAP:   2.7907 eV
 BOTTOM OF VIRTUAL BANDS - BAND    317; K    1; EIG -1.2058586E-01 AU
 TTTTTTTTTTTTTTTTTTTTTTTTTTTTTT PDIG        TELAPSE      456.44 TCPU      407.33
 TOTAL ATOMIC CHARGES:
   1.1927733   1.1927733   1.1927733   1.1927733   1.1199195   1.1199195
   1.1199195   1.1199195   6.2275297   6.2275297   6.2275297   6.2275297
   5.8650766   5.8650766   5.8650766   5.8650766   5.9244240   5.9244240
   5.9244240   5.9244240   5.8728218   5.8728218   5.8728218   5.8728218
   5.7837220   5.7837220   5.7837220   5.7837220   6.1450395   6.1450395
   6.1450395   6.1450395   7.1764593   7.1764593   7.1764593   7.1764593
   7.1251790   7.1251790   7.1251790   7.1251790   7.1866458   7.1866458
   7.1866458   7.1866458   7.0307559   7.0307559   7.0307559   7.0307559
   7.0573698   7.0573698   7.0573698   7.0573698  28.7900726  28.7890009
  34.9253355  34.9253355  34.9253355  34.9253355  34.9721799  34.9721799
  34.9721799  34.9721799
 TTTTTTTTTTTTTTTTTTTTTTTTTTTTTT MOQGAD      TELAPSE      456.46 TCPU      407.35
 TTTTTTTTTTTTTTTTTTTTTTTTTTTTTT SHELLXN     TELAPSE      487.72 TCPU      436.20
 TTTTTTTTTTTTTTTTTTTTTTTTTTTTTT MONMO3      TELAPSE      488.75 TCPU      437.23
 NUMERICALLY INTEGRATED DENSITY    631.9998213397
 TTTTTTTTTTTTTTTTTTTTTTTTTTTTTT NUMDFT      TELAPSE      490.45 TCPU      438.91
 CYC  10 ETOT(AU) -2.615651062979E+04 DETOT -8.84E-05 tst  3.86E-07 PX  1.79E-03
 TTTTTTTTTTTTTTTTTTTTTTTTTTTTTT DIIS        TELAPSE      490.65 TCPU      439.11
 DIIS TEST: 0.26115E-03 AT SCF   CYCLE  10 - DIIS ACTIVE - HISTORY:    10 CYCLES
 TTTTTTTTTTTTTTTTTTTTTTTTTTTTTT FDIK        TELAPSE      499.63 TCPU      447.90
 INSULATING STATE
 TOP OF VALENCE BANDS -    BAND    316; K    3; EIG -2.2820626E-01 AU
 TOP OF VALENCE BANDS -    BAND    316; K    1; EIG -2.3465548E-01 AU
 BOTTOM OF VIRTUAL BANDS - BAND    317; K    6; EIG -1.2557893E-01 AU
 INDIRECT ENERGY BAND GAP:   2.7926 eV
 BOTTOM OF VIRTUAL BANDS - BAND    317; K    1; EIG -1.2058004E-01 AU
 TTTTTTTTTTTTTTTTTTTTTTTTTTTTTT PDIG        TELAPSE      500.42 TCPU      448.69
 TOTAL ATOMIC CHARGES:
   1.1925290   1.1925290   1.1925290   1.1925290   1.1198640   1.1198640
   1.1198640   1.1198640   6.2261687   6.2261687   6.2261687   6.2261687
   5.8660062   5.8660062   5.8660062   5.8660062   5.9247123   5.9247123
   5.9247123   5.9247123   5.8730145   5.8730145   5.8730145   5.8730145
   5.7850911   5.7850911   5.7850911   5.7850911   6.1464414   6.1464414
   6.1464414   6.1464414   7.1775113   7.1775113   7.1775113   7.1775113
   7.1291548   7.1291548   7.1291548   7.1291548   7.1822346   7.1822346
   7.1822346   7.1822346   7.0292032   7.0292032   7.0292032   7.0292032
   7.0564820   7.0564820   7.0564820   7.0564820  28.7899423  28.7887757
  34.9254221  34.9254221  34.9254221  34.9254221  34.9714853  34.9714853
  34.9714853  34.9714853
 TTTTTTTTTTTTTTTTTTTTTTTTTTTTTT MOQGAD      TELAPSE      500.44 TCPU      448.71
 TTTTTTTTTTTTTTTTTTTTTTTTTTTTTT SHELLXN     TELAPSE      529.65 TCPU      477.58
 TTTTTTTTTTTTTTTTTTTTTTTTTTTTTT MONMO3      TELAPSE      530.79 TCPU      478.72
 NUMERICALLY INTEGRATED DENSITY    631.9998214332
 TTTTTTTTTTTTTTTTTTTTTTTTTTTTTT NUMDFT      TELAPSE      532.52 TCPU      480.44
 CYC  11 ETOT(AU) -2.615651065456E+04 DETOT -2.48E-05 tst  1.15E-07 PX  1.08E-03
 TTTTTTTTTTTTTTTTTTTTTTTTTTTTTT DIIS        TELAPSE      532.69 TCPU      480.61
 DIIS TEST: 0.64296E-04 AT SCF   CYCLE  11 - DIIS ACTIVE - HISTORY:    11 CYCLES
 TTTTTTTTTTTTTTTTTTTTTTTTTTTTTT FDIK        TELAPSE      539.90 TCPU      487.65
 INSULATING STATE
 TOP OF VALENCE BANDS -    BAND    316; K    3; EIG -2.2821152E-01 AU
 TOP OF VALENCE BANDS -    BAND    316; K    1; EIG -2.3469666E-01 AU
 BOTTOM OF VIRTUAL BANDS - BAND    317; K    6; EIG -1.2563190E-01 AU
 INDIRECT ENERGY BAND GAP:   2.7913 eV
 BOTTOM OF VIRTUAL BANDS - BAND    317; K    1; EIG -1.2063381E-01 AU
 TTTTTTTTTTTTTTTTTTTTTTTTTTTTTT PDIG        TELAPSE      540.69 TCPU      488.44
 TOTAL ATOMIC CHARGES:
   1.1925764   1.1925764   1.1925764   1.1925764   1.1197919   1.1197919
   1.1197919   1.1197919   6.2265184   6.2265184   6.2265184   6.2265184
   5.8656394   5.8656394   5.8656394   5.8656394   5.9240416   5.9240416
   5.9240416   5.9240416   5.8745304   5.8745304   5.8745304   5.8745304
   5.7852827   5.7852827   5.7852827   5.7852827   6.1454615   6.1454615
   6.1454615   6.1454615   7.1786730   7.1786730   7.1786730   7.1786730
   7.1258324   7.1258324   7.1258324   7.1258324   7.1853826   7.1853826
   7.1853826   7.1853826   7.0287671   7.0287671   7.0287671   7.0287671
   7.0558850   7.0558850   7.0558850   7.0558850  28.7895379  28.7882237
  34.9251701  34.9251701  34.9251701  34.9251701  34.9720070  34.9720070
  34.9720070  34.9720070
 TTTTTTTTTTTTTTTTTTTTTTTTTTTTTT MOQGAD      TELAPSE      540.71 TCPU      488.47
 TTTTTTTTTTTTTTTTTTTTTTTTTTTTTT SHELLXN     TELAPSE      572.36 TCPU      517.32
 TTTTTTTTTTTTTTTTTTTTTTTTTTTTTT MONMO3      TELAPSE      573.41 TCPU      518.37
 NUMERICALLY INTEGRATED DENSITY    631.9998214257
 TTTTTTTTTTTTTTTTTTTTTTTTTTTTTT NUMDFT      TELAPSE      575.13 TCPU      520.08
 CYC  12 ETOT(AU) -2.615651065870E+04 DETOT -4.14E-06 tst  9.59E-08 PX  8.40E-04
 TTTTTTTTTTTTTTTTTTTTTTTTTTTTTT DIIS        TELAPSE      575.32 TCPU      520.27
 DIIS TEST: 0.41479E-04 AT SCF   CYCLE  12 - DIIS ACTIVE - HISTORY:    12 CYCLES
 TTTTTTTTTTTTTTTTTTTTTTTTTTTTTT FDIK        TELAPSE      584.05 TCPU      526.91
 INSULATING STATE
 TOP OF VALENCE BANDS -    BAND    316; K    3; EIG -2.2821367E-01 AU
 TOP OF VALENCE BANDS -    BAND    316; K    1; EIG -2.3469154E-01 AU
 BOTTOM OF VIRTUAL BANDS - BAND    317; K    6; EIG -1.2558875E-01 AU
 INDIRECT ENERGY BAND GAP:   2.7926 eV
 BOTTOM OF VIRTUAL BANDS - BAND    317; K    1; EIG -1.2058876E-01 AU
 TTTTTTTTTTTTTTTTTTTTTTTTTTTTTT PDIG        TELAPSE      584.84 TCPU      527.70
 TOTAL ATOMIC CHARGES:
   1.1927074   1.1927074   1.1927074   1.1927074   1.1198660   1.1198660
   1.1198660   1.1198660   6.2270198   6.2270198   6.2270198   6.2270198
   5.8653834   5.8653834   5.8653834   5.8653834   5.9244812   5.9244812
   5.9244812   5.9244812   5.8735213   5.8735213   5.8735213   5.8735213
   5.7846089   5.7846089   5.7846089   5.7846089   6.1455450   6.1455450
   6.1455450   6.1455450   7.1777875   7.1777875   7.1777875   7.1777875
   7.1275681   7.1275681   7.1275681   7.1275681   7.1838006   7.1838006
[...]
 TTTTTTTTTTTTTTTTTTTTTTTTTTTTTT MOQGAD      TELAPSE    44149.98 TCPU    43740.19
 TTTTTTTTTTTTTTTTTTTTTTTTTTTTTT CP_MONMON   TELAPSE    44158.64 TCPU    43748.82
 DIIS TEST: 0.37493E+00 AT CPHF  CYCLE   6 - DIIS ACTIVE - HISTORY:     6 CYCLES
 CYCLE   6   ALPHA 1501.981154  EPSILON    4.335175  DELTA    2.1206E+00
 TTTTTTTTTTTTTTTTTTTTTTTTTTTTTT MOQGAD      TELAPSE    44619.43 TCPU    44206.10
 TTTTTTTTTTTTTTTTTTTTTTTTTTTTTT CP_MONMON   TELAPSE    44628.10 TCPU    44214.74
 DIIS TEST: 0.36050E-01 AT CPHF  CYCLE   7 - DIIS ACTIVE - HISTORY:     7 CYCLES
 CYCLE   7   ALPHA 1503.166713  EPSILON    4.337807  DELTA    1.1856E+00
 TTTTTTTTTTTTTTTTTTTTTTTTTTTTTT MOQGAD      TELAPSE    45091.68 TCPU    44673.81
 TTTTTTTTTTTTTTTTTTTTTTTTTTTTTT CP_MONMON   TELAPSE    45100.33 TCPU    44682.44
 DIIS TEST: 0.15346E-01 AT CPHF  CYCLE   8 - DIIS ACTIVE - HISTORY:     8 CYCLES
 CYCLE   8   ALPHA 1503.399416  EPSILON    4.338324  DELTA    2.3270E-01
 TTTTTTTTTTTTTTTTTTTTTTTTTTTTTT MOQGAD      TELAPSE    45559.60 TCPU    45138.00
 TTTTTTTTTTTTTTTTTTTTTTTTTTTTTT CP_MONMON   TELAPSE    45568.25 TCPU    45146.62
 DIIS TEST: 0.45167E-03 AT CPHF  CYCLE   9 - DIIS ACTIVE - HISTORY:     9 CYCLES
 CYCLE   9   ALPHA 1503.318080  EPSILON    4.338144  DELTA   -8.1336E-02
 TTTTTTTTTTTTTTTTTTTTTTTTTTTTTT MOQGAD      TELAPSE    46029.75 TCPU    45604.82
 TTTTTTTTTTTTTTTTTTTTTTTTTTTTTT CP_MONMON   TELAPSE    46038.40 TCPU    45613.44
 DIIS TEST: 0.18834E-03 AT CPHF  CYCLE  10 - DIIS ACTIVE - HISTORY:    10 CYCLES
 CYCLE  10   ALPHA 1503.292748  EPSILON    4.338087  DELTA   -2.5332E-02
 TTTTTTTTTTTTTTTTTTTTTTTTTTTTTT MOQGAD      TELAPSE    46495.65 TCPU    46067.74
 TTTTTTTTTTTTTTTTTTTTTTTTTTTTTT CP_MONMON   TELAPSE    46504.31 TCPU    46076.37
 DIIS TEST: 0.18830E-04 AT CPHF  CYCLE  11 - DIIS ACTIVE - HISTORY:    11 CYCLES
 CYCLE  11   ALPHA 1503.270292  EPSILON    4.338037  DELTA   -2.2455E-02
 TTTTTTTTTTTTTTTTTTTTTTTTTTTTTT MOQGAD      TELAPSE    46965.54 TCPU    46534.00
 TTTTTTTTTTTTTTTTTTTTTTTTTTTTTT CP_MONMON   TELAPSE    46974.19 TCPU    46542.62
 DIIS TEST: 0.24767E-05 AT CPHF  CYCLE  12 - DIIS ACTIVE - HISTORY:    12 CYCLES
 CYCLE  12   ALPHA 1503.264722  EPSILON    4.338025  DELTA   -5.5705E-03
 TTTTTTTTTTTTTTTTTTTTTTTTTTTTTT MOQGAD      TELAPSE    47437.29 TCPU    47001.35
 TTTTTTTTTTTTTTTTTTTTTTTTTTTTTT CP_MONMON   TELAPSE    47445.94 TCPU    47009.96
 DIIS TEST: 0.23503E-06 AT CPHF  CYCLE  13 - DIIS ACTIVE - HISTORY:    13 CYCLES
 CYCLE  13   ALPHA 1503.263230  EPSILON    4.338022  DELTA   -1.4915E-03
 TTTTTTTTTTTTTTTTTTTTTTTTTTTTTT MOQGAD      TELAPSE    47904.79 TCPU    47464.96
 TTTTTTTTTTTTTTTTTTTTTTTTTTTTTT CP_MONMON   TELAPSE    47913.44 TCPU    47473.58
 DIIS TEST: 0.32032E-07 AT CPHF  CYCLE  14 - DIIS ACTIVE - HISTORY:    14 CYCLES
 CYCLE  14   ALPHA 1503.262611  EPSILON    4.338020  DELTA   -6.1950E-04
 TTTTTTTTTTTTTTTTTTTTTTTTTTTTTT CP_SC       TELAPSE    47957.36 TCPU    47515.69

 *******************************************************************************

 ELECTRIC FIELD APPLIED ALONG CARTESIAN DIRECTION Z

 *******************************************************************************
 THE NUMBER OF SYMMETRY OPERATORS HAS BEEN REDUCED FROM  4 TO  1

 NEW GRID IN RECIPROCAL SPACE
 *******************************************************************************
 POINTS IN THE IBZ                  14 SHRINKING FACTORS               3  3  3
 *******************************************************************************
 *** K POINTS COORDINATES (OBLIQUE COORDINATES IN UNITS OF SHRINK FAC. )
   1-R(  0  0  0)   2-C(  1  0  0)   3-C(  0  1  2)   4-C(  2  0  1)
   5-C(  0  2  0)   6-C(  1  1  0)   7-C(  1  1  1)   8-C(  1  0  1)
   9-C(  0  1  1)  10-C(  2  1  0)  11-C(  0  0  2)  12-C(  2  1  1)
  13-C(  2  1  2)  14-C(  2  2  1)

 GCALCO - MAX INDICES DIRECT LATTICE VECTOR    14    14    16
 NO.OF VECTORS CREATED 6999 STARS  481 RMAX   211.88695 BOHR
 TTTTTTTTTTTTTTTTTTTTTTTTTTTTTT gordsh1     TELAPSE    47976.43 TCPU    47534.44

 MATRIX SIZE: P(G) 1956316, F(G)  978968, P(G) IRR  980806, F(G) IRR  980806
 MAX G-VECTOR INDEX FOR 1- AND 2-ELECTRON INTEGRALS  63

 TTTTTTTTTTTTTTTTTTTTTTTTTTTTTT INPUT       TELAPSE    47992.34 TCPU    47550.30
 TTTTTTTTTTTTTTTTTTTTTTTTTTTTTT SYMM        TELAPSE    47992.34 TCPU    47550.30

 ***** NEW REFERENCE GEOMETRY *****
 TTTTTTTTTTTTTTTTTTTTTTTTTTTTTT INT_SCREEN  TELAPSE    47992.36 TCPU    47550.31
 INFORMATION **** EXCBUF **** EXCH. BIPO BUFFER: WORDS USED =           0

 DFT PARAMETERS

     ATOM       ELECTRONS   NET CHARGE   R(ANGSTROM)
   1   1  H       1.0000      0.0000     1.11000000
   9   6  C       6.0000      0.0000     0.77000000
  33   7  N       7.0000      0.0000     0.74000000
  53  30  ZN     30.0000      0.0000     1.37000000
  55  35  BR     35.0000      0.0000     1.14000000

 SIZE OF GRID=    1887166
 TTTTTTTTTTTTTTTTTTTTTTTTTTTTTT MAKE_GRID2  TELAPSE    47993.60 TCPU    47551.55
 BECKE WEIGHT FUNCTION
 RADSAFE =     2.00
 TOLERANCES - DENSITY:10**- 6; POTENTIAL:10**- 9; GRID WGT:10**-14

 RADIAL INTEGRATION  - INTERVALS (POINTS,UPPER LIMIT):            1( 75,  4.0*R)

 ANGULAR INTEGRATION - INTERVALS (ACCURACY LEVEL [N. POINTS] UPPER LIMIT):
  1(  4[  86]   0.2)  2(  8[ 194]   0.5)  3( 12[ 350]   0.9)  4( 16[ 974]   3.5)
  5( 12[ 350]9999.0)
 TTTTTTTTTTTTTTTTTTTTTTTTTTTTTT INT_CALC    TELAPSE    47993.66 TCPU    47551.61
 CYCLE   0   ALPHA  970.647866  EPSILON    3.155340  DELTA    9.7065E+02
 TTTTTTTTTTTTTTTTTTTTTTTTTTTTTT MOQGAD      TELAPSE    48429.00 TCPU    47984.56
 TTTTTTTTTTTTTTTTTTTTTTTTTTTTTT CP_MONMON   TELAPSE    48437.64 TCPU    47993.18
 DIIS TEST: 0.16826E+03 AT CPHF  CYCLE   1 - MIX    0 %
 CYCLE   1   ALPHA  358.542238  EPSILON    1.796149  DELTA   -6.1211E+02
 TTTTTTTTTTTTTTTTTTTTTTTTTTTTTT MOQGAD      TELAPSE    48881.17 TCPU    48433.36
 TTTTTTTTTTTTTTTTTTTTTTTTTTTTTT CP_MONMON   TELAPSE    48889.81 TCPU    48441.97
 DIIS TEST: 0.17019E+04 AT CPHF  CYCLE   2 - DIIS ACTIVE - HISTORY:     2 CYCLES
 CYCLE   2   ALPHA  687.037617  EPSILON    2.525579  DELTA    3.2850E+02
 TTTTTTTTTTTTTTTTTTTTTTTTTTTTTT MOQGAD      TELAPSE    49329.24 TCPU    48877.95
 TTTTTTTTTTTTTTTTTTTTTTTTTTTTTT CP_MONMON   TELAPSE    49337.91 TCPU    48886.57
 DIIS TEST: 0.37469E+02 AT CPHF  CYCLE   3 - DIIS ACTIVE - HISTORY:     3 CYCLES
 CYCLE   3   ALPHA  743.303540  EPSILON    2.650518  DELTA    5.6266E+01
 TTTTTTTTTTTTTTTTTTTTTTTTTTTTTT MOQGAD      TELAPSE    49779.65 TCPU    49324.21
 TTTTTTTTTTTTTTTTTTTTTTTTTTTTTT CP_MONMON   TELAPSE    49788.31 TCPU    49332.83
 DIIS TEST: 0.92412E+01 AT CPHF  CYCLE   4 - DIIS ACTIVE - HISTORY:     4 CYCLES
 CYCLE   4   ALPHA  746.716602  EPSILON    2.658097  DELTA    3.4131E+00
 TTTTTTTTTTTTTTTTTTTTTTTTTTTTTT MOQGAD      TELAPSE    50231.01 TCPU    49772.19
 TTTTTTTTTTTTTTTTTTTTTTTTTTTTTT CP_MONMON   TELAPSE    50239.66 TCPU    49780.81
 DIIS TEST: 0.81276E+00 AT CPHF  CYCLE   5 - DIIS ACTIVE - HISTORY:     5 CYCLES
 CYCLE   5   ALPHA  747.474294  EPSILON    2.659779  DELTA    7.5769E-01
 TTTTTTTTTTTTTTTTTTTTTTTTTTTTTT MOQGAD      TELAPSE    50682.53 TCPU    50220.33
 TTTTTTTTTTTTTTTTTTTTTTTTTTTTTT CP_MONMON   TELAPSE    50691.18 TCPU    50228.94
 DIIS TEST: 0.57717E-01 AT CPHF  CYCLE   6 - DIIS ACTIVE - HISTORY:     6 CYCLES
 CYCLE   6   ALPHA  748.181220  EPSILON    2.661349  DELTA    7.0693E-01
 TTTTTTTTTTTTTTTTTTTTTTTTTTTTTT MOQGAD      TELAPSE    51133.75 TCPU    50668.10
 TTTTTTTTTTTTTTTTTTTTTTTTTTTTTT CP_MONMON   TELAPSE    51142.40 TCPU    50676.71
 DIIS TEST: 0.17926E-01 AT CPHF  CYCLE   7 - DIIS ACTIVE - HISTORY:     7 CYCLES
 CYCLE   7   ALPHA  748.206980  EPSILON    2.661406  DELTA    2.5760E-02
 TTTTTTTTTTTTTTTTTTTTTTTTTTTTTT MOQGAD      TELAPSE    51585.29 TCPU    51116.17
 TTTTTTTTTTTTTTTTTTTTTTTTTTTTTT CP_MONMON   TELAPSE    51593.97 TCPU    51124.82
 DIIS TEST: 0.29989E-02 AT CPHF  CYCLE   8 - DIIS ACTIVE - HISTORY:     8 CYCLES
 CYCLE   8   ALPHA  748.242105  EPSILON    2.661484  DELTA    3.5125E-02
 TTTTTTTTTTTTTTTTTTTTTTTTTTTTTT MOQGAD      TELAPSE    52042.76 TCPU    51568.28
 TTTTTTTTTTTTTTTTTTTTTTTTTTTTTT CP_MONMON   TELAPSE    52051.41 TCPU    51576.90
 DIIS TEST: 0.47284E-03 AT CPHF  CYCLE   9 - DIIS ACTIVE - HISTORY:     9 CYCLES
 CYCLE   9   ALPHA  748.215063  EPSILON    2.661424  DELTA   -2.7042E-02
 TTTTTTTTTTTTTTTTTTTTTTTTTTTTTT MOQGAD      TELAPSE    52498.26 TCPU    52020.53
 TTTTTTTTTTTTTTTTTTTTTTTTTTTTTT CP_MONMON   TELAPSE    52506.93 TCPU    52029.16
 DIIS TEST: 0.37746E-04 AT CPHF  CYCLE  10 - DIIS ACTIVE - HISTORY:    10 CYCLES
 CYCLE  10   ALPHA  748.205052  EPSILON    2.661402  DELTA   -1.0011E-02
 TTTTTTTTTTTTTTTTTTTTTTTTTTTTTT MOQGAD      TELAPSE    52949.30 TCPU    52467.91
 TTTTTTTTTTTTTTTTTTTTTTTTTTTTTT CP_MONMON   TELAPSE    52957.96 TCPU    52476.54
 DIIS TEST: 0.43525E-05 AT CPHF  CYCLE  11 - DIIS ACTIVE - HISTORY:    11 CYCLES
 CYCLE  11   ALPHA  748.201284  EPSILON    2.661394  DELTA   -3.7678E-03
 TTTTTTTTTTTTTTTTTTTTTTTTTTTTTT MOQGAD      TELAPSE    53400.88 TCPU    52916.05
 TTTTTTTTTTTTTTTTTTTTTTTTTTTTTT CP_MONMON   TELAPSE    53409.52 TCPU    52924.66
 DIIS TEST: 0.86495E-06 AT CPHF  CYCLE  12 - DIIS ACTIVE - HISTORY:    12 CYCLES
 CYCLE  12   ALPHA  748.199457  EPSILON    2.661390  DELTA   -1.8273E-03
 TTTTTTTTTTTTTTTTTTTTTTTTTTTTTT MOQGAD      TELAPSE    53853.96 TCPU    53365.68
 TTTTTTTTTTTTTTTTTTTTTTTTTTTTTT CP_MONMON   TELAPSE    53862.61 TCPU    53374.29
 DIIS TEST: 0.13303E-06 AT CPHF  CYCLE  13 - DIIS ACTIVE - HISTORY:    13 CYCLES
 CYCLE  13   ALPHA  748.199287  EPSILON    2.661389  DELTA   -1.7005E-04
 TTTTTTTTTTTTTTTTTTTTTTTTTTTTTT CP_SC       TELAPSE    53899.26 TCPU    53408.96

 *******************************************************************************

 POLARIZABILITY (ALPHA), DIELECTRIC (EPSILON) AND FIRST-ORDER ELECTRIC
 SUSCEPTIBILITY (CHI(1)) TENSORS (INDEPENDENT COMPONENTS)

  FR.(eV) COMP.   ALPHA(Re,Im)           EPSILON(Re,Im)                CHI(1)
  2.331   XX    1503.2624       0.0000       4.3380       0.0000       3.3380
  2.331   XY      -0.0009       0.0000      -0.0000       0.0000      -0.0000
  2.331   XZ       0.0000       0.0000       0.0000       0.0000       0.0000
  2.331   YY    1503.2626       0.0000       4.3380       0.0000       3.3380
  2.331   YZ      -0.0000       0.0000      -0.0000       0.0000      -0.0000
  2.331   ZZ     748.1993       0.0000       2.6614       0.0000       1.6614

 DIELECTRIC TENSOR

 TENSOR IN PRINCIPAL AXES SYSTEM
 AA  4.338018E+00 BB  4.338022E+00 CC  2.661389E+00

 REFRACTIVE INDICES 
 AA  1.631377E+00 BB  2.082791E+00 CC  2.082792E+00

 OPTICALLY ANISOTROPIC - UNIAXIAL CRYSTAL

 BIREFRINGENCE =  0.4514 (NEGATIVE) - OBLATE OPTICAL ELLIPSOID

 EPSILON=N**2=1+CHI(1)=1+ALPHA*4*PI/V,   4*PI/V=   0.00222 BOHR**(-3)
 ALPHA IN BOHR**3; EPSILON AND CHI(1) ARE DIMENSIONLESS.
 *******************************************************************************


  Pockels Effect beta(-omega;omega,0) with omega=   1.1653 eV


 SIZE OF GRID=    1887166
 TTTTTTTTTTTTTTTTTTTTTTTTTTTTTT MAKE_GRID2  TELAPSE    54102.96 TCPU    53611.53
 BECKE WEIGHT FUNCTION
 RADSAFE =     2.00
 TOLERANCES - DENSITY:10**- 6; POTENTIAL:10**- 9; GRID WGT:10**-14

 RADIAL INTEGRATION  - INTERVALS (POINTS,UPPER LIMIT):            1( 75,  4.0*R)

 ANGULAR INTEGRATION - INTERVALS (ACCURACY LEVEL [N. POINTS] UPPER LIMIT):
  1(  4[  86]   0.2)  2(  8[ 194]   0.5)  3( 12[ 350]   0.9)  4( 16[ 974]   3.5)
  5( 12[ 350]9999.0)

 SIZE OF GRID=    1887166
 TTTTTTTTTTTTTTTTTTTTTTTTTTTTTT MAKE_GRID2  TELAPSE    54105.52 TCPU    53613.84
 BECKE WEIGHT FUNCTION
 RADSAFE =     2.00
 TOLERANCES - DENSITY:10**- 6; POTENTIAL:10**- 9; GRID WGT:10**-14

 RADIAL INTEGRATION  - INTERVALS (POINTS,UPPER LIMIT):            1( 75,  4.0*R)

 ANGULAR INTEGRATION - INTERVALS (ACCURACY LEVEL [N. POINTS] UPPER LIMIT):
  1(  4[  86]   0.2)  2(  8[ 194]   0.5)  3( 12[ 350]   0.9)  4( 16[ 974]   3.5)
  5( 12[ 350]9999.0)
 *******************************************************************************

 DC-POCKELS AND SECOND ELECTRIC SUSCEPTIBILITY (CHI(2))
 TENSORS (INDEPENDENT COMPONENTS)

BETA                                         CHI(2)       d(MKS)       d(cgs)
 *******************************************************************************

     XXX          0.1979E-03   0.2198E-06   0.2137E-06   0.5098E-08
     XXY         -0.5728E-03  -0.6359E-06  -0.6184E-06  -0.1475E-07
     XXZ         -0.1030E+03  -0.1144E+00  -0.1112E+00  -0.2653E-02
     XYX         -0.2898E-03  -0.3218E-06  -0.3129E-06  -0.7465E-08
     XYY         -0.4520E-03  -0.5018E-06  -0.4880E-06  -0.1164E-07
     XYZ         -0.1533E+04  -0.1702E+01  -0.1655E+01  -0.3948E-01
     XZX         -0.9705E+02  -0.1078E+00  -0.1048E+00  -0.2500E-02
     XZY         -0.1511E+04  -0.1678E+01  -0.1632E+01  -0.3893E-01
     XZZ         -0.7890E-03  -0.8760E-06  -0.8518E-06  -0.2032E-07
     YXX         -0.1607E-03  -0.1784E-06  -0.1735E-06  -0.4139E-08
     YXY         -0.3259E-03  -0.3618E-06  -0.3518E-06  -0.8393E-08
     YXZ         -0.1533E+04  -0.1702E+01  -0.1655E+01  -0.3948E-01
     YYX         -0.2379E-03  -0.2642E-06  -0.2569E-06  -0.6128E-08
     YYY          0.8007E-03   0.8890E-06   0.8644E-06   0.2062E-07
     YYZ          0.1030E+03   0.1144E+00   0.1112E+00   0.2653E-02
     YZX         -0.1511E+04  -0.1678E+01  -0.1632E+01  -0.3893E-01
     YZY          0.9705E+02   0.1078E+00   0.1048E+00   0.2500E-02
     YZZ          0.4595E-03   0.5102E-06   0.4961E-06   0.1184E-07
     ZXX         -0.9793E+02  -0.1087E+00  -0.1057E+00  -0.2522E-02
     ZXY         -0.1512E+04  -0.1678E+01  -0.1632E+01  -0.3893E-01
     ZXZ         -0.6547E-03  -0.7269E-06  -0.7068E-06  -0.1686E-07
     ZYX         -0.1512E+04  -0.1678E+01  -0.1632E+01  -0.3893E-01
     ZYY          0.9794E+02   0.1087E+00   0.1057E+00   0.2522E-02
     ZYZ          0.4672E-03   0.5187E-06   0.5044E-06   0.1203E-07
     ZZX         -0.4721E-03  -0.5242E-06  -0.5097E-06  -0.1216E-07
     ZZY         -0.2725E-04  -0.3025E-07  -0.2941E-07  -0.7017E-09
     ZZZ         -0.6918E-02  -0.7680E-05  -0.7468E-05  -0.1782E-06
 *******************************************************************************
 CHI(2) = BETA*2PI/V

 BETA AND CHI(2) IN A.U.:    [BETA] = M**(-1/2) L**(7/2) T
                             [CHI(2)] = 1/F
                             (L=LENGTH, M=MASS, T=TIME, F=FIELD INTENSITY)

 ELECTRIC SUSCEPTIBILITY IN THE SECOND HARMONIC GENERATION (SHG) CONVENTION IS:
                   d(A.U.)= 1/2 CHI(2)
                   d(MKS) = d(A.U.)/0.514220632 pm/V
                   d(CGS) = d(A.U.)/(4PI*1.7152535)  10**(-7) esu

 FIELD INTENSITY: 1 A.U. = 0.514220632*10**(11) V/m = 1.7152535*10**7 esu
 BEWARE:                CHI(2)=P/(E0*F**2)   (MKS)
                        CHI(2)=P/F**2        (CGS)
 WHERE P IS THE POLARIZATION VECTOR AND F IS THE APPLIED ELECTRIC FIELD.
 CONSISTENCY IS  PRESERVED BY MULTIPLYING THE CGS VALUE TIMES THE PERMITTIVITY
 OF THE VACUUM, E0 (CONVERSION FACTORS FROM www.physics.nist.gov/constants).
 IN PARENTHESIS: BETA BEFORE SYMMETRIZATION.

  SHG Effect beta(-2omega;omega,omega) with omega=   1.1653 eV


 SIZE OF GRID=    1887166
 TTTTTTTTTTTTTTTTTTTTTTTTTTTTTT MAKE_GRID2  TELAPSE    54388.08 TCPU    53895.52
 BECKE WEIGHT FUNCTION
 RADSAFE =     2.00
 TOLERANCES - DENSITY:10**- 6; POTENTIAL:10**- 9; GRID WGT:10**-14

 RADIAL INTEGRATION  - INTERVALS (POINTS,UPPER LIMIT):            1( 75,  4.0*R)

 ANGULAR INTEGRATION - INTERVALS (ACCURACY LEVEL [N. POINTS] UPPER LIMIT):
  1(  4[  86]   0.2)  2(  8[ 194]   0.5)  3( 12[ 350]   0.9)  4( 16[ 974]   3.5)
  5( 12[ 350]9999.0)

 SIZE OF GRID=    1887166
 TTTTTTTTTTTTTTTTTTTTTTTTTTTTTT MAKE_GRID2  TELAPSE    54389.50 TCPU    53896.93
 BECKE WEIGHT FUNCTION
 RADSAFE =     2.00
 TOLERANCES - DENSITY:10**- 6; POTENTIAL:10**- 9; GRID WGT:10**-14

 RADIAL INTEGRATION  - INTERVALS (POINTS,UPPER LIMIT):            1( 75,  4.0*R)

 ANGULAR INTEGRATION - INTERVALS (ACCURACY LEVEL [N. POINTS] UPPER LIMIT):
  1(  4[  86]   0.2)  2(  8[ 194]   0.5)  3( 12[ 350]   0.9)  4( 16[ 974]   3.5)
  5( 12[ 350]9999.0)
 *******************************************************************************

 SECOND HARMONIC GENERATION (SHG)  AND SECOND ELECTRIC SUSCEPTIBILITY (CHI(2))
 TENSORS (INDEPENDENT COMPONENTS)

BETA                                         CHI(2)       d(MKS)       d(cgs)
 *******************************************************************************

     XXX          0.2970E-03   0.3297E-06   0.3206E-06   0.7649E-08
     XXY         -0.9073E-03  -0.1007E-05  -0.9795E-06  -0.2337E-07
     XXZ          0.1992E+03   0.2212E+00   0.2151E+00   0.5131E-02
     XYX         -0.9073E-03  -0.1007E-05  -0.9795E-06  -0.2337E-07
     XYY         -0.5960E-03  -0.6617E-06  -0.6434E-06  -0.1535E-07
     XYZ         -0.2475E+04  -0.2748E+01  -0.2672E+01  -0.6374E-01
     XZX          0.1992E+03   0.2212E+00   0.2151E+00   0.5131E-02
     XZY         -0.2475E+04  -0.2748E+01  -0.2672E+01  -0.6374E-01
     XZZ         -0.1065E-02  -0.1182E-05  -0.1149E-05  -0.2742E-07
     YXX         -0.7302E-03  -0.8107E-06  -0.7883E-06  -0.1881E-07
     YXY         -0.5087E-03  -0.5648E-06  -0.5492E-06  -0.1310E-07
     YXZ         -0.2475E+04  -0.2748E+01  -0.2672E+01  -0.6374E-01
     YYX         -0.5087E-03  -0.5648E-06  -0.5492E-06  -0.1310E-07
     YYY          0.1439E-02   0.1598E-05   0.1554E-05   0.3707E-07
     YYZ         -0.1992E+03  -0.2212E+00  -0.2150E+00  -0.5130E-02
     YZX         -0.2475E+04  -0.2748E+01  -0.2672E+01  -0.6374E-01
     YZY         -0.1992E+03  -0.2212E+00  -0.2150E+00  -0.5130E-02
     YZZ          0.5579E-03   0.6194E-06   0.6023E-06   0.1437E-07
     ZXX          0.1856E+03   0.2061E+00   0.2004E+00   0.4781E-02
     ZXY         -0.2361E+04  -0.2621E+01  -0.2548E+01  -0.6079E-01
     ZXZ         -0.7166E-03  -0.7957E-06  -0.7737E-06  -0.1846E-07
     ZYX         -0.2361E+04  -0.2621E+01  -0.2548E+01  -0.6079E-01
     ZYY         -0.1856E+03  -0.2061E+00  -0.2004E+00  -0.4780E-02
     ZYZ          0.4610E-03   0.5118E-06   0.4977E-06   0.1187E-07
     ZZX         -0.7166E-03  -0.7957E-06  -0.7737E-06  -0.1846E-07
     ZZY          0.4610E-03   0.5118E-06   0.4977E-06   0.1187E-07
     ZZZ         -0.1063E-01  -0.1180E-04  -0.1147E-04  -0.2737E-06
 *******************************************************************************
 CHI(2) = BETA*2PI/V

 BETA AND CHI(2) IN A.U.:    [BETA] = M**(-1/2) L**(7/2) T
                             [CHI(2)] = 1/F
                             (L=LENGTH, M=MASS, T=TIME, F=FIELD INTENSITY)

 ELECTRIC SUSCEPTIBILITY IN THE SECOND HARMONIC GENERATION (SHG) CONVENTION IS:
                   d(A.U.)= 1/2 CHI(2)
                   d(MKS) = d(A.U.)/0.514220632 pm/V
                   d(CGS) = d(A.U.)/(4PI*1.7152535)  10**(-7) esu

 FIELD INTENSITY: 1 A.U. = 0.514220632*10**(11) V/m = 1.7152535*10**7 esu
 BEWARE:                CHI(2)=P/(E0*F**2)   (MKS)
                        CHI(2)=P/F**2        (CGS)
 WHERE P IS THE POLARIZATION VECTOR AND F IS THE APPLIED ELECTRIC FIELD.
 CONSISTENCY IS  PRESERVED BY MULTIPLYING THE CGS VALUE TIMES THE PERMITTIVITY
 OF THE VACUUM, E0 (CONVERSION FACTORS FROM www.physics.nist.gov/constants).
 IN PARENTHESIS: BETA BEFORE SYMMETRIZATION.

 *******************************************************************************


 GCALCO - MAX INDICES DIRECT LATTICE VECTOR    14    14    16
 NO.OF VECTORS CREATED 6999 STARS  481 RMAX   211.88695 BOHR

 CAPPA:IS1  3;IS2  3;IS3  3; K PTS MONK NET   6; SYMMOPS:K SPACE   8;G SPACE   4

 TTTTTTTTTTTTTTTTTTTTTTTTTTTTTT END         TELAPSE    54389.69 TCPU    53897.12
 EEEEEEEEEE TERMINATION  DATE 22 01 2024 TIME 12:32:55.9
NODE    0 CPU TIME =     53897.116
    TOTAL CPU TIME =   3450680.590
trying normal rsh (/usr/bin/rsh)
exec: No such file or directory
trying normal rsh (/usr/bin/rsh)
exec: No such file or directory
trying normal rsh (/usr/bin/rsh)
exec: No such file or directory
trying normal rsh (/usr/bin/rsh)
exec: No such file or directory
