Loading crystal17/1.0.2/intel/19.0
  Loading requirement: intel/19.0 ompi/4.0.1/intel/19.0
          64 PROCESSORS WORKING

         
 *******************************************************************************
 *                                                                             *
 *                               CRYSTAL17                                     *
 *                      public : 1.0.2 - March 1st, 2018                       *
 *                       HTTP://WWW.CRYSTAL.UNITO.IT                           *
 *                                                                             *
 *                              MAIN AUTHORS                                   *
 *                                                                             *
 *  R. DOVESI(1,11), V.R. SAUNDERS(2), C. ROETTI(1,11), R. ORLANDO(1,11),      *
 *  C.M. ZICOVICH-WILSON(1,3), F. PASCALE(4), B. CIVALLERI(1,11),              *
 *  K. DOLL(5), N.M. HARRISON(2,6), I.J. BUSH(7), Ph. D'ARCO(8),               *
 *  M. LLUNELL(9), M. CAUSA'(10), Y. NOEL(8), L. MASCHIO(1,11), A. ERBA(1,11)  *
 *  M. RE'RAT(14), S. CASASSA(1,11)                                            *
 *                                                                             *
 *        CONTRIBUTIONS TO THE CODE HAVE ALSO BEEN GIVEN BY                    *
 *                                                                             *
 *  M. FERRABONE(1,11), M. DE LA PIERRE(1,11), M. FERRERO(1,11),               *
 *  J. BAIMA(1,11), E. ALBANESE(1,11), M.F. PEINTINGER(12), R. BAST(13),       *
 *  B. KIRTMAN(15), V. LACIVITA(1,11), R. DEMICHELIS(1,16)                     *
 *  G. BRANDEBURG(17), S. SALUSTRO(1,11), G. SANSONE(1,11)                     *
 *  M.T. RUGGIERO(18)                                                          *
 *                                                                             *
 * (1) THEORETICAL CHEMISTRY GROUP - UNIVERSITA' DI TORINO - TORINO (ITALY)    *
 * (2) COMPUTATIONAL SCIENCE & ENGINEERING DEPARTMENT - STFC DARESBURY (UK)    *
 * (3) UNIVERSIDAD AUTONOMA DEL ESTADO DE MORELOS - CUERNAVACA (MEXICO)        *
 * (4) UNIVERSITE' DE LORRAINE - NANCY (FRANCE)                                *
 * (5) UNIVERSITAET STUTTGART- STUTTGART (GERMANY)                             *
 * (6) IMPERIAL COLLEGE - LONDON (UK)                                          *
 * (7) OXFORD E-RESEARCH CENTRE - OXFORD (UK)                                  *
 * (8) UPMC - SORBONNE UNIVERSITES - PARIS (FRANCE)                            *
 * (9) UNIVERSIDAD DE BARCELONA - BARCELONA (SPAIN)                            *
 *(10) UNIVERSITA' DI NAPOLI "FEDERICO II" - NAPOLI (ITALY)                    *
 *(11) NIS - NANOSTRUCTURED INTERFACES AND SURFACES - TORINO (ITALY)           *
 *(12) MPI FUER CHEMISCHE ENERGIEKONVERSION - MUELHEIM AN DER RUHR (GERMANY)   *
 *(13) UNIVERSITY OF TROMSO - TROMSO (NORWAY)                                  *
 *(14) UNIVERSITE' DE PAU ET DES PAYS DE L'ADOUR - PAU (FRANCE)                *
 *(15) UNIVERSITY OF CALIFORNIA SANTA BARBARA - SANTA BARBARA (USA)            *
 *(16) CURTIN UNIVERSITY - PERTH (AUSTRALIA)                                   *
 *(17) UNIVERSITY COLLEGE LONDON - LONDON (UK)                                 *
 *(18) CAMBRIDGE UNIVERSITY - CAMBRIDGE (UK)                                   *
 *                                                                             *
 *******************************************************************************
 EEEEEEEEEE STARTING  DATE 21 01 2024 TIME 21:28:08.5
 Z:\home\sanoj\Downloads\tmp_p\newconn.mol                                       

 CRYSTAL CALCULATION
 (INPUT ACCORDING TO THE INTERNATIONAL TABLES FOR X-RAY CRYSTALLOGRAPHY)
 CRYSTAL FAMILY                       :  TETRAGONAL  
 CRYSTAL CLASS  (GROTH - 1921)        :  TETRAGONAL DISPHENOIDAL              

 SPACE GROUP (NONCENTROSYMMETRIC)     :  I -4            

 LATTICE PARAMETERS  (ANGSTROMS AND DEGREES) - CONVENTIONAL CELL
        A           B           C        ALPHA        BETA       GAMMA
    10.95459    10.95459    13.85293    90.00000    90.00000    90.00000


 NUMBER OF IRREDUCIBLE ATOMS IN THE CONVENTIONAL CELL:   17

 INPUT COORDINATES

 ATOM AT. N.              COORDINATES
   1   1     5.020000000000E-02  7.759200000000E-01  3.596300000000E-01
   2   1     7.902000000000E-02  5.486100000000E-01  3.475100000000E-01
   3   6     2.437600000000E-01  8.100000000000E-01  3.822100000000E-01
   4   6     2.353400000000E-01 -5.807000000000E-02  3.711900000000E-01
   5   6     1.407900000000E-01  7.351200000000E-01  3.679700000000E-01
   6   6     2.744900000000E-01  5.616400000000E-01  3.686700000000E-01
   7   6     3.553700000000E-01  7.494100000000E-01  3.959500000000E-01
   8   6     8.440100000000E-01  3.906100000000E-01  3.601700000000E-01
   9   7     3.102900000000E-01  1.215000000000E-02  3.154800000000E-01
  10   7     2.603100000000E-01  1.273700000000E-01  3.164800000000E-01
  11   7     1.435400000000E-01  1.191000000000E-02  4.068600000000E-01
  12   7     1.609000000000E-01  1.277600000000E-01  3.706100000000E-01
  13   7     3.713100000000E-01  6.302500000000E-01  3.894800000000E-01
  14  30     0.000000000000E+00  5.000000000000E-01  7.500000000000E-01
  15  30     0.000000000000E+00  0.000000000000E+00  5.000000000000E-01
  16  35     4.959900000000E-01  8.430300000000E-01  4.271000000000E-01
  17  35     3.000000000000E-01  3.922900000000E-01  3.551600000000E-01

 *******************************************************************************

 << INFORMATION >>: FROM NOW ON, ALL COORDINATES REFER TO THE PRIMITIVE CELL

 *******************************************************************************

 LATTICE PARAMETERS  (ANGSTROMS AND DEGREES) - PRIMITIVE CELL
       A          B          C        ALPHA      BETA     GAMMA        VOLUME
   10.39122   10.39122   10.39122   116.37948 116.37948  96.39438    831.196655

 COORDINATES OF THE EQUIVALENT ATOMS (FRACTIONAL UNITS)

 N. ATOM EQUIV AT. N.          X                  Y                  Z

   1   1   1    1 H     1.35550000000E-01  4.09830000000E-01 -1.73880000000E-01
   2   1   2    1 H    -4.16290000000E-01  3.09430000000E-01  1.73880000000E-01
   3   1   3    1 H    -4.09830000000E-01  4.16290000000E-01 -2.74280000000E-01
   4   1   4    1 H    -3.09430000000E-01 -1.35550000000E-01  2.74280000000E-01

   5   2   1    1 H    -1.03880000000E-01  4.26530000000E-01 -3.72370000000E-01
   6   2   2    1 H    -2.01100000000E-01  2.68490000000E-01  3.72370000000E-01
   7   2   3    1 H    -4.26530000000E-01  2.01100000000E-01  4.69590000000E-01
   8   2   4    1 H    -2.68490000000E-01  1.03880000000E-01 -4.69590000000E-01

   9   3   1    6 C     1.92210000000E-01 -3.74030000000E-01  5.37600000000E-02
  10   3   2    6 C    -4.27790000000E-01  1.38450000000E-01 -5.37600000000E-02
  11   3   3    6 C     3.74030000000E-01  4.27790000000E-01 -4.33760000000E-01
  12   3   4    6 C    -1.38450000000E-01 -1.92210000000E-01  4.33760000000E-01

  13   4   1    6 C     3.13120000000E-01 -3.93470000000E-01  1.77270000000E-01
  14   4   2    6 C     4.29260000000E-01  1.35850000000E-01 -1.77270000000E-01
  15   4   3    6 C     3.93470000000E-01 -4.29260000000E-01 -2.93410000000E-01
  16   4   4    6 C    -1.35850000000E-01 -3.13120000000E-01  2.93410000000E-01

  17   5   1    6 C     1.03090000000E-01 -4.91240000000E-01 -1.24090000000E-01
  18   5   2    6 C    -3.67150000000E-01  2.27180000000E-01  1.24090000000E-01
  19   5   3    6 C     4.91240000000E-01  3.67150000000E-01 -4.05670000000E-01
  20   5   4    6 C    -2.27180000000E-01 -1.03090000000E-01  4.05670000000E-01

  21   6   1    6 C    -6.96900000000E-02 -3.56840000000E-01 -1.63870000000E-01
  22   6   2    6 C    -1.92970000000E-01  9.41800000000E-02  1.63870000000E-01
  23   6   3    6 C     3.56840000000E-01  1.92970000000E-01  2.87150000000E-01
  24   6   4    6 C    -9.41800000000E-02  6.96900000000E-02 -2.87150000000E-01

  25   7   1    6 C     1.45360000000E-01 -2.48680000000E-01  1.04780000000E-01
  26   7   2    6 C    -3.53460000000E-01  4.05800000000E-02 -1.04780000000E-01
  27   7   3    6 C     2.48680000000E-01  3.53460000000E-01  3.94040000000E-01
  28   7   4    6 C    -4.05800000000E-02 -1.45360000000E-01 -3.94040000000E-01

  29   8   1    6 C    -2.49220000000E-01  2.04180000000E-01  2.34620000000E-01
  30   8   2    6 C    -3.04400000000E-02 -4.83840000000E-01 -2.34620000000E-01
  31   8   3    6 C    -2.04180000000E-01  3.04400000000E-02 -4.53400000000E-01
  32   8   4    6 C     4.83840000000E-01  2.49220000000E-01  4.53400000000E-01

  33   9   1    7 N     3.27630000000E-01 -3.74230000000E-01  3.22440000000E-01
  34   9   2    7 N     3.03330000000E-01  5.19000000000E-03 -3.22440000000E-01
  35   9   3    7 N     3.74230000000E-01 -3.03330000000E-01 -2.98140000000E-01
  36   9   4    7 N    -5.19000000000E-03 -3.27630000000E-01  2.98140000000E-01

  37  10   1    7 N     4.43850000000E-01 -4.23210000000E-01  3.87680000000E-01
  38  10   2    7 N     1.89110000000E-01  5.61700000000E-02 -3.87680000000E-01
  39  10   3    7 N     4.23210000000E-01 -1.89110000000E-01 -1.32940000000E-01
  40  10   4    7 N    -5.61700000000E-02 -4.43850000000E-01  1.32940000000E-01

  41  11   1    7 N     4.18770000000E-01 -4.49600000000E-01  1.55450000000E-01
  42  11   2    7 N     3.94950000000E-01  2.63320000000E-01 -1.55450000000E-01
  43  11   3    7 N     4.49600000000E-01 -3.94950000000E-01 -1.31630000000E-01
  44  11   4    7 N    -2.63320000000E-01 -4.18770000000E-01  1.31630000000E-01

  45  12   1    7 N     4.98370000000E-01 -4.68490000000E-01  2.88660000000E-01
  46  12   2    7 N     2.42850000000E-01  2.09710000000E-01 -2.88660000000E-01
  47  12   3    7 N     4.68490000000E-01 -2.42850000000E-01 -3.31400000000E-02
  48  12   4    7 N    -2.09710000000E-01 -4.98370000000E-01  3.31400000000E-02

  49  13   1    7 N     1.97300000000E-02 -2.39210000000E-01  1.56000000000E-03
  50  13   2    7 N    -2.40770000000E-01  1.81700000000E-02 -1.56000000000E-03
  51  13   3    7 N     2.39210000000E-01  2.40770000000E-01  2.58940000000E-01
  52  13   4    7 N    -1.81700000000E-02 -1.97300000000E-02 -2.58940000000E-01

  53  14   1   30 ZN    2.50000000000E-01 -2.50000000000E-01 -5.00000000000E-01

  54  15   1   30 ZN   -5.00000000000E-01 -5.00000000000E-01  0.00000000000E+00

  55  16   1   35 BR    2.70130000000E-01 -7.69100000000E-02  3.39020000000E-01
  56  16   2   35 BR   -4.15930000000E-01 -6.88900000000E-02 -3.39020000000E-01
  57  16   3   35 BR    7.69100000000E-02  4.15930000000E-01  3.47040000000E-01
  58  16   4   35 BR    6.88900000000E-02 -2.70130000000E-01 -3.47040000000E-01

  59  17   1   35 BR   -2.52550000000E-01 -3.44840000000E-01 -3.07710000000E-01
  60  17   2   35 BR   -3.71300000000E-02  5.51600000000E-02  3.07710000000E-01
  61  17   3   35 BR    3.44840000000E-01  3.71300000000E-02  9.22900000000E-02
  62  17   4   35 BR   -5.51600000000E-02  2.52550000000E-01 -9.22900000000E-02

 NUMBER OF SYMMETRY OPERATORS         :    4
 *******************************************************************************
 * GEOMETRY EDITING - INPUT COORDINATES ARE GIVEN IN ANGSTROM         
 *******************************************************************************

 GEOMETRY NOW FULLY CONSISTENT WITH THE GROUP

 GCALCO - MAX INDICES DIRECT LATTICE VECTOR    14    14    16
 NO.OF VECTORS CREATED 6999 STARS  482 RMAX   211.17670 BOHR

 GEOMETRY FOR WAVE FUNCTION - DIMENSIONALITY OF THE SYSTEM    3
 (NON PERIODIC DIRECTION: LATTICE PARAMETER FORMALLY SET TO 500)
 *******************************************************************************
 LATTICE PARAMETERS (ANGSTROMS AND DEGREES) - BOHR = 0.5291772083 ANGSTROM
 PRIMITIVE CELL - CENTRING CODE 6/0 VOLUME=   831.196655 - DENSITY  2.668 g/cm^3
         A              B              C           ALPHA      BETA       GAMMA 
    10.39121847    10.39121847    10.39121847   116.379477 116.379477  96.394376
 *******************************************************************************
 ATOMS IN THE ASYMMETRIC UNIT   17 - ATOMS IN THE UNIT CELL:   62
     ATOM                 X/A                 Y/B                 Z/C    
 *******************************************************************************
      1 T   1 H     1.355500000000E-01  4.098300000000E-01 -1.738800000000E-01
      2 F   1 H    -4.162900000000E-01  3.094300000000E-01  1.738800000000E-01
      3 F   1 H    -4.098300000000E-01  4.162900000000E-01 -2.742800000000E-01
      4 F   1 H    -3.094300000000E-01 -1.355500000000E-01  2.742800000000E-01
      5 T   1 H    -1.038800000000E-01  4.265300000000E-01 -3.723700000000E-01
      6 F   1 H    -2.011000000000E-01  2.684900000000E-01  3.723700000000E-01
      7 F   1 H    -4.265300000000E-01  2.011000000000E-01  4.695900000000E-01
      8 F   1 H    -2.684900000000E-01  1.038800000000E-01 -4.695900000000E-01
      9 T   6 C     1.922100000000E-01 -3.740300000000E-01  5.376000000000E-02
     10 F   6 C    -4.277900000000E-01  1.384500000000E-01 -5.376000000000E-02
     11 F   6 C     3.740300000000E-01  4.277900000000E-01 -4.337600000000E-01
     12 F   6 C    -1.384500000000E-01 -1.922100000000E-01  4.337600000000E-01
     13 T   6 C     3.131200000000E-01 -3.934700000000E-01  1.772700000000E-01
     14 F   6 C     4.292600000000E-01  1.358500000000E-01 -1.772700000000E-01
     15 F   6 C     3.934700000000E-01 -4.292600000000E-01 -2.934100000000E-01
     16 F   6 C    -1.358500000000E-01 -3.131200000000E-01  2.934100000000E-01
     17 T   6 C     1.030900000000E-01 -4.912400000000E-01 -1.240900000000E-01
     18 F   6 C    -3.671500000000E-01  2.271800000000E-01  1.240900000000E-01
     19 F   6 C     4.912400000000E-01  3.671500000000E-01 -4.056700000000E-01
     20 F   6 C    -2.271800000000E-01 -1.030900000000E-01  4.056700000000E-01
     21 T   6 C    -6.969000000000E-02 -3.568400000000E-01 -1.638700000000E-01
     22 F   6 C    -1.929700000000E-01  9.418000000000E-02  1.638700000000E-01
     23 F   6 C     3.568400000000E-01  1.929700000000E-01  2.871500000000E-01
     24 F   6 C    -9.418000000000E-02  6.969000000000E-02 -2.871500000000E-01
     25 T   6 C     1.453600000000E-01 -2.486800000000E-01  1.047800000000E-01
     26 F   6 C    -3.534600000000E-01  4.058000000000E-02 -1.047800000000E-01
     27 F   6 C     2.486800000000E-01  3.534600000000E-01  3.940400000000E-01
     28 F   6 C    -4.058000000000E-02 -1.453600000000E-01 -3.940400000000E-01
     29 T   6 C    -2.492200000000E-01  2.041800000000E-01  2.346200000000E-01
     30 F   6 C    -3.044000000000E-02 -4.838400000000E-01 -2.346200000000E-01
     31 F   6 C    -2.041800000000E-01  3.044000000000E-02 -4.534000000000E-01
     32 F   6 C     4.838400000000E-01  2.492200000000E-01  4.534000000000E-01
     33 T   7 N     3.276300000000E-01 -3.742300000000E-01  3.224400000000E-01
     34 F   7 N     3.033300000000E-01  5.190000000000E-03 -3.224400000000E-01
     35 F   7 N     3.742300000000E-01 -3.033300000000E-01 -2.981400000000E-01
     36 F   7 N    -5.190000000000E-03 -3.276300000000E-01  2.981400000000E-01
     37 T   7 N     4.438500000000E-01 -4.232100000000E-01  3.876800000000E-01
     38 F   7 N     1.891100000000E-01  5.617000000000E-02 -3.876800000000E-01
     39 F   7 N     4.232100000000E-01 -1.891100000000E-01 -1.329400000000E-01
     40 F   7 N    -5.617000000000E-02 -4.438500000000E-01  1.329400000000E-01
     41 T   7 N     4.187700000000E-01 -4.496000000000E-01  1.554500000000E-01
     42 F   7 N     3.949500000000E-01  2.633200000000E-01 -1.554500000000E-01
     43 F   7 N     4.496000000000E-01 -3.949500000000E-01 -1.316300000000E-01
     44 F   7 N    -2.633200000000E-01 -4.187700000000E-01  1.316300000000E-01
     45 T   7 N     4.983700000000E-01 -4.684900000000E-01  2.886600000000E-01
     46 F   7 N     2.428500000000E-01  2.097100000000E-01 -2.886600000000E-01
     47 F   7 N     4.684900000000E-01 -2.428500000000E-01 -3.314000000000E-02
     48 F   7 N    -2.097100000000E-01 -4.983700000000E-01  3.314000000000E-02
     49 T   7 N     1.973000000000E-02 -2.392100000000E-01  1.560000000000E-03
     50 F   7 N    -2.407700000000E-01  1.817000000000E-02 -1.560000000000E-03
     51 F   7 N     2.392100000000E-01  2.407700000000E-01  2.589400000000E-01
     52 F   7 N    -1.817000000000E-02 -1.973000000000E-02 -2.589400000000E-01
     53 T  30 ZN    2.500000000000E-01 -2.500000000000E-01 -5.000000000000E-01
     54 T  30 ZN    5.000000000000E-01 -5.000000000000E-01  0.000000000000E+00
     55 T  35 BR    2.701300000000E-01 -7.691000000000E-02  3.390200000000E-01
     56 F  35 BR   -4.159300000000E-01 -6.889000000000E-02 -3.390200000000E-01
     57 F  35 BR    7.691000000000E-02  4.159300000000E-01  3.470400000000E-01
     58 F  35 BR    6.889000000000E-02 -2.701300000000E-01 -3.470400000000E-01
     59 T  35 BR   -2.525500000000E-01 -3.448400000000E-01 -3.077100000000E-01
     60 F  35 BR   -3.713000000000E-02  5.516000000000E-02  3.077100000000E-01
     61 F  35 BR    3.448400000000E-01  3.713000000000E-02  9.229000000000E-02
     62 F  35 BR   -5.516000000000E-02  2.525500000000E-01 -9.229000000000E-02

 TRANSFORMATION MATRIX PRIMITIVE-CRYSTALLOGRAPHIC CELL
  0.0000  1.0000  1.0000  1.0000  0.0000  1.0000  1.0000  1.0000  0.0000

 *******************************************************************************
 CRYSTALLOGRAPHIC CELL (VOLUME=       1662.39331008)
         A              B              C           ALPHA      BETA       GAMMA 
    10.95458881    10.95458881    13.85292942    90.000000  90.000000  90.000000

 COORDINATES IN THE CRYSTALLOGRAPHIC CELL
     ATOM                 X/A                 Y/B                 Z/C    
 *******************************************************************************
      1 T   1 H     5.020000000000E-02 -2.240800000000E-01  3.596300000000E-01
      2 F   1 H    -5.020000000000E-02  2.240800000000E-01  3.596300000000E-01
      3 F   1 H    -2.240800000000E-01 -5.020000000000E-02 -3.596300000000E-01
      4 F   1 H     2.240800000000E-01  5.020000000000E-02 -3.596300000000E-01
      5 T   1 H    -4.209800000000E-01  4.861000000000E-02 -1.524900000000E-01
      6 F   1 H     4.209800000000E-01 -4.861000000000E-02 -1.524900000000E-01
      7 F   1 H     4.861000000000E-02  4.209800000000E-01  1.524900000000E-01
      8 F   1 H    -4.861000000000E-02 -4.209800000000E-01  1.524900000000E-01
      9 T   6 C    -2.562400000000E-01  3.100000000000E-01 -1.177900000000E-01
     10 F   6 C     2.562400000000E-01 -3.100000000000E-01 -1.177900000000E-01
     11 F   6 C     3.100000000000E-01  2.562400000000E-01  1.177900000000E-01
     12 F   6 C    -3.100000000000E-01 -2.562400000000E-01  1.177900000000E-01
     13 T   6 C     2.353400000000E-01 -5.807000000000E-02  3.711900000000E-01
     14 F   6 C    -2.353400000000E-01  5.807000000000E-02  3.711900000000E-01
     15 F   6 C    -5.807000000000E-02 -2.353400000000E-01 -3.711900000000E-01
     16 F   6 C     5.807000000000E-02  2.353400000000E-01 -3.711900000000E-01
     17 T   6 C    -3.592100000000E-01  2.351200000000E-01 -1.320300000000E-01
     18 F   6 C     3.592100000000E-01 -2.351200000000E-01 -1.320300000000E-01
     19 F   6 C     2.351200000000E-01  3.592100000000E-01  1.320300000000E-01
     20 F   6 C    -2.351200000000E-01 -3.592100000000E-01  1.320300000000E-01
     21 T   6 C    -2.255100000000E-01  6.164000000000E-02 -1.313300000000E-01
     22 F   6 C     2.255100000000E-01 -6.164000000000E-02 -1.313300000000E-01
     23 F   6 C     6.164000000000E-02  2.255100000000E-01  1.313300000000E-01
     24 F   6 C    -6.164000000000E-02 -2.255100000000E-01  1.313300000000E-01
     25 T   6 C    -1.446300000000E-01  2.494100000000E-01 -1.040500000000E-01
     26 F   6 C     1.446300000000E-01 -2.494100000000E-01 -1.040500000000E-01
     27 F   6 C     2.494100000000E-01  1.446300000000E-01  1.040500000000E-01
     28 F   6 C    -2.494100000000E-01 -1.446300000000E-01  1.040500000000E-01
     29 T   6 C     3.440100000000E-01 -1.093900000000E-01 -1.398300000000E-01
     30 F   6 C    -3.440100000000E-01  1.093900000000E-01 -1.398300000000E-01
     31 F   6 C    -1.093900000000E-01 -3.440100000000E-01  1.398300000000E-01
     32 F   6 C     1.093900000000E-01  3.440100000000E-01  1.398300000000E-01
     33 T   7 N     3.102900000000E-01  1.215000000000E-02  3.154800000000E-01
     34 F   7 N    -3.102900000000E-01 -1.215000000000E-02  3.154800000000E-01
     35 F   7 N     1.215000000000E-02 -3.102900000000E-01 -3.154800000000E-01
     36 F   7 N    -1.215000000000E-02  3.102900000000E-01 -3.154800000000E-01
     37 T   7 N     2.603100000000E-01  1.273700000000E-01  3.164800000000E-01
     38 F   7 N    -2.603100000000E-01 -1.273700000000E-01  3.164800000000E-01
     39 F   7 N     1.273700000000E-01 -2.603100000000E-01 -3.164800000000E-01
     40 F   7 N    -1.273700000000E-01  2.603100000000E-01 -3.164800000000E-01
     41 T   7 N     1.435400000000E-01  1.191000000000E-02  4.068600000000E-01
     42 F   7 N    -1.435400000000E-01 -1.191000000000E-02  4.068600000000E-01
     43 F   7 N     1.191000000000E-02 -1.435400000000E-01 -4.068600000000E-01
     44 F   7 N    -1.191000000000E-02  1.435400000000E-01 -4.068600000000E-01
     45 T   7 N     1.609000000000E-01  1.277600000000E-01  3.706100000000E-01
     46 F   7 N    -1.609000000000E-01 -1.277600000000E-01  3.706100000000E-01
     47 F   7 N     1.277600000000E-01 -1.609000000000E-01 -3.706100000000E-01
     48 F   7 N    -1.277600000000E-01  1.609000000000E-01 -3.706100000000E-01
     49 T   7 N    -1.286900000000E-01  1.302500000000E-01 -1.105200000000E-01
     50 F   7 N     1.286900000000E-01 -1.302500000000E-01 -1.105200000000E-01
     51 F   7 N     1.302500000000E-01  1.286900000000E-01  1.105200000000E-01
     52 F   7 N    -1.302500000000E-01 -1.286900000000E-01  1.105200000000E-01
     53 T  30 ZN   -5.000000000000E-01 -1.287142178160E-16  2.500000000000E-01
     54 T  30 ZN    0.000000000000E+00  0.000000000000E+00  5.000000000000E-01
     55 T  35 BR   -4.010000000000E-03  3.430300000000E-01 -7.290000000000E-02
     56 F  35 BR    4.010000000000E-03 -3.430300000000E-01 -7.290000000000E-02
     57 F  35 BR    3.430300000000E-01  4.010000000000E-03  7.290000000000E-02
     58 F  35 BR   -3.430300000000E-01 -4.010000000000E-03  7.290000000000E-02
     59 T  35 BR   -2.000000000000E-01 -1.077100000000E-01 -1.448400000000E-01
     60 F  35 BR    2.000000000000E-01  1.077100000000E-01 -1.448400000000E-01
     61 F  35 BR   -1.077100000000E-01  2.000000000000E-01  1.448400000000E-01
     62 F  35 BR    1.077100000000E-01 -2.000000000000E-01  1.448400000000E-01

 T = ATOM BELONGING TO THE ASYMMETRIC UNIT

 ****    4 SYMMOPS - TRANSLATORS IN FRACTIONAL UNITS
 **** MATRICES AND TRANSLATORS IN THE CRYSTALLOGRAPHIC REFERENCE FRAME
   V INV                    ROTATION MATRICES                   TRANSLATORS
   1   1  1.00  0.00  0.00  0.00  1.00  0.00  0.00  0.00  1.00  0.00  0.00  0.00
   2   2 -0.00  1.00 -1.00  1.00  0.00 -1.00 -0.00  0.00 -1.00  0.00  0.00  0.00
   3   4  0.00 -1.00  0.00 -0.00 -1.00  1.00  1.00 -1.00  0.00  0.00  0.00  0.00
   4   3 -1.00  0.00  1.00 -1.00 -0.00  0.00 -1.00  1.00 -0.00  0.00  0.00  0.00

 DIRECT LATTICE VECTORS CARTESIAN COMPONENTS (ANGSTROM)
          X                    Y                    Z
  -0.547729440365E+01   0.547729440365E+01   0.692646471050E+01
   0.547729440365E+01  -0.547729440365E+01   0.692646471050E+01
   0.547729440365E+01   0.547729440365E+01  -0.692646471050E+01


 CARTESIAN COORDINATES - PRIMITIVE CELL
 *******************************************************************************
 *      ATOM          X(ANGSTROM)         Y(ANGSTROM)         Z(ANGSTROM)
 *******************************************************************************
    1     1 H     5.499203581265E-01 -2.454704259940E+00  4.981929007674E+00
    2     1 H    -5.499203581265E-01  2.454704259940E+00  4.981929007674E+00
    3     1 H    -2.454704259940E+00 -5.499203581265E-01 -4.981929007674E+00
    4     1 H     2.454704259940E+00  5.499203581265E-01 -4.981929007674E+00
    5     1 H    -4.611662796097E+00  5.325025619229E-01 -2.112433207408E+00
    6     1 H     4.611662796097E+00 -5.325025619229E-01 -2.112433207408E+00
    7     1 H     5.325025619229E-01  4.611662796097E+00  2.112433207408E+00
    8     1 H    -5.325025619229E-01 -4.611662796097E+00  2.112433207408E+00
    9     6 C    -2.807003835983E+00  3.395922530263E+00 -1.631736556500E+00
   10     6 C     2.807003835983E+00 -3.395922530263E+00 -1.631736556500E+00
   11     6 C     3.395922530263E+00  2.807003835983E+00  1.631736556500E+00
   12     6 C    -3.395922530263E+00 -2.807003835983E+00  1.631736556500E+00
   13     6 C     2.578052929910E+00 -6.361329720399E-01  5.142068871781E+00
   14     6 C    -2.578052929910E+00  6.361329720399E-01  5.142068871781E+00
   15     6 C    -6.361329720399E-01 -2.578052929910E+00 -5.142068871781E+00
   16     6 C     6.361329720399E-01  2.578052929910E+00 -5.142068871781E+00
   17     6 C    -3.934997845470E+00  2.575642920372E+00 -1.829002271455E+00
   18     6 C     3.934997845470E+00 -2.575642920372E+00 -1.829002271455E+00
   19     6 C     2.575642920372E+00  3.934997845470E+00  1.829002271455E+00
   20     6 C    -2.575642920372E+00 -3.934997845470E+00  1.829002271455E+00
   21     6 C    -2.470369321934E+00  6.752408540820E-01 -1.819305220860E+00
   22     6 C     2.470369321934E+00 -6.752408540820E-01 -1.819305220860E+00
   23     6 C     6.752408540820E-01  2.470369321934E+00  1.819305220860E+00
   24     6 C    -6.752408540820E-01 -2.470369321934E+00  1.819305220860E+00
   25     6 C    -1.584362179200E+00  2.732183994429E+00 -1.441397306255E+00
   26     6 C     1.584362179200E+00 -2.732183994429E+00 -1.441397306255E+00
   27     6 C     2.732183994429E+00  1.584362179200E+00  1.441397306255E+00
   28     6 C    -2.732183994429E+00 -1.584362179200E+00  1.441397306255E+00
   29     6 C     3.768488095599E+00 -1.198322469631E+00 -1.937055120938E+00
   30     6 C    -3.768488095599E+00  1.198322469631E+00 -1.937055120938E+00
   31     6 C    -1.198322469631E+00 -3.768488095599E+00  1.937055120938E+00
   32     6 C     1.198322469631E+00  3.768488095599E+00  1.937055120938E+00
   33     7 N     3.399099361017E+00  1.330982540087E-01  4.370322173737E+00
   34     7 N    -3.399099361017E+00 -1.330982540087E-01  4.370322173737E+00
   35     7 N     1.330982540087E-01 -3.399099361017E+00 -4.370322173737E+00
   36     7 N    -1.330982540087E-01  3.399099361017E+00 -4.370322173737E+00
   37     7 N     2.851589012428E+00  1.395285976386E+00  4.384175103158E+00
   38     7 N    -2.851589012428E+00 -1.395285976386E+00  4.384175103158E+00
   39     7 N     1.395285976386E+00 -2.851589012428E+00 -4.384175103158E+00
   40     7 N    -1.395285976386E+00  2.851589012428E+00 -4.384175103158E+00
   41     7 N     1.572421677400E+00  1.304691526949E-01  5.636202864228E+00
   42     7 N    -1.572421677400E+00 -1.304691526949E-01  5.636202864228E+00
   43     7 N     1.304691526949E-01 -1.572421677400E+00 -5.636202864228E+00
   44     7 N    -1.304691526949E-01  1.572421677400E+00 -5.636202864228E+00
   45     7 N     1.762593339095E+00  1.399558266021E+00  5.134034172717E+00
   46     7 N    -1.762593339095E+00 -1.399558266021E+00  5.134034172717E+00
   47     7 N     1.399558266021E+00 -1.762593339095E+00 -5.134034172717E+00
   48     7 N    -1.399558266021E+00  1.762593339095E+00 -5.134034172717E+00
   49     7 N    -1.409746033611E+00  1.426835192151E+00 -1.531025759609E+00
   50     7 N     1.409746033611E+00 -1.426835192151E+00 -1.531025759609E+00
   51     7 N     1.426835192151E+00  1.409746033611E+00  1.531025759609E+00
   52     7 N    -1.426835192151E+00 -1.409746033611E+00  1.531025759609E+00
   53    30 ZN    5.477294403650E+00 -1.410011329828E-15 -1.038969706575E+01
   54    30 ZN    0.000000000000E+00  0.000000000000E+00  6.926464710500E+00
   55    35 BR   -4.392790111727E-02  3.757752598568E+00 -1.009878554791E+00
   56    35 BR    4.392790111727E-02 -3.757752598568E+00 -1.009878554791E+00
   57    35 BR    3.757752598568E+00  4.392790111727E-02  1.009878554791E+00
   58    35 BR   -3.757752598568E+00 -4.392790111727E-02  1.009878554791E+00
   59    35 BR   -2.190917761460E+00 -1.179918760434E+00 -2.006458297338E+00
   60    35 BR    2.190917761460E+00  1.179918760434E+00 -2.006458297338E+00
   61    35 BR   -1.179918760434E+00  2.190917761460E+00  2.006458297338E+00
   62    35 BR    1.179918760434E+00 -2.190917761460E+00  2.006458297338E+00

 *******************************************************************************
 STARTING BASIS SET HANDLING 
 *******************************************************************************

 Loading internal basis set: POB-DZVPP           

 Please cite in your publication:
 Peintinger, M. F., Oliveira, D. V. and Bredow, T. (2013), Generally applicable 
 solid-state Gaussian basis sets, in preparation                                
                                                                                
                    

 *******************************************************************************
 LOCAL ATOMIC FUNCTIONS BASIS SET
 *******************************************************************************
   ATOM   X(AU)   Y(AU)   Z(AU)  N. TYPE  EXPONENT  S COEF   P COEF   D/F/G COEF
 *******************************************************************************
   1 H    1.039  -4.639   9.414
                                  1 S  
                                         2.263E+01 1.441E-02 0.000E+00 0.000E+00
                                         3.236E+00 1.072E-01 0.000E+00 0.000E+00
                                         7.304E-01 3.846E-01 0.000E+00 0.000E+00
                                  2 S  
                                         1.417E-01 1.000E+00 0.000E+00 0.000E+00
                           3-     5 P  
                                         3.944E-01 0.000E+00 1.000E+00 0.000E+00
                           6-     8 P  
                                         1.006E-01 0.000E+00 1.000E+00 0.000E+00
   2 H   -1.039   4.639   9.414
   3 H   -4.639  -1.039  -9.414
   4 H    4.639   1.039  -9.414
   5 H   -8.715   1.006  -3.992
   6 H    8.715  -1.006  -3.992
   7 H    1.006   8.715   3.992
   8 H   -1.006  -8.715   3.992
   9 C   -5.304   6.417  -3.084
                                 65 S  
                                         1.238E+03 5.457E-03 0.000E+00 0.000E+00
                                         1.863E+02 4.064E-02 0.000E+00 0.000E+00
                                         4.225E+01 1.803E-01 0.000E+00 0.000E+00
                                         1.168E+01 4.632E-01 0.000E+00 0.000E+00
                                         3.593E+00 4.409E-01 0.000E+00 0.000E+00
                                 66 S  
                                         5.281E+00 1.000E+00 0.000E+00 0.000E+00
                                 67 S  
                                         4.447E-01 1.000E+00 0.000E+00 0.000E+00
                          68-    70 P  
                                         9.468E+00 0.000E+00 3.839E-02 0.000E+00
                                         2.010E+00 0.000E+00 2.112E-01 0.000E+00
                                         5.477E-01 0.000E+00 5.133E-01 0.000E+00
                          71-    73 P  
                                         1.604E-01 0.000E+00 1.000E+00 0.000E+00
                          74-    78 D  
                                         6.070E-01 0.000E+00 0.000E+00 1.000E+00
                          79-    83 D  
                                         2.939E-01 0.000E+00 0.000E+00 1.000E+00
  10 C    5.304  -6.417  -3.084
  11 C    6.417   5.304   3.084
  12 C   -6.417  -5.304   3.084
  13 C    4.872  -1.202   9.717
  14 C   -4.872   1.202   9.717
  15 C   -1.202  -4.872  -9.717
  16 C    1.202   4.872  -9.717
  17 C   -7.436   4.867  -3.456
  18 C    7.436  -4.867  -3.456
  19 C    4.867   7.436   3.456
  20 C   -4.867  -7.436   3.456
  21 C   -4.668   1.276  -3.438
  22 C    4.668  -1.276  -3.438
  23 C    1.276   4.668   3.438
  24 C   -1.276  -4.668   3.438
  25 C   -2.994   5.163  -2.724
  26 C    2.994  -5.163  -2.724
  27 C    5.163   2.994   2.724
  28 C   -5.163  -2.994   2.724
  29 C    7.121  -2.265  -3.661
  30 C   -7.121   2.265  -3.661
  31 C   -2.265  -7.121   3.661
  32 C    2.265   7.121   3.661
  33 N    6.423   0.252   8.259
                                521 S  
                                         1.713E+03-5.393E-03 0.000E+00 0.000E+00
                                         2.576E+02-4.022E-02 0.000E+00 0.000E+00
                                         5.846E+01-1.793E-01 0.000E+00 0.000E+00
                                         1.620E+01-4.638E-01 0.000E+00 0.000E+00
                                         5.005E+00-4.417E-01 0.000E+00 0.000E+00
                                522 S  
                                         6.217E-01 1.000E+00 0.000E+00 0.000E+00
                                523 S  
                                         2.921E-01 1.000E+00 0.000E+00 0.000E+00
                         524-   526 P  
                                         1.357E+01 0.000E+00-4.007E-02 0.000E+00
                                         2.926E+00 0.000E+00-2.181E-01 0.000E+00
                                         7.993E-01 0.000E+00-5.129E-01 0.000E+00
                         527-   529 P  
                                         2.244E-01 0.000E+00 1.000E+00 0.000E+00
                         530-   534 D  
                                         3.118E-01 0.000E+00 0.000E+00 1.000E+00
  34 N   -6.423  -0.252   8.259
  35 N    0.252  -6.423  -8.259
  36 N   -0.252   6.423  -8.259
  37 N    5.389   2.637   8.285
  38 N   -5.389  -2.637   8.285
  39 N    2.637  -5.389  -8.285
  40 N   -2.637   5.389  -8.285
  41 N    2.971   0.247  10.651
  42 N   -2.971  -0.247  10.651
  43 N    0.247  -2.971 -10.651
  44 N   -0.247   2.971 -10.651
  45 N    3.331   2.645   9.702
  46 N   -3.331  -2.645   9.702
  47 N    2.645  -3.331  -9.702
  48 N   -2.645   3.331  -9.702
  49 N   -2.664   2.696  -2.893
  50 N    2.664  -2.696  -2.893
  51 N    2.696   2.664   2.893
  52 N   -2.696  -2.664   2.893
  53 ZN  10.351  -0.000 -19.634
                                801 S  
                                         8.200E+04 1.421E-03 0.000E+00 0.000E+00
                                         1.231E+04 1.089E-02 0.000E+00 0.000E+00
                                         2.801E+03 5.406E-02 0.000E+00 0.000E+00
                                         7.910E+02 1.885E-01 0.000E+00 0.000E+00
                                         2.576E+02 3.835E-01 0.000E+00 0.000E+00
                                         8.881E+01 2.972E-01 0.000E+00 0.000E+00
                                802 S  
                                         1.719E+02-1.105E-01 0.000E+00 0.000E+00
                                         2.030E+01 6.461E-01 0.000E+00 0.000E+00
                                         8.346E+00 4.422E-01 0.000E+00 0.000E+00
                                803 S  
                                         1.485E+01-2.271E-01 0.000E+00 0.000E+00
                                         2.450E+00 7.243E-01 0.000E+00 0.000E+00
                                         9.985E-01 4.484E-01 0.000E+00 0.000E+00
                                804 S  
                                         1.493E+00 1.000E+00 0.000E+00 0.000E+00
                                805 S  
                                         1.830E-01 1.000E+00 0.000E+00 0.000E+00
                         806-   808 P  
                                         1.072E+03 0.000E+00 9.277E-03 0.000E+00
                                         2.527E+02 0.000E+00 6.954E-02 0.000E+00
                                         8.010E+01 0.000E+00 2.716E-01 0.000E+00
                                         2.890E+01 0.000E+00 5.340E-01 0.000E+00
                                         1.077E+01 0.000E+00 3.450E-01 0.000E+00
                         809-   811 P  
                                         5.645E+00 0.000E+00 3.413E-01 0.000E+00
                                         2.168E+00 0.000E+00 5.639E-01 0.000E+00
                                         8.054E-01 0.000E+00 2.368E-01 0.000E+00
                         812-   814 P  
                                         2.721E-01 0.000E+00 1.000E+00 0.000E+00
                         815-   819 D  
                                         5.609E+01 0.000E+00 0.000E+00 2.959E-02
                                         1.575E+01 0.000E+00 0.000E+00 1.587E-01
                                         5.312E+00 0.000E+00 0.000E+00 3.798E-01
                                         1.774E+00 0.000E+00 0.000E+00 4.690E-01
                         820-   824 D  
                                         5.073E-01 0.000E+00 0.000E+00 1.000E+00
                         825-   831 F  
                                         2.814E+00 0.000E+00 0.000E+00 1.000E+00
                         832-   838 F  
                                         1.300E+00 0.000E+00 0.000E+00 1.000E+00
  54 ZN   0.000   0.000  13.089
  55 BR  -0.083   7.101  -1.908
                                877 S  
                                         1.133E+05 1.428E-03 0.000E+00 0.000E+00
                                         1.701E+04 1.095E-02 0.000E+00 0.000E+00
                                         3.870E+03 5.442E-02 0.000E+00 0.000E+00
                                         1.093E+03 1.905E-01 0.000E+00 0.000E+00
                                         3.564E+02 3.902E-01 0.000E+00 0.000E+00
                                         1.231E+02 3.081E-01 0.000E+00 0.000E+00
                                878 S  
                                         2.367E+02-1.123E-01 0.000E+00 0.000E+00
                                         2.847E+01 6.478E-01 0.000E+00 0.000E+00
                                         1.188E+01 4.424E-01 0.000E+00 0.000E+00
                                879 S  
                                         2.127E+01-2.264E-01 0.000E+00 0.000E+00
                                         3.613E+00 7.382E-01 0.000E+00 0.000E+00
                                         1.663E+00 4.268E-01 0.000E+00 0.000E+00
                                880 S  
                                         3.641E-01 1.000E+00 0.000E+00 0.000E+00
                                881 S  
                                         1.243E-01 1.000E+00 0.000E+00 0.000E+00
                         882-   884 P  
                                         1.560E+03 0.000E+00 8.717E-03 0.000E+00
                                         3.685E+02 0.000E+00 6.624E-02 0.000E+00
                                         1.172E+02 0.000E+00 2.650E-01 0.000E+00
                                         4.265E+01 0.000E+00 5.384E-01 0.000E+00
                                         1.609E+01 0.000E+00 3.658E-01 0.000E+00
                         885-   887 P  
                                         8.635E+00 0.000E+00 3.425E-01 0.000E+00
                                         3.561E+00 0.000E+00 5.750E-01 0.000E+00
                                         1.529E+00 0.000E+00 2.433E-01 0.000E+00
                         888-   890 P  
                                         6.447E-01 0.000E+00 1.000E+00 0.000E+00
                         891-   893 P  
                                         2.103E-01 0.000E+00 1.000E+00 0.000E+00
                         894-   898 D  
                                         1.049E+02 0.000E+00 0.000E+00 2.265E-02
                                         3.028E+01 0.000E+00 0.000E+00 1.346E-01
                                         1.065E+01 0.000E+00 0.000E+00 3.647E-01
                                         3.870E+00 0.000E+00 0.000E+00 4.904E-01
                         899-   903 D  
                                         1.342E+00 0.000E+00 0.000E+00 1.000E+00
                         904-   908 D  
                                         4.101E-01 0.000E+00 0.000E+00 1.000E+00
                         909-   913 D  
                                         1.985E-01 0.000E+00 0.000E+00 1.000E+00
  56 BR   0.083  -7.101  -1.908
  57 BR   7.101   0.083   1.908
  58 BR  -7.101  -0.083   1.908
  59 BR  -4.140  -2.230  -3.792
  60 BR   4.140   2.230  -3.792
  61 BR  -2.230   4.140   3.792
  62 BR   2.230  -4.140   3.792

 *******************************************************************************
 FINISHED BASIS SET HANDLING 
 *******************************************************************************

 INFORMATION **** SET_MPP **** PCRYSTAL CALCULATION
 INFORMATION **** READM2 **** NEW DEFAULT: FOCK/KS MATRIX MIXING SET TO 30 %
 INFORMATION **** READM2 **** NEW DEFAULT: FULL DIRECT SCF MODE
 INFORMATION **** READM2 **** NEW DEFAULT: COULOMB BIPOLAR BUFFER SET TO 32 Mb
 INFORMATION **** READM2 **** NEW DEFAULT: EXCHANGE BIPOLAR BUFFER SET TO 32 Mb

 *******************************************************************************
 NEW DEFAULT: DFT INTEGRATION GRID INCREASED TO XLGRID
 NEW DEFAULT: DIIS ACCELERATOR ACTIVE
 USE KEYWORD NODIIS TO TURN IT OFF
 *******************************************************************************

 INFORMATION **** DFTD3_INPUT **** PERFORM DISPERSION CORRECTION DFT-D3(BJ) IN THE BECKE-JOHNSON DAMPING SCHEME

 PLEASE CITE:
 (1) DFT-D3 Reference
  S. Grimme, J. Antony, S. Ehrlich, and H. Krieg, J. Chem. Phys. 132 (2010), 154104
 (2) BJ-Damping Reference
  S. Grimme, S. Ehrlich, and L. Goerigk, J. Comput. Chem. 32 (2011), 1456-1465
 (3) General DFT-D Review
  S. Grimme, A. Hansen, J. G. Brandenburg, and C. Bannwarth,
  Chem. Rev. 116 (2016), 5105-5154

 INFORMATION **** TOLINTEG **** COULOMB AND EXCHANGE SERIES TOLERANCES MODIFIED
 INFORMATION **** BIPOSIZE **** COULOMB BIPOLAR BUFFER SET TO   100000000
 INFORMATION **** MAXCYCLE **** MAX NUMBER OF SCF CYCLES SET TO          50
 *******************************************************************************
 N. OF ATOMS PER CELL        62  COULOMB OVERLAP TOL         (T1) 10**  -12
 NUMBER OF SHELLS           448  COULOMB PENETRATION TOL     (T2) 10**  -12
 NUMBER OF AO              1172  EXCHANGE OVERLAP TOL        (T3) 10**   20
 N. OF ELECTRONS PER CELL   632  EXCHANGE PSEUDO OVP (F(G))  (T4) 10**   20
 CORE ELECTRONS PER CELL    348  EXCHANGE PSEUDO OVP (P(G))  (T5) 10**   20
 N. OF SYMMETRY OPERATORS     4  POLE ORDER IN MONO ZONE                  4
 *******************************************************************************
 TYPE OF CALCULATION :  RESTRICTED CLOSED SHELL
 KOHN-SHAM HAMILTONIAN

 (EXCHANGE)[CORRELATION] FUNCTIONAL:(PERDEW-BURKE-ERNZERHOF)[PERDEW-BURKE-ERNZERHOF]


 CAPPA:IS1  3;IS2  3;IS3  3; K PTS MONK NET   6; SYMMOPS:K SPACE   8;G SPACE   4

 *******************************************************************************
 MAX NUMBER OF SCF CYCLES      50  CONVERGENCE ON DELTAP        10**-16
 WEIGHT OF F(I) IN F(I+1)      30% CONVERGENCE ON ENERGY        10**- 6
 SHRINK. FACT.(MONKH.)    3  3  3  NUMBER OF K POINTS IN THE IBZ      6
 SHRINKING FACTOR(GILAT NET)    3  NUMBER OF K POINTS(GILAT NET)      6
 *******************************************************************************
 *** K POINTS COORDINATES (OBLIQUE COORDINATES IN UNITS OF IS =  3)
   1-R(  0  0  0)   2-C(  1  0  0)   3-C(  1  1  0)   4-C(  2  1  0)
   5-C(  2  1  1)   6-C(  2  2  1)

 DIRECT LATTICE VECTORS COMPON. (A.U.)     RECIP. LATTICE VECTORS COMPON. (A.U.) 
        X            Y            Z              X            Y            Z
  -10.3505864   10.3505864   13.0891214      0.0000000    0.3035183    0.2400155
   10.3505864  -10.3505864   13.0891214      0.3035183    0.0000000    0.2400155
   10.3505864   10.3505864  -13.0891214      0.3035183    0.3035183    0.0000000

 DISK SPACE FOR EIGENVECTORS (FTN 10)    15109424 REALS

 SYMMETRY ADAPTION OF THE BLOCH FUNCTIONS ENABLED
 TTTTTTTTTTTTTTTTTTTTTTTTTTTTTT gordsh1     TELAPSE       14.02 TCPU        0.07

 MATRIX SIZE: P(G) 1969524, F(G)  985572, P(G) IRR  248842, F(G) IRR  248842
 MAX G-VECTOR INDEX FOR 1- AND 2-ELECTRON INTEGRALS  63

 TTTTTTTTTTTTTTTTTTTTTTTTTTTTTT INPUT       TELAPSE       14.36 TCPU        0.41

 NEIGHBORS OF THE NON-EQUIVALENT ATOMS

 N = NUMBER OF NEIGHBORS AT DISTANCE R
    ATOM  N     R/ANG      R/AU   NEIGHBORS (ATOM LABELS AND CELL INDICES)
   1 H    1     1.0945     2.0683   17 C    0 1 0
   1 H    1     2.1613     4.0842   30 C    0 1 0
   1 H    1     2.1756     4.1113    9 C    0 1 0
   1 H    1     2.5156     4.7539    5 H    0 1 0
   1 H    1     2.5464     4.8120   46 N    0 0 0
   1 H    1     2.7288     5.1566   13 C    0 0 0

   5 H    1     1.0886     2.0571   30 C    0 0 0
   5 H    1     2.0326     3.8411    6 H    0-1-1
   5 H    1     2.1660     4.0931   21 C    0 0 0
   5 H    1     2.1709     4.1023   17 C    0 0 0
   5 H    1     2.5156     4.7539    1 H    0-1 0
   5 H    1     2.9671     5.6070   59 BR   0 0 0

   9 C    1     1.4041     2.6535   25 C    0 0 0
   9 C    1     1.4086     2.6619   17 C    0 0 0
   9 C    1     1.4562     2.7518   13 C    0-1 0
   9 C    1     2.1756     4.1113    1 H    0-1 0
   9 C    1     2.4166     4.5666   49 N    0 0 0
   9 C    1     2.4181     4.5695   30 C    0 0 0

  13 C    1     1.3576     2.5655   41 N    0 0 0
  13 C    1     1.3643     2.5782   33 N    0 0 0
  13 C    1     1.4562     2.7518    9 C    0 1 0
  13 C    1     2.1854     4.1298   37 N    0 0 0
  13 C    1     2.1930     4.1441   45 N    0 0 0
  13 C    1     2.4915     4.7082   17 C    0 1 0

  17 C    1     1.0945     2.0683    1 H    0-1 0
  17 C    1     1.3916     2.6296   30 C    0 0 0
  17 C    1     1.4086     2.6619    9 C    0 0 0
  17 C    1     2.1709     4.1023    5 H    0 0 0
  17 C    1     2.3875     4.5118   25 C    0 0 0
  17 C    1     2.3993     4.5341   21 C    0 0 0

  21 C    1     1.3315     2.5162   49 N    0 0 0
  21 C    1     1.4045     2.6541   30 C    0 0 0
  21 C    1     1.8854     3.5629   59 BR   0 0 0
  21 C    1     2.1660     4.0931    5 H    0 0 0
  21 C    1     2.2713     4.2921   25 C    0 0 0
  21 C    1     2.3993     4.5341   17 C    0 0 0

  25 C    1     1.3200     2.4945   49 N    0 0 0
  25 C    1     1.4041     2.6535    9 C    0 0 0
  25 C    1     1.9002     3.5909   55 BR   0 0 0
  25 C    1     2.2713     4.2921   21 C    0 0 0
  25 C    1     2.3875     4.5118   17 C    0 0 0
  25 C    1     2.5089     4.7410   13 C    0-1 0

  29 C    1     1.0886     2.0571    6 H    0 0 0
  29 C    1     1.3916     2.6296   18 C    0 0 0
  29 C    1     1.4045     2.6541   22 C    0 0 0
  29 C    1     2.1613     4.0842    2 H   -1 0 0
  29 C    1     2.4043     4.5435   50 N    0 0 0
  29 C    1     2.4181     4.5695   10 C    0 0 0

  33 N    1     1.3643     2.5782   13 C    0 0 0
  33 N    1     1.3759     2.6001   37 N    0 0 0
  33 N    1     2.2057     4.1683   45 N    0 0 0
  33 N    1     2.2224     4.1998   41 N    0 0 0
  33 N    1     2.2714     4.2924   53 ZN   1 1 0
  33 N    1     2.5079     4.7392    9 C    0 1 0

  37 N    1     1.3222     2.4986   45 N    0 0 0
  37 N    1     1.3759     2.6001   33 N    0 0 0
  37 N    1     2.1854     4.1298   13 C    0 0 0
  37 N    1     2.1917     4.1417   41 N    0 0 0
  37 N    1     2.9513     5.5771   27 C    0 0 0
  37 N    1     2.9830     5.6371   59 BR   1 1 1

  41 N    1     1.3576     2.5655   13 C    0 0 0
  41 N    1     1.3780     2.6041   45 N    0 0 0
  41 N    1     2.0382     3.8517   54 ZN   0 0 0
  41 N    1     2.1917     4.1417   37 N    0 0 0
  41 N    1     2.2224     4.1998   33 N    0 0 0
  41 N    1     2.4928     4.7108    9 C    0 1 0

  45 N    1     1.3222     2.4986   37 N    0 0 0
  45 N    1     1.3780     2.6041   41 N    0 0 0
  45 N    1     2.1930     4.1441   13 C    0 0 0
  45 N    1     2.2057     4.1683   33 N    0 0 0
  45 N    1     2.5464     4.8120    2 H    0 0 0
  45 N    1     2.8772     5.4371   54 ZN   0 0 0

  49 N    1     1.3200     2.4945   25 C    0 0 0
  49 N    1     1.3315     2.5162   21 C    0 0 0
  49 N    1     2.4043     4.5435   30 C    0 0 0
  49 N    1     2.4166     4.5666    9 C    0 0 0
  49 N    1     2.7514     5.1994   55 BR   0 0 0
  49 N    1     2.7625     5.2204   59 BR   0 0 0

  53 ZN   4     2.2714     4.2924   33 N   -1-1 0   34 N   -1 0 1   35 N    0 0 1
                                    36 N   -1 0 0
  53 ZN   4     2.9963     5.6622   55 BR  -1 0 0   56 BR   0 0 1   57 BR  -1-1 0
                                    58 BR  -1 0 1
  53 ZN   4     3.1128     5.8823   37 N   -1-1 0   38 N   -1 0 1   39 N    0 0 1
                                    40 N   -1 0 0
  53 ZN   4     3.4101     6.4441   13 C   -1-1 0   14 C   -1 0 1   15 C    0 0 1
                                    16 C   -1 0 0
  53 ZN   4     3.7595     7.1044   25 C   -1 0 0   26 C    0 0 1   27 C   -1-1 0
                                    28 C   -1 0 1
  53 ZN   4     3.9453     7.4556    9 C   -1 0 0   10 C    0 0 1   11 C   -1-1 0
                                    12 C   -1 0 1

  54 ZN   4     2.0382     3.8517   41 N    0 0 0   42 N    0 0 0   43 N    1 1 0
                                    44 N    1 1 0
  54 ZN   4     2.8772     5.4371   45 N    0 0 0   46 N    0 0 0   47 N    1 1 0
                                    48 N    1 1 0
  54 ZN   4     3.1795     6.0084    1 H    0 0 0    2 H    0 0 0    3 H    1 1 0
                                     4 H    1 1 0
  54 ZN   4     3.1992     6.0457   13 C    0 0 0   14 C    0 0 0   15 C    1 1 0
                                    16 C    1 1 0
  54 ZN   4     3.7583     7.1022    9 C    0 1 0   10 C    1 0 0   11 C    0 0-1
                                    12 C    1 1 1
  54 ZN   4     3.7608     7.1069   17 C    0 1 0   18 C    1 0 0   19 C    0 0-1
                                    20 C    1 1 1

  55 BR   1     1.9002     3.5909   25 C    0 0 0
  55 BR   1     2.7514     5.1994   49 N    0 0 0
  55 BR   1     2.8552     5.3956    9 C    0 0 0
  55 BR   1     2.9963     5.6622   53 ZN   1 0 0
  55 BR   1     3.0678     5.7972   34 N    0 0 1
  55 BR   1     3.0952     5.8491   38 N    0 0 1

  59 BR   1     1.8854     3.5629   21 C    0 0 0
  59 BR   1     2.7625     5.2204   49 N    0 0 0
  59 BR   1     2.8547     5.3947   30 C    0 0 0
  59 BR   1     2.9671     5.6070    5 H    0 0 0
  59 BR   1     2.9830     5.6371   37 N   -1-1-1
  59 BR   1     3.0529     5.7691    3 H    0 0 0


 SYMMETRY ALLOWED INTERNAL DEGREE(S) OF FREEDOM:  45
 TTTTTTTTTTTTTTTTTTTTTTTTTTTTTT SYMM        TELAPSE       14.40 TCPU        0.46
 TTTTTTTTTTTTTTTTTTTTTTTTTTTTTT INT_SCREEN  TELAPSE       14.41 TCPU        0.46
 INFORMATION **** EXCBUF **** EXCH. BIPO BUFFER: WORDS USED =           0

 DFT PARAMETERS

     ATOM       ELECTRONS   NET CHARGE   R(ANGSTROM)
   1   1  H       1.0000      0.0000     1.11000000
   9   6  C       6.0000      0.0000     0.77000000
  33   7  N       7.0000      0.0000     0.74000000
  53  30  ZN     30.0000      0.0000     1.37000000
  55  35  BR     35.0000      0.0000     1.14000000

 SIZE OF GRID=     469588
 TTTTTTTTTTTTTTTTTTTTTTTTTTTTTT MAKE_GRID2  TELAPSE       15.14 TCPU        1.19
 BECKE WEIGHT FUNCTION
 RADSAFE =     2.00
 TOLERANCES - DENSITY:10**- 6; POTENTIAL:10**- 9; GRID WGT:10**-14

 RADIAL INTEGRATION  - INTERVALS (POINTS,UPPER LIMIT):            1( 75,  4.0*R)

 ANGULAR INTEGRATION - INTERVALS (ACCURACY LEVEL [N. POINTS] UPPER LIMIT):
  1(  4[  86]   0.2)  2(  8[ 194]   0.5)  3( 12[ 350]   0.9)  4( 16[ 974]   3.5)
  5( 12[ 350]9999.0)
 TTTTTTTTTTTTTTTTTTTTTTTTTTTTTT INT_CALC    TELAPSE       15.19 TCPU        1.24
 EEEEEEEEEE INT_CALC TERMINATION  DATE 21 01 2024 TIME 21:28:23.2

 *******************************************************************************
 Z:\home\sanoj\Downloads\tmp_p\newconn.mol                                       
 CRYSTAL - SCF - TYPE OF CALCULATION :  RESTRICTED CLOSED SHELL
 *******************************************************************************

 CAPPA:IS1  3;IS2  3;IS3  3; K PTS MONK NET   6; SYMMOPS:K SPACE   8;G SPACE   4

 TTTTTTTTTTTTTTTTTTTTTTTTTTTTTT SDIK        TELAPSE       15.37 TCPU        1.42

 AAAAAAAAAAAAAAAAAAAAAAAAAAAAAAAAAAAAAAAAAAAAAAAAAAAAAAAAAAAAAAAAAAAAAAAAAAAAAAA
         ATOMIC WAVEFUNCTION(S)


 NUCLEAR CHARGE  1.0  SYMMETRY SPECIES            S
 N. ELECTRONS    1.0  NUMBER OF PRIMITIVE GTOS    4
                      NUMBER OF CONTRACTED GTOS   2
                      NUMBER OF CLOSED SHELLS     0
                      OPEN SHELL OCCUPATION       1

  ZNUC SCFIT  TOTAL HF ENERGY   KINETIC ENERGY   VIRIAL THEOREM ACCURACY
   1.0   1   -4.946643675E-01  4.917913167E-01 -2.005842012E+00  9.4E-17

 NUCLEAR CHARGE  6.0  SYMMETRY SPECIES            S    P
 N. ELECTRONS    6.0  NUMBER OF PRIMITIVE GTOS    7    4
                      NUMBER OF CONTRACTED GTOS   3    2
                      NUMBER OF CLOSED SHELLS     2    0
                      OPEN SHELL OCCUPATION       0    2

  ZNUC SCFIT  TOTAL HF ENERGY   KINETIC ENERGY   VIRIAL THEOREM ACCURACY
   6.0   6   -3.750912652E+01  3.905246519E+01 -1.960480378E+00  3.7E-06

 NUCLEAR CHARGE  7.0  SYMMETRY SPECIES            S    P
 N. ELECTRONS    7.0  NUMBER OF PRIMITIVE GTOS    7    4
                      NUMBER OF CONTRACTED GTOS   3    2
                      NUMBER OF CLOSED SHELLS     2    0
                      OPEN SHELL OCCUPATION       0    3

  ZNUC SCFIT  TOTAL HF ENERGY   KINETIC ENERGY   VIRIAL THEOREM ACCURACY
   7.0   9   -5.432196661E+01  5.425066284E+01 -2.001314339E+00  1.2E-06

 NUCLEAR CHARGE 30.0  SYMMETRY SPECIES            S    P    D
 N. ELECTRONS   30.0  NUMBER OF PRIMITIVE GTOS   14    9    5
                      NUMBER OF CONTRACTED GTOS   5    3    2
                      NUMBER OF CLOSED SHELLS     4    2    1
                      OPEN SHELL OCCUPATION       0    0    0

  ZNUC SCFIT  TOTAL HF ENERGY   KINETIC ENERGY   VIRIAL THEOREM ACCURACY
  30.0  10   -1.777404290E+03  1.777325716E+03 -2.000044209E+00  2.5E-06

 NUCLEAR CHARGE 35.0  SYMMETRY SPECIES            S    P    D
 N. ELECTRONS   35.0  NUMBER OF PRIMITIVE GTOS   14   10    7
                      NUMBER OF CONTRACTED GTOS   5    4    4
                      NUMBER OF CLOSED SHELLS     4    2    1
                      OPEN SHELL OCCUPATION       0    5    0

  ZNUC SCFIT  TOTAL HF ENERGY   KINETIC ENERGY   VIRIAL THEOREM ACCURACY
  35.0  13   -2.572060514E+03  2.572021521E+03 -2.000015161E+00  3.6E-06

 AAAAAAAAAAAAAAAAAAAAAAAAAAAAAAAAAAAAAAAAAAAAAAAAAAAAAAAAAAAAAAAAAAAAAAAAAAAAAAA

 TOTAL ATOMIC CHARGES:
   1.0000000   1.0000000   1.0000000   1.0000000   1.0000000   1.0000000
   1.0000000   1.0000000   6.0000000   6.0000000   6.0000000   6.0000000
   6.0000000   6.0000000   6.0000000   6.0000000   6.0000000   6.0000000
   6.0000000   6.0000000   6.0000000   6.0000000   6.0000000   6.0000000
   6.0000000   6.0000000   6.0000000   6.0000000   6.0000000   6.0000000
   6.0000000   6.0000000   7.0000000   7.0000000   7.0000000   7.0000000
   7.0000000   7.0000000   7.0000000   7.0000000   7.0000000   7.0000000
   7.0000000   7.0000000   7.0000000   7.0000000   7.0000000   7.0000000
   7.0000000   7.0000000   7.0000000   7.0000000  30.0000000  30.0000000
  35.0000000  35.0000000  35.0000000  35.0000000  35.0000000  35.0000000
  35.0000000  35.0000000
 TTTTTTTTTTTTTTTTTTTTTTTTTTTTTT MOQGAD      TELAPSE       16.44 TCPU        2.49
 TTTTTTTTTTTTTTTTTTTTTTTTTTTTTT SHELLXN     TELAPSE       43.76 TCPU       27.45
 TTTTTTTTTTTTTTTTTTTTTTTTTTTTTT MONMO3      TELAPSE       45.91 TCPU       29.59
 NUMERICALLY INTEGRATED DENSITY    632.0002165640
 TTTTTTTTTTTTTTTTTTTTTTTTTTTTTT NUMDFT      TELAPSE       46.52 TCPU       30.20
 CYC   0 ETOT(AU) -2.615986431509E+04 DETOT -2.62E+04 tst  0.00E+00 PX  1.00E+00
 TTTTTTTTTTTTTTTTTTTTTTTTTTTTTT DIIS        TELAPSE       46.58 TCPU       30.26
 TTTTTTTTTTTTTTTTTTTTTTTTTTTTTT FDIK        TELAPSE       71.72 TCPU       53.81
 INSULATING STATE
 TOP OF VALENCE BANDS -    BAND    316; K    4; EIG -1.3088855E-01 AU
 TOP OF VALENCE BANDS -    BAND    316; K    1; EIG -1.3222762E-01 AU
 BOTTOM OF VIRTUAL BANDS - BAND    317; K    6; EIG -9.6356855E-02 AU
 INDIRECT ENERGY BAND GAP:   0.9397 eV
 BOTTOM OF VIRTUAL BANDS - BAND    317; K    1; EIG -9.1457952E-02 AU
 TTTTTTTTTTTTTTTTTTTTTTTTTTTTTT PDIG        TELAPSE       72.51 TCPU       54.60
 TOTAL ATOMIC CHARGES:
   1.2478165   1.2478165   1.2478165   1.2478165   1.1936049   1.1936049
   1.1936049   1.1936049   6.2362066   6.2362066   6.2362066   6.2362066
   5.4779655   5.4779655   5.4779655   5.4779655   6.1396881   6.1396881
   6.1396881   6.1396881   5.3058015   5.3058015   5.3058015   5.3058015
   5.3336738   5.3336738   5.3336738   5.3336738   6.2250320   6.2250320
   6.2250320   6.2250320   7.4310474   7.4310474   7.4310474   7.4310474
   7.1870364   7.1870364   7.1870364   7.1870364   7.4007706   7.4007706
   7.4007706   7.4007706   7.1408532   7.1408532   7.1408532   7.1408532
   7.6161717   7.6161717   7.6161717   7.6161717  28.0166514  27.8961471
  35.0650097  35.0650097  35.0650097  35.0650097  35.0211225  35.0211225
  35.0211225  35.0211225
 TTTTTTTTTTTTTTTTTTTTTTTTTTTTTT MOQGAD      TELAPSE       72.54 TCPU       54.62
 TTTTTTTTTTTTTTTTTTTTTTTTTTTTTT SHELLXN     TELAPSE      102.37 TCPU       84.05
 TTTTTTTTTTTTTTTTTTTTTTTTTTTTTT MONMO3      TELAPSE      103.44 TCPU       85.11
 NUMERICALLY INTEGRATED DENSITY    632.0001607108
 TTTTTTTTTTTTTTTTTTTTTTTTTTTTTT NUMDFT      TELAPSE      105.21 TCPU       86.88
 CYC   1 ETOT(AU) -2.615483982834E+04 DETOT  5.02E+00 tst  0.00E+00 PX  1.00E+00
 TTTTTTTTTTTTTTTTTTTTTTTTTTTTTT DIIS        TELAPSE      105.36 TCPU       87.03
 DIIS TEST: 0.91199E+01 AT SCF   CYCLE   1 - MIX   30 %
 TTTTTTTTTTTTTTTTTTTTTTTTTTTTTT FDIK        TELAPSE      115.71 TCPU       94.91
 INSULATING STATE
 TOP OF VALENCE BANDS -    BAND    316; K    6; EIG -1.7966725E-01 AU
 TOP OF VALENCE BANDS -    BAND    316; K    1; EIG -1.7981441E-01 AU
 BOTTOM OF VIRTUAL BANDS - BAND    317; K    1; EIG -1.3270842E-01 AU
 INDIRECT ENERGY BAND GAP:   1.2778 eV
 TTTTTTTTTTTTTTTTTTTTTTTTTTTTTT PDIG        TELAPSE      116.50 TCPU       95.70
 TOTAL ATOMIC CHARGES:
   1.2100775   1.2100775   1.2100775   1.2100775   1.1473509   1.1473509
   1.1473509   1.1473509   6.1725527   6.1725527   6.1725527   6.1725527
   6.3267566   6.3267566   6.3267566   6.3267566   6.2365364   6.2365364
   6.2365364   6.2365364   6.3185825   6.3185825   6.3185825   6.3185825
   6.4253750   6.4253750   6.4253750   6.4253750   5.8183117   5.8183117
   5.8183117   5.8183117   6.8138588   6.8138588   6.8138588   6.8138588
   6.9353216   6.9353216   6.9353216   6.9353216   6.9404253   6.9404253
   6.9404253   6.9404253   6.8493301   6.8493301   6.8493301   6.8493301
   6.1021322   6.1021322   6.1021322   6.1021322  29.4576142  29.6149774
  35.0725438  35.0725438  35.0725438  35.0725438  34.8626970  34.8626970
  34.8626970  34.8626970
 TTTTTTTTTTTTTTTTTTTTTTTTTTTTTT MOQGAD      TELAPSE      116.52 TCPU       95.72
 TTTTTTTTTTTTTTTTTTTTTTTTTTTTTT SHELLXN     TELAPSE      146.15 TCPU      125.05
 TTTTTTTTTTTTTTTTTTTTTTTTTTTTTT MONMO3      TELAPSE      149.39 TCPU      128.29
 NUMERICALLY INTEGRATED DENSITY    632.0001539003
 TTTTTTTTTTTTTTTTTTTTTTTTTTTTTT NUMDFT      TELAPSE      151.13 TCPU      130.02
 CYC   2 ETOT(AU) -2.615384604884E+04 DETOT  9.94E-01 tst  2.86E-02 PX  6.79E-01
 TTTTTTTTTTTTTTTTTTTTTTTTTTTTTT DIIS        TELAPSE      151.32 TCPU      130.20
 DIIS TEST: 0.14818E+02 AT SCF   CYCLE   2 - DIIS ACTIVE - HISTORY:     2 CYCLES
 TTTTTTTTTTTTTTTTTTTTTTTTTTTTTT FDIK        TELAPSE      160.65 TCPU      137.08
 INSULATING STATE
 TOP OF VALENCE BANDS -    BAND    316; K    5; EIG -2.2625954E-01 AU
 TOP OF VALENCE BANDS -    BAND    316; K    1; EIG -2.2708667E-01 AU
 BOTTOM OF VIRTUAL BANDS - BAND    317; K    6; EIG -1.2021956E-01 AU
 INDIRECT ENERGY BAND GAP:   2.8855 eV
 BOTTOM OF VIRTUAL BANDS - BAND    317; K    1; EIG -1.1716802E-01 AU
 TTTTTTTTTTTTTTTTTTTTTTTTTTTTTT PDIG        TELAPSE      161.45 TCPU      137.87
 TOTAL ATOMIC CHARGES:
   1.1835747   1.1835747   1.1835747   1.1835747   1.1244410   1.1244410
   1.1244410   1.1244410   5.9985047   5.9985047   5.9985047   5.9985047
   5.7885649   5.7885649   5.7885649   5.7885649   6.1053645   6.1053645
   6.1053645   6.1053645   5.8892195   5.8892195   5.8892195   5.8892195
   5.7184649   5.7184649   5.7184649   5.7184649   6.0581410   6.0581410
   6.0581410   6.0581410   7.1212127   7.1212127   7.1212127   7.1212127
   7.1646187   7.1646187   7.1646187   7.1646187   7.0422810   7.0422810
   7.0422810   7.0422810   7.0847897   7.0847897   7.0847897   7.0847897
   7.3700935   7.3700935   7.3700935   7.3700935  28.9218532  29.0974228
  34.9489981  34.9489981  34.9489981  34.9489981  34.8969121  34.8969121
  34.8969121  34.8969121
 TTTTTTTTTTTTTTTTTTTTTTTTTTTTTT MOQGAD      TELAPSE      161.47 TCPU      137.89
 TTTTTTTTTTTTTTTTTTTTTTTTTTTTTT SHELLXN     TELAPSE      193.36 TCPU      167.46
 TTTTTTTTTTTTTTTTTTTTTTTTTTTTTT MONMO3      TELAPSE      194.10 TCPU      168.19
 NUMERICALLY INTEGRATED DENSITY    632.0001594427
 TTTTTTTTTTTTTTTTTTTTTTTTTTTTTT NUMDFT      TELAPSE      195.85 TCPU      169.93
 CYC   3 ETOT(AU) -2.615627181737E+04 DETOT -2.43E+00 tst  6.77E-03 PX  5.24E-01
 TTTTTTTTTTTTTTTTTTTTTTTTTTTTTT DIIS        TELAPSE      196.02 TCPU      170.10
 DIIS TEST: 0.19267E+01 AT SCF   CYCLE   3 - DIIS ACTIVE - HISTORY:     3 CYCLES
 TTTTTTTTTTTTTTTTTTTTTTTTTTTTTT FDIK        TELAPSE      203.55 TCPU      177.44
 INSULATING STATE
 TOP OF VALENCE BANDS -    BAND    316; K    6; EIG -2.2879661E-01 AU
 TOP OF VALENCE BANDS -    BAND    316; K    1; EIG -2.3320481E-01 AU
 BOTTOM OF VIRTUAL BANDS - BAND    317; K    3; EIG -1.2223986E-01 AU
 INDIRECT ENERGY BAND GAP:   2.8996 eV
 BOTTOM OF VIRTUAL BANDS - BAND    317; K    1; EIG -1.2060426E-01 AU
 TTTTTTTTTTTTTTTTTTTTTTTTTTTTTT PDIG        TELAPSE      204.34 TCPU      178.23
 TOTAL ATOMIC CHARGES:
   1.1690390   1.1690390   1.1690390   1.1690390   1.1473429   1.1473429
   1.1473429   1.1473429   6.2434064   6.2434064   6.2434064   6.2434064
   5.8229723   5.8229723   5.8229723   5.8229723   6.2747663   6.2747663
   6.2747663   6.2747663   5.6435622   5.6435622   5.6435622   5.6435622
   5.7469380   5.7469380   5.7469380   5.7469380   6.1128940   6.1128940
   6.1128940   6.1128940   7.1848032   7.1848032   7.1848032   7.1848032
   7.0638251   7.0638251   7.0638251   7.0638251   7.2258536   7.2258536
   7.2258536   7.2258536   7.0291548   7.0291548   7.0291548   7.0291548
   7.0006604   7.0006604   7.0006604   7.0006604  28.7391315  28.8093895
  35.0046576  35.0046576  35.0046576  35.0046576  34.9429938  34.9429938
  34.9429938  34.9429938
 TTTTTTTTTTTTTTTTTTTTTTTTTTTTTT MOQGAD      TELAPSE      204.37 TCPU      178.25
 TTTTTTTTTTTTTTTTTTTTTTTTTTTTTT SHELLXN     TELAPSE      236.26 TCPU      207.79
 TTTTTTTTTTTTTTTTTTTTTTTTTTTTTT MONMO3      TELAPSE      238.57 TCPU      210.09
 NUMERICALLY INTEGRATED DENSITY    632.0001555591
 TTTTTTTTTTTTTTTTTTTTTTTTTTTTTT NUMDFT      TELAPSE      240.25 TCPU      211.77
 CYC   4 ETOT(AU) -2.615645030409E+04 DETOT -1.78E-01 tst  1.67E-03 PX  1.50E-01
 TTTTTTTTTTTTTTTTTTTTTTTTTTTTTT DIIS        TELAPSE      240.43 TCPU      211.94
 DIIS TEST: 0.76218E+00 AT SCF   CYCLE   4 - DIIS ACTIVE - HISTORY:     4 CYCLES
 TTTTTTTTTTTTTTTTTTTTTTTTTTTTTT FDIK        TELAPSE      246.98 TCPU      218.29
 INSULATING STATE
 TOP OF VALENCE BANDS -    BAND    316; K    6; EIG -2.3314673E-01 AU
 TOP OF VALENCE BANDS -    BAND    316; K    1; EIG -2.3598021E-01 AU
 BOTTOM OF VIRTUAL BANDS - BAND    317; K    6; EIG -1.2254180E-01 AU
 DIRECT ENERGY BAND GAP:   3.0097 eV
 BOTTOM OF VIRTUAL BANDS - BAND    317; K    1; EIG -1.2118203E-01 AU
 TTTTTTTTTTTTTTTTTTTTTTTTTTTTTT PDIG        TELAPSE      247.77 TCPU      219.08
 TOTAL ATOMIC CHARGES:
   1.1779513   1.1779513   1.1779513   1.1779513   1.1408367   1.1408367
   1.1408367   1.1408367   6.1537519   6.1537519   6.1537519   6.1537519
   5.8380485   5.8380485   5.8380485   5.8380485   6.1890872   6.1890872
   6.1890872   6.1890872   5.8088021   5.8088021   5.8088021   5.8088021
   5.8415859   5.8415859   5.8415859   5.8415859   6.0556790   6.0556790
   6.0556790   6.0556790   7.1420468   7.1420468   7.1420468   7.1420468
   7.1354278   7.1354278   7.1354278   7.1354278   7.1266082   7.1266082
   7.1266082   7.1266082   7.0205158   7.0205158   7.0205158   7.0205158
   7.0909814   7.0909814   7.0909814   7.0909814  28.7419621  28.7995672
  34.9912624  34.9912624  34.9912624  34.9912624  34.9020327  34.9020327
  34.9020327  34.9020327
 TTTTTTTTTTTTTTTTTTTTTTTTTTTTTT MOQGAD      TELAPSE      247.80 TCPU      219.10
 TTTTTTTTTTTTTTTTTTTTTTTTTTTTTT SHELLXN     TELAPSE      279.48 TCPU      248.52
 TTTTTTTTTTTTTTTTTTTTTTTTTTTTTT MONMO3      TELAPSE      280.52 TCPU      249.56
 NUMERICALLY INTEGRATED DENSITY    632.0001576784
 TTTTTTTTTTTTTTTTTTTTTTTTTTTTTT NUMDFT      TELAPSE      282.21 TCPU      251.24
 CYC   5 ETOT(AU) -2.615654619649E+04 DETOT -9.59E-02 tst  4.96E-04 PX  5.97E-02
 TTTTTTTTTTTTTTTTTTTTTTTTTTTTTT DIIS        TELAPSE      282.36 TCPU      251.38
 DIIS TEST: 0.88475E-01 AT SCF   CYCLE   5 - DIIS ACTIVE - HISTORY:     5 CYCLES
 TTTTTTTTTTTTTTTTTTTTTTTTTTTTTT FDIK        TELAPSE      289.60 TCPU      258.45
 INSULATING STATE
 TOP OF VALENCE BANDS -    BAND    316; K    6; EIG -2.3104160E-01 AU
 TOP OF VALENCE BANDS -    BAND    316; K    1; EIG -2.3365592E-01 AU
 BOTTOM OF VIRTUAL BANDS - BAND    317; K    6; EIG -1.2123928E-01 AU
 DIRECT ENERGY BAND GAP:   2.9879 eV
 BOTTOM OF VIRTUAL BANDS - BAND    317; K    1; EIG -1.1906229E-01 AU
 TTTTTTTTTTTTTTTTTTTTTTTTTTTTTT PDIG        TELAPSE      290.40 TCPU      259.25
 TOTAL ATOMIC CHARGES:
   1.1781063   1.1781063   1.1781063   1.1781063   1.1391633   1.1391633
   1.1391633   1.1391633   6.1500506   6.1500506   6.1500506   6.1500506
   5.8249996   5.8249996   5.8249996   5.8249996   6.2161265   6.2161265
   6.2161265   6.2161265   5.7841156   5.7841156   5.7841156   5.7841156
   5.7731186   5.7731186   5.7731186   5.7731186   6.0696962   6.0696962
   6.0696962   6.0696962   7.1331149   7.1331149   7.1331149   7.1331149
   7.0895543   7.0895543   7.0895543   7.0895543   7.1681198   7.1681198
   7.1681198   7.1681198   7.0551587   7.0551587   7.0551587   7.0551587
   7.0987564   7.0987564   7.0987564   7.0987564  28.7685759  28.8463523
  34.9992113  34.9992113  34.9992113  34.9992113  34.9169759  34.9169759
  34.9169759  34.9169759
 TTTTTTTTTTTTTTTTTTTTTTTTTTTTTT MOQGAD      TELAPSE      290.42 TCPU      259.27
 TTTTTTTTTTTTTTTTTTTTTTTTTTTTTT SHELLXN     TELAPSE      322.27 TCPU      288.68
 TTTTTTTTTTTTTTTTTTTTTTTTTTTTTT MONMO3      TELAPSE      323.18 TCPU      289.59
 NUMERICALLY INTEGRATED DENSITY    632.0001575730
 TTTTTTTTTTTTTTTTTTTTTTTTTTTTTT NUMDFT      TELAPSE      324.89 TCPU      291.29
 CYC   6 ETOT(AU) -2.615655865619E+04 DETOT -1.25E-02 tst  4.50E-05 PX  4.52E-02
 TTTTTTTTTTTTTTTTTTTTTTTTTTTTTT DIIS        TELAPSE      325.07 TCPU      291.47
 DIIS TEST: 0.21242E-01 AT SCF   CYCLE   6 - DIIS ACTIVE - HISTORY:     6 CYCLES
 TTTTTTTTTTTTTTTTTTTTTTTTTTTTTT FDIK        TELAPSE      331.77 TCPU      298.01
 INSULATING STATE
 TOP OF VALENCE BANDS -    BAND    316; K    6; EIG -2.3170344E-01 AU
 TOP OF VALENCE BANDS -    BAND    316; K    1; EIG -2.3440616E-01 AU
 BOTTOM OF VIRTUAL BANDS - BAND    317; K    6; EIG -1.2232537E-01 AU
 DIRECT ENERGY BAND GAP:   2.9763 eV
 BOTTOM OF VIRTUAL BANDS - BAND    317; K    1; EIG -1.2025555E-01 AU
 TTTTTTTTTTTTTTTTTTTTTTTTTTTTTT PDIG        TELAPSE      332.56 TCPU      298.80
 TOTAL ATOMIC CHARGES:
   1.1764720   1.1764720   1.1764720   1.1764720   1.1351207   1.1351207
   1.1351207   1.1351207   6.1527362   6.1527362   6.1527362   6.1527362
   5.8337510   5.8337510   5.8337510   5.8337510   6.2081529   6.2081529
   6.2081529   6.2081529   5.7724713   5.7724713   5.7724713   5.7724713
   5.7950955   5.7950955   5.7950955   5.7950955   6.0626405   6.0626405
   6.0626405   6.0626405   7.1673227   7.1673227   7.1673227   7.1673227
   7.1237633   7.1237633   7.1237633   7.1237633   7.1335352   7.1335352
   7.1335352   7.1335352   7.0196425   7.0196425   7.0196425   7.0196425
   7.0953461   7.0953461   7.0953461   7.0953461  28.7765629  28.8463194
  34.9957682  34.9957682  34.9957682  34.9957682  34.9224614  34.9224614
  34.9224614  34.9224614
 TTTTTTTTTTTTTTTTTTTTTTTTTTTTTT MOQGAD      TELAPSE      332.59 TCPU      298.82
 TTTTTTTTTTTTTTTTTTTTTTTTTTTTTT SHELLXN     TELAPSE      364.34 TCPU      328.25
 TTTTTTTTTTTTTTTTTTTTTTTTTTTTTT MONMO3      TELAPSE      365.38 TCPU      329.29
 NUMERICALLY INTEGRATED DENSITY    632.0001567534
 TTTTTTTTTTTTTTTTTTTTTTTTTTTTTT NUMDFT      TELAPSE      367.08 TCPU      330.97
 CYC   7 ETOT(AU) -2.615655854436E+04 DETOT  1.12E-04 tst  2.94E-05 PX  1.05E-02
 TTTTTTTTTTTTTTTTTTTTTTTTTTTTTT DIIS        TELAPSE      367.23 TCPU      331.13
 DIIS TEST: 0.21580E-01 AT SCF   CYCLE   7 - DIIS ACTIVE - HISTORY:     7 CYCLES
 TTTTTTTTTTTTTTTTTTTTTTTTTTTTTT FDIK        TELAPSE      373.68 TCPU      337.34
 INSULATING STATE
 TOP OF VALENCE BANDS -    BAND    316; K    6; EIG -2.3173153E-01 AU
 TOP OF VALENCE BANDS -    BAND    316; K    1; EIG -2.3445849E-01 AU
 BOTTOM OF VIRTUAL BANDS - BAND    317; K    6; EIG -1.2217710E-01 AU
 DIRECT ENERGY BAND GAP:   2.9811 eV
 BOTTOM OF VIRTUAL BANDS - BAND    317; K    1; EIG -1.1997521E-01 AU
 TTTTTTTTTTTTTTTTTTTTTTTTTTTTTT PDIG        TELAPSE      374.48 TCPU      338.13
 TOTAL ATOMIC CHARGES:
   1.1767412   1.1767412   1.1767412   1.1767412   1.1349467   1.1349467
   1.1349467   1.1349467   6.1479167   6.1479167   6.1479167   6.1479167
   5.8350220   5.8350220   5.8350220   5.8350220   6.2073296   6.2073296
   6.2073296   6.2073296   5.7897457   5.7897457   5.7897457   5.7897457
   5.7992121   5.7992121   5.7992121   5.7992121   6.0672106   6.0672106
   6.0672106   6.0672106   7.1360554   7.1360554   7.1360554   7.1360554
   7.1052619   7.1052619   7.1052619   7.1052619   7.1530754   7.1530754
   7.1530754   7.1530754   7.0425093   7.0425093   7.0425093   7.0425093
   7.0919278   7.0919278   7.0919278   7.0919278  28.7710686  28.8463922
  34.9919311  34.9919311  34.9919311  34.9919311  34.9167493  34.9167493
  34.9167493  34.9167493
 TTTTTTTTTTTTTTTTTTTTTTTTTTTTTT MOQGAD      TELAPSE      374.51 TCPU      338.15
 TTTTTTTTTTTTTTTTTTTTTTTTTTTTTT SHELLXN     TELAPSE      406.28 TCPU      367.56
 TTTTTTTTTTTTTTTTTTTTTTTTTTTTTT MONMO3      TELAPSE      407.19 TCPU      368.48
 NUMERICALLY INTEGRATED DENSITY    632.0001573139
 TTTTTTTTTTTTTTTTTTTTTTTTTTTTTT NUMDFT      TELAPSE      408.90 TCPU      370.17
 CYC   8 ETOT(AU) -2.615656140532E+04 DETOT -2.86E-03 tst  9.18E-06 PX  8.28E-03
 TTTTTTTTTTTTTTTTTTTTTTTTTTTTTT DIIS        TELAPSE      409.08 TCPU      370.36
 DIIS TEST: 0.19462E-02 AT SCF   CYCLE   8 - DIIS ACTIVE - HISTORY:     8 CYCLES
 TTTTTTTTTTTTTTTTTTTTTTTTTTTTTT FDIK        TELAPSE      418.29 TCPU      377.38
 INSULATING STATE
 TOP OF VALENCE BANDS -    BAND    316; K    6; EIG -2.3183089E-01 AU
 TOP OF VALENCE BANDS -    BAND    316; K    1; EIG -2.3450336E-01 AU
 BOTTOM OF VIRTUAL BANDS - BAND    317; K    6; EIG -1.2213616E-01 AU
 DIRECT ENERGY BAND GAP:   2.9849 eV
 BOTTOM OF VIRTUAL BANDS - BAND    317; K    1; EIG -1.1994167E-01 AU
 TTTTTTTTTTTTTTTTTTTTTTTTTTTTTT PDIG        TELAPSE      419.08 TCPU      378.17
 TOTAL ATOMIC CHARGES:
   1.1764185   1.1764185   1.1764185   1.1764185   1.1364651   1.1364651
   1.1364651   1.1364651   6.1499467   6.1499467   6.1499467   6.1499467
   5.8271584   5.8271584   5.8271584   5.8271584   6.2088161   6.2088161
   6.2088161   6.2088161   5.7883153   5.7883153   5.7883153   5.7883153
   5.7910581   5.7910581   5.7910581   5.7910581   6.0667828   6.0667828
   6.0667828   6.0667828   7.1487535   7.1487535   7.1487535   7.1487535
   7.1062163   7.1062163   7.1062163   7.1062163   7.1508357   7.1508357
   7.1508357   7.1508357   7.0360203   7.0360203   7.0360203   7.0360203
   7.0948685   7.0948685   7.0948685   7.0948685  28.7733169  28.8502231
  34.9965598  34.9965598  34.9965598  34.9965598  34.9158999  34.9158999
  34.9158999  34.9158999
 TTTTTTTTTTTTTTTTTTTTTTTTTTTTTT MOQGAD      TELAPSE      419.10 TCPU      378.19
 TTTTTTTTTTTTTTTTTTTTTTTTTTTTTT SHELLXN     TELAPSE      450.93 TCPU      407.55
 TTTTTTTTTTTTTTTTTTTTTTTTTTTTTT MONMO3      TELAPSE      451.95 TCPU      408.56
 NUMERICALLY INTEGRATED DENSITY    632.0001571911
 TTTTTTTTTTTTTTTTTTTTTTTTTTTTTT NUMDFT      TELAPSE      453.66 TCPU      410.27
 CYC   9 ETOT(AU) -2.615656164380E+04 DETOT -2.38E-04 tst  3.99E-07 PX  4.82E-03
 TTTTTTTTTTTTTTTTTTTTTTTTTTTTTT DIIS        TELAPSE      453.95 TCPU      410.55
 DIIS TEST: 0.41427E-03 AT SCF   CYCLE   9 - DIIS ACTIVE - HISTORY:     9 CYCLES
 TTTTTTTTTTTTTTTTTTTTTTTTTTTTTT FDIK        TELAPSE      462.78 TCPU      417.15
 INSULATING STATE
 TOP OF VALENCE BANDS -    BAND    316; K    6; EIG -2.3169429E-01 AU
 TOP OF VALENCE BANDS -    BAND    316; K    1; EIG -2.3443054E-01 AU
 BOTTOM OF VIRTUAL BANDS - BAND    317; K    6; EIG -1.2216059E-01 AU
 DIRECT ENERGY BAND GAP:   2.9806 eV
 BOTTOM OF VIRTUAL BANDS - BAND    317; K    1; EIG -1.1994024E-01 AU
 TTTTTTTTTTTTTTTTTTTTTTTTTTTTTT PDIG        TELAPSE      463.58 TCPU      417.95
 TOTAL ATOMIC CHARGES:
   1.1763219   1.1763219   1.1763219   1.1763219   1.1359560   1.1359560
   1.1359560   1.1359560   6.1507988   6.1507988   6.1507988   6.1507988
   5.8321536   5.8321536   5.8321536   5.8321536   6.2089647   6.2089647
   6.2089647   6.2089647   5.7840072   5.7840072   5.7840072   5.7840072
   5.7950881   5.7950881   5.7950881   5.7950881   6.0641852   6.0641852
   6.0641852   6.0641852   7.1413932   7.1413932   7.1413932   7.1413932
   7.1077952   7.1077952   7.1077952   7.1077952   7.1503173   7.1503173
   7.1503173   7.1503173   7.0396362   7.0396362   7.0396362   7.0396362
   7.0966981   7.0966981   7.0966981   7.0966981  28.7739757  28.8481113
  34.9933367  34.9933367  34.9933367  34.9933367  34.9178261  34.9178261
  34.9178261  34.9178261
 TTTTTTTTTTTTTTTTTTTTTTTTTTTTTT MOQGAD      TELAPSE      463.60 TCPU      417.97
 TTTTTTTTTTTTTTTTTTTTTTTTTTTTTT SHELLXN     TELAPSE      495.31 TCPU      447.38
 TTTTTTTTTTTTTTTTTTTTTTTTTTTTTT MONMO3      TELAPSE      496.28 TCPU      448.34
 NUMERICALLY INTEGRATED DENSITY    632.0001572582
 TTTTTTTTTTTTTTTTTTTTTTTTTTTTTT NUMDFT      TELAPSE      498.02 TCPU      450.06
 CYC  10 ETOT(AU) -2.615656166665E+04 DETOT -2.28E-05 tst  2.37E-07 PX  1.76E-03
 TTTTTTTTTTTTTTTTTTTTTTTTTTTTTT DIIS        TELAPSE      498.27 TCPU      450.31
 DIIS TEST: 0.28783E-03 AT SCF   CYCLE  10 - DIIS ACTIVE - HISTORY:    10 CYCLES
 TTTTTTTTTTTTTTTTTTTTTTTTTTTTTT FDIK        TELAPSE      504.67 TCPU      456.52
 INSULATING STATE
 TOP OF VALENCE BANDS -    BAND    316; K    6; EIG -2.3177393E-01 AU
 TOP OF VALENCE BANDS -    BAND    316; K    1; EIG -2.3445040E-01 AU
 BOTTOM OF VIRTUAL BANDS - BAND    317; K    6; EIG -1.2217008E-01 AU
 DIRECT ENERGY BAND GAP:   2.9825 eV
 BOTTOM OF VIRTUAL BANDS - BAND    317; K    1; EIG -1.1997390E-01 AU
 TTTTTTTTTTTTTTTTTTTTTTTTTTTTTT PDIG        TELAPSE      505.47 TCPU      457.32
 TOTAL ATOMIC CHARGES:
   1.1764291   1.1764291   1.1764291   1.1764291   1.1356068   1.1356068
   1.1356068   1.1356068   6.1487931   6.1487931   6.1487931   6.1487931
   5.8314421   5.8314421   5.8314421   5.8314421   6.2085551   6.2085551
   6.2085551   6.2085551   5.7872234   5.7872234   5.7872234   5.7872234
   5.7935446   5.7935446   5.7935446   5.7935446   6.0672922   6.0672922
   6.0672922   6.0672922   7.1448748   7.1448748   7.1448748   7.1448748
   7.1072635   7.1072635   7.1072635   7.1072635   7.1503455   7.1503455
   7.1503455   7.1503455   7.0379354   7.0379354   7.0379354   7.0379354
   7.0941527   7.0941527   7.0941527   7.0941527  28.7729237  28.8477547
  34.9943401  34.9943401  34.9943401  34.9943401  34.9170321  34.9170321
  34.9170321  34.9170321
 TTTTTTTTTTTTTTTTTTTTTTTTTTTTTT MOQGAD      TELAPSE      505.49 TCPU      457.34
 TTTTTTTTTTTTTTTTTTTTTTTTTTTTTT SHELLXN     TELAPSE      537.25 TCPU      486.75
 TTTTTTTTTTTTTTTTTTTTTTTTTTTTTT MONMO3      TELAPSE      537.86 TCPU      487.36
 NUMERICALLY INTEGRATED DENSITY    632.0001572073
 TTTTTTTTTTTTTTTTTTTTTTTTTTTTTT NUMDFT      TELAPSE      539.58 TCPU      489.07
 CYC  11 ETOT(AU) -2.615656170189E+04 DETOT -3.52E-05 tst  1.26E-07 PX  9.53E-04
 TTTTTTTTTTTTTTTTTTTTTTTTTTTTTT DIIS        TELAPSE      539.77 TCPU      489.26
 DIIS TEST: 0.42106E-04 AT SCF   CYCLE  11 - DIIS ACTIVE - HISTORY:    11 CYCLES
 TTTTTTTTTTTTTTTTTTTTTTTTTTTTTT FDIK        TELAPSE      547.81 TCPU      496.07
 INSULATING STATE
 TOP OF VALENCE BANDS -    BAND    316; K    6; EIG -2.3175587E-01 AU
 TOP OF VALENCE BANDS -    BAND    316; K    1; EIG -2.3446259E-01 AU
 BOTTOM OF VIRTUAL BANDS - BAND    317; K    6; EIG -1.2216018E-01 AU
 DIRECT ENERGY BAND GAP:   2.9823 eV
 BOTTOM OF VIRTUAL BANDS - BAND    317; K    1; EIG -1.1995817E-01 AU
 TTTTTTTTTTTTTTTTTTTTTTTTTTTTTT PDIG        TELAPSE      548.61 TCPU      496.86
 TOTAL ATOMIC CHARGES:
   1.1763824   1.1763824   1.1763824   1.1763824   1.1357798   1.1357798
   1.1357798   1.1357798   6.1500213   6.1500213   6.1500213   6.1500213
   5.8301821   5.8301821   5.8301821   5.8301821   6.2086944   6.2086944
   6.2086944   6.2086944   5.7861444   5.7861444   5.7861444   5.7861444
   5.7938222   5.7938222   5.7938222   5.7938222   6.0658188   6.0658188
   6.0658188   6.0658188   7.1450888   7.1450888   7.1450888   7.1450888
   7.1068008   7.1068008   7.1068008   7.1068008   7.1508637   7.1508637
   7.1508637   7.1508637   7.0378815   7.0378815   7.0378815   7.0378815
   7.0953374   7.0953374   7.0953374   7.0953374  28.7730060  28.8488978
  34.9946166  34.9946166  34.9946166  34.9946166  34.9170897  34.9170897
  34.9170897  34.9170897
 TTTTTTTTTTTTTTTTTTTTTTTTTTTTTT MOQGAD      TELAPSE      548.63 TCPU      496.88
 TTTTTTTTTTTTTTTTTTTTTTTTTTTTTT SHELLXN     TELAPSE      580.71 TCPU      526.28
 TTTTTTTTTTTTTTTTTTTTTTTTTTTTTT MONMO3      TELAPSE      581.65 TCPU      527.21
 NUMERICALLY INTEGRATED DENSITY    632.0001572031
 TTTTTTTTTTTTTTTTTTTTTTTTTTTTTT NUMDFT      TELAPSE      583.38 TCPU      528.93
 CYC  12 ETOT(AU) -2.615656170616E+04 DETOT -4.27E-06 tst  3.27E-08 PX  4.60E-04
 TTTTTTTTTTTTTTTTTTTTTTTTTTTTTT DIIS        TELAPSE      583.58 TCPU      529.13
 DIIS TEST: 0.13492E-04 AT SCF   CYCLE  12 - DIIS ACTIVE - HISTORY:    12 CYCLES
 TTTTTTTTTTTTTTTTTTTTTTTTTTTTTT FDIK        TELAPSE      593.43 TCPU      535.54
 INSULATING STATE
 TOP OF VALENCE BANDS -    BAND    316; K    6; EIG -2.3176567E-01 AU
 TOP OF VALENCE BANDS -    BAND    316; K    1; EIG -2.3445765E-01 AU
 BOTTOM OF VIRTUAL BANDS - BAND    317; K    6; EIG -1.2214739E-01 AU
 DIRECT ENERGY BAND GAP:   2.9829 eV
 BOTTOM OF VIRTUAL BANDS - BAND    317; K    1; EIG -1.1994697E-01 AU
 TTTTTTTTTTTTTTTTTTTTTTTTTTTTTT PDIG        TELAPSE      594.22 TCPU      536.33
 TOTAL ATOMIC CHARGES:
   1.1763816   1.1763816   1.1763816   1.1763816   1.1358206   1.1358206
   1.1358206   1.1358206   6.1496794   6.1496794   6.1496794   6.1496794
   5.8308932   5.8308932   5.8308932   5.8308932   6.2088283   6.2088283
   6.2088283   6.2088283   5.7863882   5.7863882   5.7863882   5.7863882
   5.7934107   5.7934107   5.7934107   5.7934107   6.0663773   6.0663773
   6.0663773   6.0663773   7.1441436   7.1441436   7.1441436   7.1441436
   7.1077092   7.1077092   7.1077092   7.1077092   7.1499630   7.1499630
   7.1499630   7.1499630   7.0381831   7.0381831   7.0381831   7.0381831
[...]
 TTTTTTTTTTTTTTTTTTTTTTTTTTTTTT MOQGAD      TELAPSE    48389.02 TCPU    47946.81
 TTTTTTTTTTTTTTTTTTTTTTTTTTTTTT CP_MONMON   TELAPSE    48397.71 TCPU    47955.47
 DIIS TEST: 0.13082E-02 AT CPHF  CYCLE   9 - DIIS ACTIVE - HISTORY:     9 CYCLES
 CYCLE   9   ALPHA 1570.234737  EPSILON    4.517824  DELTA   -1.8967E-02
 TTTTTTTTTTTTTTTTTTTTTTTTTTTTTT MOQGAD      TELAPSE    48867.89 TCPU    48421.99
 TTTTTTTTTTTTTTTTTTTTTTTTTTTTTT CP_MONMON   TELAPSE    48876.58 TCPU    48430.65
 DIIS TEST: 0.11876E-02 AT CPHF  CYCLE  10 - DIIS ACTIVE - HISTORY:    10 CYCLES
 CYCLE  10   ALPHA 1570.256446  EPSILON    4.517872  DELTA    2.1709E-02
 TTTTTTTTTTTTTTTTTTTTTTTTTTTTTT MOQGAD      TELAPSE    49342.88 TCPU    48893.56
 TTTTTTTTTTTTTTTTTTTTTTTTTTTTTT CP_MONMON   TELAPSE    49351.58 TCPU    48902.23
 DIIS TEST: 0.67867E-03 AT CPHF  CYCLE  11 - DIIS ACTIVE - HISTORY:    11 CYCLES
 CYCLE  11   ALPHA 1570.217815  EPSILON    4.517786  DELTA   -3.8631E-02
 TTTTTTTTTTTTTTTTTTTTTTTTTTTTTT MOQGAD      TELAPSE    49818.09 TCPU    49364.10
 TTTTTTTTTTTTTTTTTTTTTTTTTTTTTT CP_MONMON   TELAPSE    49826.78 TCPU    49372.77
 DIIS TEST: 0.11018E-03 AT CPHF  CYCLE  12 - DIIS ACTIVE - HISTORY:    12 CYCLES
 CYCLE  12   ALPHA 1570.171427  EPSILON    4.517682  DELTA   -4.6389E-02
 TTTTTTTTTTTTTTTTTTTTTTTTTTTTTT MOQGAD      TELAPSE    50292.87 TCPU    49835.41
 TTTTTTTTTTTTTTTTTTTTTTTTTTTTTT CP_MONMON   TELAPSE    50301.57 TCPU    49844.08
 DIIS TEST: 0.13230E-04 AT CPHF  CYCLE  13 - DIIS ACTIVE - HISTORY:    13 CYCLES
 CYCLE  13   ALPHA 1570.161153  EPSILON    4.517659  DELTA   -1.0274E-02
 TTTTTTTTTTTTTTTTTTTTTTTTTTTTTT MOQGAD      TELAPSE    50772.64 TCPU    50309.82
 TTTTTTTTTTTTTTTTTTTTTTTTTTTTTT CP_MONMON   TELAPSE    50781.34 TCPU    50318.47
 DIIS TEST: 0.10188E-05 AT CPHF  CYCLE  14 - DIIS ACTIVE - HISTORY:    14 CYCLES
 CYCLE  14   ALPHA 1570.157118  EPSILON    4.517650  DELTA   -4.0345E-03
 TTTTTTTTTTTTTTTTTTTTTTTTTTTTTT MOQGAD      TELAPSE    51251.14 TCPU    50783.94
 TTTTTTTTTTTTTTTTTTTTTTTTTTTTTT CP_MONMON   TELAPSE    51259.84 TCPU    50792.56
 DIIS TEST: 0.10544E-06 AT CPHF  CYCLE  15 - DIIS ACTIVE - HISTORY:    15 CYCLES
 CYCLE  15   ALPHA 1570.155306  EPSILON    4.517646  DELTA   -1.8126E-03
 TTTTTTTTTTTTTTTTTTTTTTTTTTTTTT MOQGAD      TELAPSE    51729.16 TCPU    51258.19
 TTTTTTTTTTTTTTTTTTTTTTTTTTTTTT CP_MONMON   TELAPSE    51737.86 TCPU    51266.85
 DIIS TEST: 0.23135E-07 AT CPHF  CYCLE  16 - DIIS ACTIVE - HISTORY:    16 CYCLES
 CYCLE  16   ALPHA 1570.155023  EPSILON    4.517645  DELTA   -2.8290E-04
 TTTTTTTTTTTTTTTTTTTTTTTTTTTTTT CP_SC       TELAPSE    51775.82 TCPU    51302.99

 *******************************************************************************

 ELECTRIC FIELD APPLIED ALONG CARTESIAN DIRECTION Z

 *******************************************************************************
 THE NUMBER OF SYMMETRY OPERATORS HAS BEEN REDUCED FROM  4 TO  1

 NEW GRID IN RECIPROCAL SPACE
 *******************************************************************************
 POINTS IN THE IBZ                  14 SHRINKING FACTORS               3  3  3
 *******************************************************************************
 *** K POINTS COORDINATES (OBLIQUE COORDINATES IN UNITS OF SHRINK FAC. )
   1-R(  0  0  0)   2-C(  1  0  0)   3-C(  0  1  2)   4-C(  2  0  1)
   5-C(  0  2  0)   6-C(  1  1  0)   7-C(  1  1  1)   8-C(  1  0  1)
   9-C(  0  1  1)  10-C(  2  1  0)  11-C(  0  0  2)  12-C(  2  1  1)
  13-C(  2  1  2)  14-C(  2  2  1)

 GCALCO - MAX INDICES DIRECT LATTICE VECTOR    14    14    16
 NO.OF VECTORS CREATED 6999 STARS  482 RMAX   211.17670 BOHR
 TTTTTTTTTTTTTTTTTTTTTTTTTTTTTT gordsh1     TELAPSE    51794.21 TCPU    51321.03

 MATRIX SIZE: P(G) 1969524, F(G)  985572, P(G) IRR  987410, F(G) IRR  987410
 MAX G-VECTOR INDEX FOR 1- AND 2-ELECTRON INTEGRALS  63

 TTTTTTTTTTTTTTTTTTTTTTTTTTTTTT INPUT       TELAPSE    51810.04 TCPU    51336.81
 TTTTTTTTTTTTTTTTTTTTTTTTTTTTTT SYMM        TELAPSE    51810.04 TCPU    51336.81

 ***** NEW REFERENCE GEOMETRY *****
 TTTTTTTTTTTTTTTTTTTTTTTTTTTTTT INT_SCREEN  TELAPSE    51810.05 TCPU    51336.82
 INFORMATION **** EXCBUF **** EXCH. BIPO BUFFER: WORDS USED =           0

 DFT PARAMETERS

     ATOM       ELECTRONS   NET CHARGE   R(ANGSTROM)
   1   1  H       1.0000      0.0000     1.11000000
   9   6  C       6.0000      0.0000     0.77000000
  33   7  N       7.0000      0.0000     0.74000000
  53  30  ZN     30.0000      0.0000     1.37000000
  55  35  BR     35.0000      0.0000     1.14000000

 SIZE OF GRID=    1878118
 TTTTTTTTTTTTTTTTTTTTTTTTTTTTTT MAKE_GRID2  TELAPSE    51811.31 TCPU    51338.07
 BECKE WEIGHT FUNCTION
 RADSAFE =     2.00
 TOLERANCES - DENSITY:10**- 6; POTENTIAL:10**- 9; GRID WGT:10**-14

 RADIAL INTEGRATION  - INTERVALS (POINTS,UPPER LIMIT):            1( 75,  4.0*R)

 ANGULAR INTEGRATION - INTERVALS (ACCURACY LEVEL [N. POINTS] UPPER LIMIT):
  1(  4[  86]   0.2)  2(  8[ 194]   0.5)  3( 12[ 350]   0.9)  4( 16[ 974]   3.5)
  5( 12[ 350]9999.0)
 TTTTTTTTTTTTTTTTTTTTTTTTTTTTTT INT_CALC    TELAPSE    51811.37 TCPU    51338.13
 CYCLE   0   ALPHA 1001.569250  EPSILON    3.243833  DELTA    1.0016E+03
 TTTTTTTTTTTTTTTTTTTTTTTTTTTTTT MOQGAD      TELAPSE    52269.30 TCPU    51793.76
 TTTTTTTTTTTTTTTTTTTTTTTTTTTTTT CP_MONMON   TELAPSE    52278.00 TCPU    51802.42
 DIIS TEST: 0.15624E+03 AT CPHF  CYCLE   1 - MIX    0 %
 CYCLE   1   ALPHA  426.671457  EPSILON    1.955879  DELTA   -5.7490E+02
 TTTTTTTTTTTTTTTTTTTTTTTTTTTTTT MOQGAD      TELAPSE    52743.42 TCPU    52263.88
 TTTTTTTTTTTTTTTTTTTTTTTTTTTTTT CP_MONMON   TELAPSE    52752.11 TCPU    52272.53
 DIIS TEST: 0.16433E+04 AT CPHF  CYCLE   2 - DIIS ACTIVE - HISTORY:     2 CYCLES
 CYCLE   2   ALPHA  729.817265  EPSILON    2.635022  DELTA    3.0315E+02
 TTTTTTTTTTTTTTTTTTTTTTTTTTTTTT MOQGAD      TELAPSE    53221.55 TCPU    52738.40
 TTTTTTTTTTTTTTTTTTTTTTTTTTTTTT CP_MONMON   TELAPSE    53230.24 TCPU    52747.05
 DIIS TEST: 0.36016E+02 AT CPHF  CYCLE   3 - DIIS ACTIVE - HISTORY:     3 CYCLES
 CYCLE   3   ALPHA  784.290037  EPSILON    2.757058  DELTA    5.4473E+01
 TTTTTTTTTTTTTTTTTTTTTTTTTTTTTT MOQGAD      TELAPSE    53699.24 TCPU    53212.31
 TTTTTTTTTTTTTTTTTTTTTTTTTTTTTT CP_MONMON   TELAPSE    53707.93 TCPU    53220.97
 DIIS TEST: 0.97790E+01 AT CPHF  CYCLE   4 - DIIS ACTIVE - HISTORY:     4 CYCLES
 CYCLE   4   ALPHA  788.677013  EPSILON    2.766887  DELTA    4.3870E+00
 TTTTTTTTTTTTTTTTTTTTTTTTTTTTTT MOQGAD      TELAPSE    54170.79 TCPU    53679.83
 TTTTTTTTTTTTTTTTTTTTTTTTTTTTTT CP_MONMON   TELAPSE    54179.48 TCPU    53688.50
 DIIS TEST: 0.62049E+00 AT CPHF  CYCLE   5 - DIIS ACTIVE - HISTORY:     5 CYCLES
 CYCLE   5   ALPHA  789.309444  EPSILON    2.768303  DELTA    6.3243E-01
 TTTTTTTTTTTTTTTTTTTTTTTTTTTTTT MOQGAD      TELAPSE    54640.48 TCPU    54145.37
 TTTTTTTTTTTTTTTTTTTTTTTTTTTTTT CP_MONMON   TELAPSE    54649.17 TCPU    54154.02
 DIIS TEST: 0.61069E-01 AT CPHF  CYCLE   6 - DIIS ACTIVE - HISTORY:     6 CYCLES
 CYCLE   6   ALPHA  789.819934  EPSILON    2.769447  DELTA    5.1049E-01
 TTTTTTTTTTTTTTTTTTTTTTTTTTTTTT MOQGAD      TELAPSE    55109.53 TCPU    54610.31
 TTTTTTTTTTTTTTTTTTTTTTTTTTTTTT CP_MONMON   TELAPSE    55118.22 TCPU    54618.97
 DIIS TEST: 0.20984E-01 AT CPHF  CYCLE   7 - DIIS ACTIVE - HISTORY:     7 CYCLES
 CYCLE   7   ALPHA  789.882479  EPSILON    2.769587  DELTA    6.2545E-02
 TTTTTTTTTTTTTTTTTTTTTTTTTTTTTT MOQGAD      TELAPSE    55581.06 TCPU    55075.01
 TTTTTTTTTTTTTTTTTTTTTTTTTTTTTT CP_MONMON   TELAPSE    55589.75 TCPU    55083.67
 DIIS TEST: 0.26165E-02 AT CPHF  CYCLE   8 - DIIS ACTIVE - HISTORY:     8 CYCLES
 CYCLE   8   ALPHA  789.927964  EPSILON    2.769689  DELTA    4.5485E-02
 TTTTTTTTTTTTTTTTTTTTTTTTTTTTTT MOQGAD      TELAPSE    56054.78 TCPU    55544.57
 TTTTTTTTTTTTTTTTTTTTTTTTTTTTTT CP_MONMON   TELAPSE    56063.47 TCPU    55553.22
 DIIS TEST: 0.41323E-03 AT CPHF  CYCLE   9 - DIIS ACTIVE - HISTORY:     9 CYCLES
 CYCLE   9   ALPHA  789.896327  EPSILON    2.769618  DELTA   -3.1638E-02
 TTTTTTTTTTTTTTTTTTTTTTTTTTTTTT MOQGAD      TELAPSE    56527.93 TCPU    56013.47
 TTTTTTTTTTTTTTTTTTTTTTTTTTTTTT CP_MONMON   TELAPSE    56536.62 TCPU    56022.13
 DIIS TEST: 0.29079E-03 AT CPHF  CYCLE  10 - DIIS ACTIVE - HISTORY:    10 CYCLES
 CYCLE  10   ALPHA  789.897924  EPSILON    2.769622  DELTA    1.5969E-03
 TTTTTTTTTTTTTTTTTTTTTTTTTTTTTT MOQGAD      TELAPSE    57015.53 TCPU    56497.24
 TTTTTTTTTTTTTTTTTTTTTTTTTTTTTT CP_MONMON   TELAPSE    57024.23 TCPU    56505.90
 DIIS TEST: 0.23592E-03 AT CPHF  CYCLE  11 - DIIS ACTIVE - HISTORY:    11 CYCLES
 CYCLE  11   ALPHA  789.891150  EPSILON    2.769607  DELTA   -6.7740E-03
 TTTTTTTTTTTTTTTTTTTTTTTTTTTTTT MOQGAD      TELAPSE    57490.84 TCPU    56969.17
 TTTTTTTTTTTTTTTTTTTTTTTTTTTTTT CP_MONMON   TELAPSE    57499.53 TCPU    56977.82
 DIIS TEST: 0.31901E-04 AT CPHF  CYCLE  12 - DIIS ACTIVE - HISTORY:    12 CYCLES
 CYCLE  12   ALPHA  789.882538  EPSILON    2.769587  DELTA   -8.6121E-03
 TTTTTTTTTTTTTTTTTTTTTTTTTTTTTT MOQGAD      TELAPSE    57964.39 TCPU    57439.15
 TTTTTTTTTTTTTTTTTTTTTTTTTTTTTT CP_MONMON   TELAPSE    57973.08 TCPU    57447.81
 DIIS TEST: 0.69909E-05 AT CPHF  CYCLE  13 - DIIS ACTIVE - HISTORY:    13 CYCLES
 CYCLE  13   ALPHA  789.878118  EPSILON    2.769577  DELTA   -4.4197E-03
 TTTTTTTTTTTTTTTTTTTTTTTTTTTTTT MOQGAD      TELAPSE    58435.32 TCPU    57905.80
 TTTTTTTTTTTTTTTTTTTTTTTTTTTTTT CP_MONMON   TELAPSE    58444.01 TCPU    57914.45
 DIIS TEST: 0.24159E-06 AT CPHF  CYCLE  14 - DIIS ACTIVE - HISTORY:    14 CYCLES
 CYCLE  14   ALPHA  789.877636  EPSILON    2.769576  DELTA   -4.8178E-04
 TTTTTTTTTTTTTTTTTTTTTTTTTTTTTT CP_SC       TELAPSE    58481.61 TCPU    57948.96

 *******************************************************************************

 POLARIZABILITY (ALPHA), DIELECTRIC (EPSILON) AND FIRST-ORDER ELECTRIC
 SUSCEPTIBILITY (CHI(1)) TENSORS (INDEPENDENT COMPONENTS)

  FR.(eV) COMP.   ALPHA(Re,Im)           EPSILON(Re,Im)                CHI(1)
  2.331   XX    1570.1544       0.0000       4.5176       0.0000       3.5176
  2.331   XY       0.0003       0.0000       0.0000       0.0000       0.0000
  2.331   XZ       0.0000       0.0000       0.0000       0.0000       0.0000
  2.331   YY    1570.1550       0.0000       4.5176       0.0000       3.5176
  2.331   YZ       0.0000       0.0000       0.0000       0.0000       0.0000
  2.331   ZZ     789.8776       0.0000       2.7696       0.0000       1.7696

 DIELECTRIC TENSOR

 TENSOR IN PRINCIPAL AXES SYSTEM
 AA  4.517643E+00 BB  4.517645E+00 CC  2.769576E+00

 REFRACTIVE INDICES 
 AA  1.664204E+00 BB  2.125475E+00 CC  2.125475E+00

 OPTICALLY ANISOTROPIC - UNIAXIAL CRYSTAL

 BIREFRINGENCE =  0.4613 (NEGATIVE) - OBLATE OPTICAL ELLIPSOID

 EPSILON=N**2=1+CHI(1)=1+ALPHA*4*PI/V,   4*PI/V=   0.00224 BOHR**(-3)
 ALPHA IN BOHR**3; EPSILON AND CHI(1) ARE DIMENSIONLESS.
 *******************************************************************************


  Pockels Effect beta(-omega;omega,0) with omega=   1.1653 eV


 SIZE OF GRID=    1878118
 TTTTTTTTTTTTTTTTTTTTTTTTTTTTTT MAKE_GRID2  TELAPSE    58758.02 TCPU    58223.72
 BECKE WEIGHT FUNCTION
 RADSAFE =     2.00
 TOLERANCES - DENSITY:10**- 6; POTENTIAL:10**- 9; GRID WGT:10**-14

 RADIAL INTEGRATION  - INTERVALS (POINTS,UPPER LIMIT):            1( 75,  4.0*R)

 ANGULAR INTEGRATION - INTERVALS (ACCURACY LEVEL [N. POINTS] UPPER LIMIT):
  1(  4[  86]   0.2)  2(  8[ 194]   0.5)  3( 12[ 350]   0.9)  4( 16[ 974]   3.5)
  5( 12[ 350]9999.0)

 SIZE OF GRID=    1878118
 TTTTTTTTTTTTTTTTTTTTTTTTTTTTTT MAKE_GRID2  TELAPSE    58760.03 TCPU    58225.28
 BECKE WEIGHT FUNCTION
 RADSAFE =     2.00
 TOLERANCES - DENSITY:10**- 6; POTENTIAL:10**- 9; GRID WGT:10**-14

 RADIAL INTEGRATION  - INTERVALS (POINTS,UPPER LIMIT):            1( 75,  4.0*R)

 ANGULAR INTEGRATION - INTERVALS (ACCURACY LEVEL [N. POINTS] UPPER LIMIT):
  1(  4[  86]   0.2)  2(  8[ 194]   0.5)  3( 12[ 350]   0.9)  4( 16[ 974]   3.5)
  5( 12[ 350]9999.0)
 *******************************************************************************

 DC-POCKELS AND SECOND ELECTRIC SUSCEPTIBILITY (CHI(2))
 TENSORS (INDEPENDENT COMPONENTS)

BETA                                         CHI(2)       d(MKS)       d(cgs)
 *******************************************************************************

     XXX         -0.1334E-01  -0.1494E-04  -0.1452E-04  -0.3465E-06
     XXY         -0.1104E-03  -0.1237E-06  -0.1202E-06  -0.2869E-08
     XXZ          0.4742E+03   0.5312E+00   0.5165E+00   0.1232E-01
     XYX          0.5046E-02   0.5652E-05   0.5496E-05   0.1311E-06
     XYY         -0.6918E-02  -0.7749E-05  -0.7535E-05  -0.1798E-06
     XYZ         -0.1741E+04  -0.1950E+01  -0.1896E+01  -0.4524E-01
     XZX          0.4166E+03   0.4667E+00   0.4538E+00   0.1083E-01
     XZY         -0.1694E+04  -0.1897E+01  -0.1845E+01  -0.4401E-01
     XZZ         -0.8084E-02  -0.9056E-05  -0.8805E-05  -0.2101E-06
     YXX          0.5055E-02   0.5663E-05   0.5506E-05   0.1314E-06
     YXY         -0.6881E-02  -0.7708E-05  -0.7495E-05  -0.1788E-06
     YXZ         -0.1741E+04  -0.1950E+01  -0.1896E+01  -0.4524E-01
     YYX         -0.1375E-03  -0.1540E-06  -0.1498E-06  -0.3573E-08
     YYY          0.1059E-01   0.1186E-04   0.1153E-04   0.2751E-06
     YYZ         -0.4742E+03  -0.5312E+00  -0.5165E+00  -0.1232E-01
     YZX         -0.1694E+04  -0.1897E+01  -0.1845E+01  -0.4401E-01
     YZY         -0.4166E+03  -0.4667E+00  -0.4538E+00  -0.1083E-01
     YZZ          0.6434E-02   0.7207E-05   0.7008E-05   0.1672E-06
     ZXX          0.4166E+03   0.4666E+00   0.4537E+00   0.1082E-01
     ZXY         -0.1694E+04  -0.1898E+01  -0.1845E+01  -0.4402E-01
     ZXZ         -0.8172E-02  -0.9154E-05  -0.8901E-05  -0.2124E-06
     ZYX         -0.1694E+04  -0.1898E+01  -0.1845E+01  -0.4402E-01
     ZYY         -0.4166E+03  -0.4667E+00  -0.4538E+00  -0.1083E-01
     ZYZ          0.6438E-02   0.7211E-05   0.7012E-05   0.1673E-06
     ZZX          0.1571E-03   0.1760E-06   0.1712E-06   0.4083E-08
     ZZY          0.7241E-04   0.8112E-07   0.7887E-07   0.1882E-08
     ZZZ         -0.4309E-01  -0.4827E-04  -0.4693E-04  -0.1120E-05
 *******************************************************************************
 CHI(2) = BETA*2PI/V

 BETA AND CHI(2) IN A.U.:    [BETA] = M**(-1/2) L**(7/2) T
                             [CHI(2)] = 1/F
                             (L=LENGTH, M=MASS, T=TIME, F=FIELD INTENSITY)

 ELECTRIC SUSCEPTIBILITY IN THE SECOND HARMONIC GENERATION (SHG) CONVENTION IS:
                   d(A.U.)= 1/2 CHI(2)
                   d(MKS) = d(A.U.)/0.514220632 pm/V
                   d(CGS) = d(A.U.)/(4PI*1.7152535)  10**(-7) esu

 FIELD INTENSITY: 1 A.U. = 0.514220632*10**(11) V/m = 1.7152535*10**7 esu
 BEWARE:                CHI(2)=P/(E0*F**2)   (MKS)
                        CHI(2)=P/F**2        (CGS)
 WHERE P IS THE POLARIZATION VECTOR AND F IS THE APPLIED ELECTRIC FIELD.
 CONSISTENCY IS  PRESERVED BY MULTIPLYING THE CGS VALUE TIMES THE PERMITTIVITY
 OF THE VACUUM, E0 (CONVERSION FACTORS FROM www.physics.nist.gov/constants).
 IN PARENTHESIS: BETA BEFORE SYMMETRIZATION.

  SHG Effect beta(-2omega;omega,omega) with omega=   1.1653 eV


 SIZE OF GRID=    1878118
 TTTTTTTTTTTTTTTTTTTTTTTTTTTTTT MAKE_GRID2  TELAPSE    59048.16 TCPU    58512.64
 BECKE WEIGHT FUNCTION
 RADSAFE =     2.00
 TOLERANCES - DENSITY:10**- 6; POTENTIAL:10**- 9; GRID WGT:10**-14

 RADIAL INTEGRATION  - INTERVALS (POINTS,UPPER LIMIT):            1( 75,  4.0*R)

 ANGULAR INTEGRATION - INTERVALS (ACCURACY LEVEL [N. POINTS] UPPER LIMIT):
  1(  4[  86]   0.2)  2(  8[ 194]   0.5)  3( 12[ 350]   0.9)  4( 16[ 974]   3.5)
  5( 12[ 350]9999.0)

 SIZE OF GRID=    1878118
 TTTTTTTTTTTTTTTTTTTTTTTTTTTTTT MAKE_GRID2  TELAPSE    59049.63 TCPU    58514.10
 BECKE WEIGHT FUNCTION
 RADSAFE =     2.00
 TOLERANCES - DENSITY:10**- 6; POTENTIAL:10**- 9; GRID WGT:10**-14

 RADIAL INTEGRATION  - INTERVALS (POINTS,UPPER LIMIT):            1( 75,  4.0*R)

 ANGULAR INTEGRATION - INTERVALS (ACCURACY LEVEL [N. POINTS] UPPER LIMIT):
  1(  4[  86]   0.2)  2(  8[ 194]   0.5)  3( 12[ 350]   0.9)  4( 16[ 974]   3.5)
  5( 12[ 350]9999.0)
 *******************************************************************************

 SECOND HARMONIC GENERATION (SHG)  AND SECOND ELECTRIC SUSCEPTIBILITY (CHI(2))
 TENSORS (INDEPENDENT COMPONENTS)

BETA                                         CHI(2)       d(MKS)       d(cgs)
 *******************************************************************************

     XXX         -0.2337E-01  -0.2618E-04  -0.2546E-04  -0.6074E-06
     XXY          0.5884E-02   0.6591E-05   0.6409E-05   0.1529E-06
     XXZ          0.7503E+03   0.8404E+00   0.8172E+00   0.1950E-01
     XYX          0.5884E-02   0.6591E-05   0.6409E-05   0.1529E-06
     XYY         -0.8259E-02  -0.9252E-05  -0.8996E-05  -0.2146E-06
     XYZ         -0.2290E+04  -0.2565E+01  -0.2494E+01  -0.5950E-01
     XZX          0.7503E+03   0.8404E+00   0.8172E+00   0.1950E-01
     XZY         -0.2290E+04  -0.2565E+01  -0.2494E+01  -0.5950E-01
     XZZ         -0.9524E-02  -0.1067E-04  -0.1037E-04  -0.2475E-06
     YXX          0.5603E-02   0.6276E-05   0.6103E-05   0.1456E-06
     YXY         -0.8122E-02  -0.9098E-05  -0.8847E-05  -0.2111E-06
     YXZ         -0.2290E+04  -0.2565E+01  -0.2494E+01  -0.5950E-01
     YYX         -0.8122E-02  -0.9098E-05  -0.8847E-05  -0.2111E-06
     YYY          0.1886E-01   0.2112E-04   0.2054E-04   0.4900E-06
     YYZ         -0.7503E+03  -0.8405E+00  -0.8172E+00  -0.1950E-01
     YZX         -0.2290E+04  -0.2565E+01  -0.2494E+01  -0.5950E-01
     YZY         -0.7503E+03  -0.8405E+00  -0.8172E+00  -0.1950E-01
     YZZ          0.7832E-02   0.8773E-05   0.8530E-05   0.2035E-06
     ZXX          0.7359E+03   0.8243E+00   0.8015E+00   0.1912E-01
     ZXY         -0.2215E+04  -0.2482E+01  -0.2413E+01  -0.5757E-01
     ZXZ         -0.8805E-02  -0.9863E-05  -0.9590E-05  -0.2288E-06
     ZYX         -0.2215E+04  -0.2482E+01  -0.2413E+01  -0.5757E-01
     ZYY         -0.7359E+03  -0.8243E+00  -0.8015E+00  -0.1912E-01
     ZYZ          0.6964E-02   0.7801E-05   0.7585E-05   0.1810E-06
     ZZX         -0.8805E-02  -0.9863E-05  -0.9590E-05  -0.2288E-06
     ZZY          0.6964E-02   0.7801E-05   0.7585E-05   0.1810E-06
     ZZZ         -0.3647E-01  -0.4085E-04  -0.3972E-04  -0.9476E-06
 *******************************************************************************
 CHI(2) = BETA*2PI/V

 BETA AND CHI(2) IN A.U.:    [BETA] = M**(-1/2) L**(7/2) T
                             [CHI(2)] = 1/F
                             (L=LENGTH, M=MASS, T=TIME, F=FIELD INTENSITY)

 ELECTRIC SUSCEPTIBILITY IN THE SECOND HARMONIC GENERATION (SHG) CONVENTION IS:
                   d(A.U.)= 1/2 CHI(2)
                   d(MKS) = d(A.U.)/0.514220632 pm/V
                   d(CGS) = d(A.U.)/(4PI*1.7152535)  10**(-7) esu

 FIELD INTENSITY: 1 A.U. = 0.514220632*10**(11) V/m = 1.7152535*10**7 esu
 BEWARE:                CHI(2)=P/(E0*F**2)   (MKS)
                        CHI(2)=P/F**2        (CGS)
 WHERE P IS THE POLARIZATION VECTOR AND F IS THE APPLIED ELECTRIC FIELD.
 CONSISTENCY IS  PRESERVED BY MULTIPLYING THE CGS VALUE TIMES THE PERMITTIVITY
 OF THE VACUUM, E0 (CONVERSION FACTORS FROM www.physics.nist.gov/constants).
 IN PARENTHESIS: BETA BEFORE SYMMETRIZATION.

 *******************************************************************************


 GCALCO - MAX INDICES DIRECT LATTICE VECTOR    14    14    16
 NO.OF VECTORS CREATED 6999 STARS  482 RMAX   211.17670 BOHR

 CAPPA:IS1  3;IS2  3;IS3  3; K PTS MONK NET   6; SYMMOPS:K SPACE   8;G SPACE   4

 TTTTTTTTTTTTTTTTTTTTTTTTTTTTTT END         TELAPSE    59049.82 TCPU    58514.27
 EEEEEEEEEE TERMINATION  DATE 22 01 2024 TIME 13:52:17.8
NODE    0 CPU TIME =     58514.274
    TOTAL CPU TIME =   3746521.657
trying normal rsh (/usr/bin/rsh)
exec: No such file or directory
trying normal rsh (/usr/bin/rsh)
exec: No such file or directory
trying normal rsh (/usr/bin/rsh)
exec: No such file or directory
trying normal rsh (/usr/bin/rsh)
exec: No such file or directory
