Loading crystal17/1.0.2/intel/19.0
  Loading requirement: intel/19.0 ompi/4.0.1/intel/19.0
 PROCESS            0  OF           24  WORKING
 PROCESS            1  OF           24  WORKING
 PROCESS            3  OF           24  WORKING
 PROCESS            6  OF           24  WORKING
 PROCESS            7  OF           24  WORKING
 PROCESS            8  OF           24  WORKING
 PROCESS            9  OF           24  WORKING
 PROCESS           10  OF           24  WORKING
 PROCESS           11  OF           24  WORKING
 PROCESS           14  OF           24  WORKING
 PROCESS           15  OF           24  WORKING
 PROCESS           18  OF           24  WORKING
 PROCESS           19  OF           24  WORKING
 PROCESS           20  OF           24  WORKING
 PROCESS           21  OF           24  WORKING
 PROCESS           22  OF           24  WORKING
 PROCESS           23  OF           24  WORKING
 PROCESS            2  OF           24  WORKING
 PROCESS            5  OF           24  WORKING
 PROCESS           12  OF           24  WORKING
 PROCESS           13  OF           24  WORKING
 PROCESS           16  OF           24  WORKING
 PROCESS           17  OF           24  WORKING
 PROCESS            4  OF           24  WORKING

         
 *******************************************************************************
 *                                                                             *
 *                               CRYSTAL17                                     *
 *                      public : 1.0.2 - March 1st, 2018                       *
 *                       HTTP://WWW.CRYSTAL.UNITO.IT                           *
 *                                                                             *
 *                              MAIN AUTHORS                                   *
 *                                                                             *
 *  R. DOVESI(1,11), V.R. SAUNDERS(2), C. ROETTI(1,11), R. ORLANDO(1,11),      *
 *  C.M. ZICOVICH-WILSON(1,3), F. PASCALE(4), B. CIVALLERI(1,11),              *
 *  K. DOLL(5), N.M. HARRISON(2,6), I.J. BUSH(7), Ph. D'ARCO(8),               *
 *  M. LLUNELL(9), M. CAUSA'(10), Y. NOEL(8), L. MASCHIO(1,11), A. ERBA(1,11)  *
 *  M. RE'RAT(14), S. CASASSA(1,11)                                            *
 *                                                                             *
 *        CONTRIBUTIONS TO THE CODE HAVE ALSO BEEN GIVEN BY                    *
 *                                                                             *
 *  M. FERRABONE(1,11), M. DE LA PIERRE(1,11), M. FERRERO(1,11),               *
 *  J. BAIMA(1,11), E. ALBANESE(1,11), M.F. PEINTINGER(12), R. BAST(13),       *
 *  B. KIRTMAN(15), V. LACIVITA(1,11), R. DEMICHELIS(1,16)                     *
 *  G. BRANDEBURG(17), S. SALUSTRO(1,11), G. SANSONE(1,11)                     *
 *  M.T. RUGGIERO(18)                                                          *
 *                                                                             *
 * (1) THEORETICAL CHEMISTRY GROUP - UNIVERSITA' DI TORINO - TORINO (ITALY)    *
 * (2) COMPUTATIONAL SCIENCE & ENGINEERING DEPARTMENT - STFC DARESBURY (UK)    *
 * (3) UNIVERSIDAD AUTONOMA DEL ESTADO DE MORELOS - CUERNAVACA (MEXICO)        *
 * (4) UNIVERSITE' DE LORRAINE - NANCY (FRANCE)                                *
 * (5) UNIVERSITAET STUTTGART- STUTTGART (GERMANY)                             *
 * (6) IMPERIAL COLLEGE - LONDON (UK)                                          *
 * (7) OXFORD E-RESEARCH CENTRE - OXFORD (UK)                                  *
 * (8) UPMC - SORBONNE UNIVERSITES - PARIS (FRANCE)                            *
 * (9) UNIVERSIDAD DE BARCELONA - BARCELONA (SPAIN)                            *
 *(10) UNIVERSITA' DI NAPOLI "FEDERICO II" - NAPOLI (ITALY)                    *
 *(11) NIS - NANOSTRUCTURED INTERFACES AND SURFACES - TORINO (ITALY)           *
 *(12) MPI FUER CHEMISCHE ENERGIEKONVERSION - MUELHEIM AN DER RUHR (GERMANY)   *
 *(13) UNIVERSITY OF TROMSO - TROMSO (NORWAY)                                  *
 *(14) UNIVERSITE' DE PAU ET DES PAYS DE L'ADOUR - PAU (FRANCE)                *
 *(15) UNIVERSITY OF CALIFORNIA SANTA BARBARA - SANTA BARBARA (USA)            *
 *(16) CURTIN UNIVERSITY - PERTH (AUSTRALIA)                                   *
 *(17) UNIVERSITY COLLEGE LONDON - LONDON (UK)                                 *
 *(18) CAMBRIDGE UNIVERSITY - CAMBRIDGE (UK)                                   *
 *                                                                             *
 *******************************************************************************
 EEEEEEEEEE STARTING  DATE 11 12 2023 TIME 12:29:10.2
 Z:\home\sanoj\Downloads\tmp_p\newconn.mol                                       

 CRYSTAL CALCULATION
 (INPUT ACCORDING TO THE INTERNATIONAL TABLES FOR X-RAY CRYSTALLOGRAPHY)
 CRYSTAL FAMILY                       :  TETRAGONAL  
 CRYSTAL CLASS  (GROTH - 1921)        :  TETRAGONAL DISPHENOIDAL              

 SPACE GROUP (NONCENTROSYMMETRIC)     :  I -4            

 LATTICE PARAMETERS  (ANGSTROMS AND DEGREES) - CONVENTIONAL CELL
        A           B           C        ALPHA        BETA       GAMMA
    11.01024    11.01024    13.73989    90.00000    90.00000    90.00000


 NUMBER OF IRREDUCIBLE ATOMS IN THE CONVENTIONAL CELL:   17

 INPUT COORDINATES

 ATOM AT. N.              COORDINATES
   1   1     3.902600000000E-01  4.621200000000E-01  3.772900000000E-01
   2   6     2.809700000000E-01  7.973200000000E-01  3.918500000000E-01
   3   6     2.508800000000E-01 -7.375000000000E-02  3.762600000000E-01
   4   6     1.949900000000E-01  7.037100000000E-01  3.786100000000E-01
   5   6     3.570900000000E-01  5.556300000000E-01  3.817100000000E-01
   6   6     4.014800000000E-01  7.568800000000E-01  4.057200000000E-01
   7   6     7.656400000000E-01  4.173300000000E-01  3.693400000000E-01
   8   7     3.177400000000E-01 -3.380000000000E-03  3.144800000000E-01
   9   7     2.615600000000E-01  1.078200000000E-01  3.108200000000E-01
  10   7     1.547000000000E-01 -7.210000000000E-03  4.100800000000E-01
  11   7     1.653600000000E-01  1.059100000000E-01  3.678700000000E-01
  12   7     4.385500000000E-01  6.423900000000E-01  4.023400000000E-01
  13  17     4.378000000000E-02  7.425100000000E-01  3.737000000000E-01
  14  17     5.160100000000E-01  8.609300000000E-01  4.266700000000E-01
  15  17     1.380700000000E-01  4.632100000000E-01  3.474700000000E-01
  16  30     0.000000000000E+00  5.000000000000E-01  7.500000000000E-01
  17  30     0.000000000000E+00  0.000000000000E+00  5.000000000000E-01

 *******************************************************************************

 << INFORMATION >>: FROM NOW ON, ALL COORDINATES REFER TO THE PRIMITIVE CELL

 *******************************************************************************

 LATTICE PARAMETERS  (ANGSTROMS AND DEGREES) - PRIMITIVE CELL
       A          B          C        ALPHA      BETA     GAMMA        VOLUME
   10.38311   10.38311   10.38311   115.96208 115.96208  97.14886    832.812357

 COORDINATES OF THE EQUIVALENT ATOMS (FRACTIONAL UNITS)

 N. ATOM EQUIV AT. N.          X                  Y                  Z

   1   1   1    1 H    -1.60590000000E-01 -2.32450000000E-01 -1.47620000000E-01
   2   1   2    1 H    -8.48300000000E-02 -1.29700000000E-02  1.47620000000E-01
   3   1   3    1 H     2.32450000000E-01  8.48300000000E-02  7.18600000000E-02
   4   1   4    1 H     1.29700000000E-02  1.60590000000E-01 -7.18600000000E-02

   5   2   1    6 C     1.89170000000E-01 -3.27180000000E-01  7.82900000000E-02
   6   2   2    6 C    -4.05470000000E-01  1.10880000000E-01 -7.82900000000E-02
   7   2   3    6 C     3.27180000000E-01  4.05470000000E-01 -4.83650000000E-01
   8   2   4    6 C    -1.10880000000E-01 -1.89170000000E-01  4.83650000000E-01

   9   3   1    6 C     3.02510000000E-01 -3.72860000000E-01  1.77130000000E-01
  10   3   2    6 C     4.50010000000E-01  1.25380000000E-01 -1.77130000000E-01
  11   3   3    6 C     3.72860000000E-01 -4.50010000000E-01 -3.24630000000E-01
  12   3   4    6 C    -1.25380000000E-01 -3.02510000000E-01  3.24630000000E-01

  13   4   1    6 C     8.23200000000E-02 -4.26400000000E-01 -1.01300000000E-01
  14   4   2    6 C    -3.25100000000E-01  1.83620000000E-01  1.01300000000E-01
  15   4   3    6 C     4.26400000000E-01  3.25100000000E-01 -4.91280000000E-01
  16   4   4    6 C    -1.83620000000E-01 -8.23200000000E-02  4.91280000000E-01

  17   5   1    6 C    -6.26600000000E-02 -2.61200000000E-01 -8.72800000000E-02
  18   5   2    6 C    -1.73920000000E-01  2.46200000000E-02  8.72800000000E-02
  19   5   3    6 C     2.61200000000E-01  1.73920000000E-01  1.98540000000E-01
  20   5   4    6 C    -2.46200000000E-02  6.26600000000E-02 -1.98540000000E-01

  21   6   1    6 C     1.62600000000E-01 -1.92800000000E-01  1.58360000000E-01
  22   6   2    6 C    -3.51160000000E-01  4.24000000000E-03 -1.58360000000E-01
  23   6   3    6 C     1.92800000000E-01  3.51160000000E-01  3.55400000000E-01
  24   6   4    6 C    -4.24000000000E-03 -1.62600000000E-01 -3.55400000000E-01

  25   7   1    6 C    -2.13330000000E-01  1.34980000000E-01  1.82970000000E-01
  26   7   2    6 C    -4.79900000000E-02 -3.96300000000E-01 -1.82970000000E-01
  27   7   3    6 C    -1.34980000000E-01  4.79900000000E-02 -3.48310000000E-01
  28   7   4    6 C     3.96300000000E-01  2.13330000000E-01  3.48310000000E-01

  29   8   1    7 N     3.11100000000E-01 -3.67780000000E-01  3.14360000000E-01
  30   8   2    7 N     3.17860000000E-01 -3.26000000000E-03 -3.14360000000E-01
  31   8   3    7 N     3.67780000000E-01 -3.17860000000E-01 -3.21120000000E-01
  32   8   4    7 N     3.26000000000E-03 -3.11100000000E-01  3.21120000000E-01

  33   9   1    7 N     4.18640000000E-01 -4.27620000000E-01  3.69380000000E-01
  34   9   2    7 N     2.03000000000E-01  4.92600000000E-02 -3.69380000000E-01
  35   9   3    7 N     4.27620000000E-01 -2.03000000000E-01 -1.53740000000E-01
  36   9   4    7 N    -4.92600000000E-02 -4.18640000000E-01  1.53740000000E-01

  37  10   1    7 N     4.02870000000E-01 -4.35220000000E-01  1.47490000000E-01
  38  10   2    7 N     4.17290000000E-01  2.55380000000E-01 -1.47490000000E-01
  39  10   3    7 N     4.35220000000E-01 -4.17290000000E-01 -1.61910000000E-01
  40  10   4    7 N    -2.55380000000E-01 -4.02870000000E-01  1.61910000000E-01

  41  11   1    7 N     4.73780000000E-01 -4.66770000000E-01  2.71270000000E-01
  42  11   2    7 N     2.61960000000E-01  2.02510000000E-01 -2.71270000000E-01
  43  11   3    7 N     4.66770000000E-01 -2.61960000000E-01 -5.94500000000E-02
  44  11   4    7 N    -2.02510000000E-01 -4.73780000000E-01  5.94500000000E-02

  45  12   1    7 N     4.47300000000E-02 -1.59110000000E-01  8.09400000000E-02
  46  12   2    7 N    -2.40050000000E-01 -3.62100000000E-02 -8.09400000000E-02
  47  12   3    7 N     1.59110000000E-01  2.40050000000E-01  2.03840000000E-01
  48  12   4    7 N     3.62100000000E-02 -4.47300000000E-02 -2.03840000000E-01

  49  13   1   17 CL    1.16210000000E-01  4.17480000000E-01 -2.13710000000E-01
  50  13   2   17 CL   -3.68810000000E-01  3.29920000000E-01  2.13710000000E-01
  51  13   3   17 CL   -4.17480000000E-01  3.68810000000E-01 -3.01270000000E-01
  52  13   4   17 CL   -3.29920000000E-01 -1.16210000000E-01  3.01270000000E-01

  53  14   1   17 CL    2.87600000000E-01 -5.73200000000E-02  3.76940000000E-01
  54  14   2   17 CL   -4.34260000000E-01 -8.93400000000E-02 -3.76940000000E-01
  55  14   3   17 CL    5.73200000000E-02  4.34260000000E-01  3.44920000000E-01
  56  14   4   17 CL    8.93400000000E-02 -2.87600000000E-01 -3.44920000000E-01

  57  15   1   17 CL   -1.89320000000E-01  4.85540000000E-01 -3.98720000000E-01
  58  15   2   17 CL   -1.15740000000E-01  2.09400000000E-01  3.98720000000E-01
  59  15   3   17 CL   -4.85540000000E-01  1.15740000000E-01  3.25140000000E-01
  60  15   4   17 CL   -2.09400000000E-01  1.89320000000E-01 -3.25140000000E-01

  61  16   1   30 ZN    2.50000000000E-01 -2.50000000000E-01 -5.00000000000E-01

  62  17   1   30 ZN   -5.00000000000E-01 -5.00000000000E-01  0.00000000000E+00

 NUMBER OF SYMMETRY OPERATORS         :    4
 *******************************************************************************
 * GEOMETRY EDITING - INPUT COORDINATES ARE GIVEN IN ANGSTROM         
 *******************************************************************************

 GEOMETRY NOW FULLY CONSISTENT WITH THE GROUP

 GCALCO - MAX INDICES DIRECT LATTICE VECTOR    14    14    16
 NO.OF VECTORS CREATED 6999 STARS  482 RMAX   211.09218 BOHR

 GEOMETRY FOR WAVE FUNCTION - DIMENSIONALITY OF THE SYSTEM    3
 (NON PERIODIC DIRECTION: LATTICE PARAMETER FORMALLY SET TO 500)
 *******************************************************************************
 LATTICE PARAMETERS (ANGSTROMS AND DEGREES) - BOHR = 0.5291772083 ANGSTROM
 PRIMITIVE CELL - CENTRING CODE 6/0 VOLUME=   832.812357 - DENSITY  2.232 g/cm^3
         A              B              C           ALPHA      BETA       GAMMA 
    10.38310593    10.38310593    10.38310593   115.962077 115.962077  97.148861
 *******************************************************************************
 ATOMS IN THE ASYMMETRIC UNIT   17 - ATOMS IN THE UNIT CELL:   62
     ATOM                 X/A                 Y/B                 Z/C    
 *******************************************************************************
      1 T   1 H    -1.605900000000E-01 -2.324500000000E-01 -1.476200000000E-01
      2 F   1 H    -8.483000000000E-02 -1.297000000000E-02  1.476200000000E-01
      3 F   1 H     2.324500000000E-01  8.483000000000E-02  7.186000000000E-02
      4 F   1 H     1.297000000000E-02  1.605900000000E-01 -7.186000000000E-02
      5 T   6 C     1.891700000000E-01 -3.271800000000E-01  7.829000000000E-02
      6 F   6 C    -4.054700000000E-01  1.108800000000E-01 -7.829000000000E-02
      7 F   6 C     3.271800000000E-01  4.054700000000E-01 -4.836500000000E-01
      8 F   6 C    -1.108800000000E-01 -1.891700000000E-01  4.836500000000E-01
      9 T   6 C     3.025100000000E-01 -3.728600000000E-01  1.771300000000E-01
     10 F   6 C     4.500100000000E-01  1.253800000000E-01 -1.771300000000E-01
     11 F   6 C     3.728600000000E-01 -4.500100000000E-01 -3.246300000000E-01
     12 F   6 C    -1.253800000000E-01 -3.025100000000E-01  3.246300000000E-01
     13 T   6 C     8.232000000000E-02 -4.264000000000E-01 -1.013000000000E-01
     14 F   6 C    -3.251000000000E-01  1.836200000000E-01  1.013000000000E-01
     15 F   6 C     4.264000000000E-01  3.251000000000E-01 -4.912800000000E-01
     16 F   6 C    -1.836200000000E-01 -8.232000000000E-02  4.912800000000E-01
     17 T   6 C    -6.266000000000E-02 -2.612000000000E-01 -8.728000000000E-02
     18 F   6 C    -1.739200000000E-01  2.462000000000E-02  8.728000000000E-02
     19 F   6 C     2.612000000000E-01  1.739200000000E-01  1.985400000000E-01
     20 F   6 C    -2.462000000000E-02  6.266000000000E-02 -1.985400000000E-01
     21 T   6 C     1.626000000000E-01 -1.928000000000E-01  1.583600000000E-01
     22 F   6 C    -3.511600000000E-01  4.240000000000E-03 -1.583600000000E-01
     23 F   6 C     1.928000000000E-01  3.511600000000E-01  3.554000000000E-01
     24 F   6 C    -4.240000000000E-03 -1.626000000000E-01 -3.554000000000E-01
     25 T   6 C    -2.133300000000E-01  1.349800000000E-01  1.829700000000E-01
     26 F   6 C    -4.799000000000E-02 -3.963000000000E-01 -1.829700000000E-01
     27 F   6 C    -1.349800000000E-01  4.799000000000E-02 -3.483100000000E-01
     28 F   6 C     3.963000000000E-01  2.133300000000E-01  3.483100000000E-01
     29 T   7 N     3.111000000000E-01 -3.677800000000E-01  3.143600000000E-01
     30 F   7 N     3.178600000000E-01 -3.260000000000E-03 -3.143600000000E-01
     31 F   7 N     3.677800000000E-01 -3.178600000000E-01 -3.211200000000E-01
     32 F   7 N     3.260000000000E-03 -3.111000000000E-01  3.211200000000E-01
     33 T   7 N     4.186400000000E-01 -4.276200000000E-01  3.693800000000E-01
     34 F   7 N     2.030000000000E-01  4.926000000000E-02 -3.693800000000E-01
     35 F   7 N     4.276200000000E-01 -2.030000000000E-01 -1.537400000000E-01
     36 F   7 N    -4.926000000000E-02 -4.186400000000E-01  1.537400000000E-01
     37 T   7 N     4.028700000000E-01 -4.352200000000E-01  1.474900000000E-01
     38 F   7 N     4.172900000000E-01  2.553800000000E-01 -1.474900000000E-01
     39 F   7 N     4.352200000000E-01 -4.172900000000E-01 -1.619100000000E-01
     40 F   7 N    -2.553800000000E-01 -4.028700000000E-01  1.619100000000E-01
     41 T   7 N     4.737800000000E-01 -4.667700000000E-01  2.712700000000E-01
     42 F   7 N     2.619600000000E-01  2.025100000000E-01 -2.712700000000E-01
     43 F   7 N     4.667700000000E-01 -2.619600000000E-01 -5.945000000000E-02
     44 F   7 N    -2.025100000000E-01 -4.737800000000E-01  5.945000000000E-02
     45 T   7 N     4.473000000000E-02 -1.591100000000E-01  8.094000000000E-02
     46 F   7 N    -2.400500000000E-01 -3.621000000000E-02 -8.094000000000E-02
     47 F   7 N     1.591100000000E-01  2.400500000000E-01  2.038400000000E-01
     48 F   7 N     3.621000000000E-02 -4.473000000000E-02 -2.038400000000E-01
     49 T  17 CL    1.162100000000E-01  4.174800000000E-01 -2.137100000000E-01
     50 F  17 CL   -3.688100000000E-01  3.299200000000E-01  2.137100000000E-01
     51 F  17 CL   -4.174800000000E-01  3.688100000000E-01 -3.012700000000E-01
     52 F  17 CL   -3.299200000000E-01 -1.162100000000E-01  3.012700000000E-01
     53 T  17 CL    2.876000000000E-01 -5.732000000000E-02  3.769400000000E-01
     54 F  17 CL   -4.342600000000E-01 -8.934000000000E-02 -3.769400000000E-01
     55 F  17 CL    5.732000000000E-02  4.342600000000E-01  3.449200000000E-01
     56 F  17 CL    8.934000000000E-02 -2.876000000000E-01 -3.449200000000E-01
     57 T  17 CL   -1.893200000000E-01  4.855400000000E-01 -3.987200000000E-01
     58 F  17 CL   -1.157400000000E-01  2.094000000000E-01  3.987200000000E-01
     59 F  17 CL   -4.855400000000E-01  1.157400000000E-01  3.251400000000E-01
     60 F  17 CL   -2.094000000000E-01  1.893200000000E-01 -3.251400000000E-01
     61 T  30 ZN    2.500000000000E-01 -2.500000000000E-01 -5.000000000000E-01
     62 T  30 ZN   -5.000000000000E-01 -5.000000000000E-01  0.000000000000E+00

 TRANSFORMATION MATRIX PRIMITIVE-CRYSTALLOGRAPHIC CELL
  0.0000  1.0000  1.0000  1.0000  0.0000  1.0000  1.0000  1.0000  0.0000

 *******************************************************************************
 CRYSTALLOGRAPHIC CELL (VOLUME=       1665.62471496)
         A              B              C           ALPHA      BETA       GAMMA 
    11.01024319    11.01024319    13.73989246    90.000000  90.000000  90.000000

 COORDINATES IN THE CRYSTALLOGRAPHIC CELL
     ATOM                 X/A                 Y/B                 Z/C    
 *******************************************************************************
      1 T   1 H    -1.097400000000E-01 -3.788000000000E-02 -1.227100000000E-01
      2 F   1 H     1.097400000000E-01  3.788000000000E-02 -1.227100000000E-01
      3 F   1 H    -3.788000000000E-02  1.097400000000E-01  1.227100000000E-01
      4 F   1 H     3.788000000000E-02 -1.097400000000E-01  1.227100000000E-01
      5 T   6 C    -2.190300000000E-01  2.973200000000E-01 -1.081500000000E-01
      6 F   6 C     2.190300000000E-01 -2.973200000000E-01 -1.081500000000E-01
      7 F   6 C     2.973200000000E-01  2.190300000000E-01  1.081500000000E-01
      8 F   6 C    -2.973200000000E-01 -2.190300000000E-01  1.081500000000E-01
      9 T   6 C    -2.491200000000E-01  4.262500000000E-01 -1.237400000000E-01
     10 F   6 C     2.491200000000E-01 -4.262500000000E-01 -1.237400000000E-01
     11 F   6 C     4.262500000000E-01  2.491200000000E-01  1.237400000000E-01
     12 F   6 C    -4.262500000000E-01 -2.491200000000E-01  1.237400000000E-01
     13 T   6 C    -3.050100000000E-01  2.037100000000E-01 -1.213900000000E-01
     14 F   6 C     3.050100000000E-01 -2.037100000000E-01 -1.213900000000E-01
     15 F   6 C     2.037100000000E-01  3.050100000000E-01  1.213900000000E-01
     16 F   6 C    -2.037100000000E-01 -3.050100000000E-01  1.213900000000E-01
     17 T   6 C    -1.429100000000E-01  5.563000000000E-02 -1.182900000000E-01
     18 F   6 C     1.429100000000E-01 -5.563000000000E-02 -1.182900000000E-01
     19 F   6 C     5.563000000000E-02  1.429100000000E-01  1.182900000000E-01
     20 F   6 C    -5.563000000000E-02 -1.429100000000E-01  1.182900000000E-01
     21 T   6 C    -9.852000000000E-02  2.568800000000E-01 -9.428000000000E-02
     22 F   6 C     9.852000000000E-02 -2.568800000000E-01 -9.428000000000E-02
     23 F   6 C     2.568800000000E-01  9.852000000000E-02  9.428000000000E-02
     24 F   6 C    -2.568800000000E-01 -9.852000000000E-02  9.428000000000E-02
     25 T   6 C     2.656400000000E-01 -8.267000000000E-02 -1.306600000000E-01
     26 F   6 C    -2.656400000000E-01  8.267000000000E-02 -1.306600000000E-01
     27 F   6 C    -8.267000000000E-02 -2.656400000000E-01  1.306600000000E-01
     28 F   6 C     8.267000000000E-02  2.656400000000E-01  1.306600000000E-01
     29 T   7 N     3.177400000000E-01 -3.380000000000E-03  3.144800000000E-01
     30 F   7 N    -3.177400000000E-01  3.380000000000E-03  3.144800000000E-01
     31 F   7 N    -3.380000000000E-03 -3.177400000000E-01 -3.144800000000E-01
     32 F   7 N     3.380000000000E-03  3.177400000000E-01 -3.144800000000E-01
     33 T   7 N     2.615600000000E-01  1.078200000000E-01  3.108200000000E-01
     34 F   7 N    -2.615600000000E-01 -1.078200000000E-01  3.108200000000E-01
     35 F   7 N     1.078200000000E-01 -2.615600000000E-01 -3.108200000000E-01
     36 F   7 N    -1.078200000000E-01  2.615600000000E-01 -3.108200000000E-01
     37 T   7 N     1.547000000000E-01 -7.210000000000E-03  4.100800000000E-01
     38 F   7 N    -1.547000000000E-01  7.210000000000E-03  4.100800000000E-01
     39 F   7 N    -7.210000000000E-03 -1.547000000000E-01 -4.100800000000E-01
     40 F   7 N     7.210000000000E-03  1.547000000000E-01 -4.100800000000E-01
     41 T   7 N     1.653600000000E-01  1.059100000000E-01  3.678700000000E-01
     42 F   7 N    -1.653600000000E-01 -1.059100000000E-01  3.678700000000E-01
     43 F   7 N     1.059100000000E-01 -1.653600000000E-01 -3.678700000000E-01
     44 F   7 N    -1.059100000000E-01  1.653600000000E-01 -3.678700000000E-01
     45 T   7 N    -6.145000000000E-02  1.423900000000E-01 -9.766000000000E-02
     46 F   7 N     6.145000000000E-02 -1.423900000000E-01 -9.766000000000E-02
     47 F   7 N     1.423900000000E-01  6.145000000000E-02  9.766000000000E-02
     48 F   7 N    -1.423900000000E-01 -6.145000000000E-02  9.766000000000E-02
     49 T  17 CL    4.378000000000E-02 -2.574900000000E-01  3.737000000000E-01
     50 F  17 CL   -4.378000000000E-02  2.574900000000E-01  3.737000000000E-01
     51 F  17 CL   -2.574900000000E-01 -4.378000000000E-02 -3.737000000000E-01
     52 F  17 CL    2.574900000000E-01  4.378000000000E-02 -3.737000000000E-01
     53 T  17 CL    1.601000000000E-02  3.609300000000E-01 -7.333000000000E-02
     54 F  17 CL   -1.601000000000E-02 -3.609300000000E-01 -7.333000000000E-02
     55 F  17 CL    3.609300000000E-01 -1.601000000000E-02  7.333000000000E-02
     56 F  17 CL   -3.609300000000E-01  1.601000000000E-02  7.333000000000E-02
     57 T  17 CL   -3.619300000000E-01 -3.679000000000E-02 -1.525300000000E-01
     58 F  17 CL    3.619300000000E-01  3.679000000000E-02 -1.525300000000E-01
     59 F  17 CL   -3.679000000000E-02  3.619300000000E-01  1.525300000000E-01
     60 F  17 CL    3.679000000000E-02 -3.619300000000E-01  1.525300000000E-01
     61 T  30 ZN    5.000000000000E-01  4.268786516850E-17  2.500000000000E-01
     62 T  30 ZN    0.000000000000E+00  0.000000000000E+00 -5.000000000000E-01

 T = ATOM BELONGING TO THE ASYMMETRIC UNIT

 ****    4 SYMMOPS - TRANSLATORS IN FRACTIONAL UNITS
 **** MATRICES AND TRANSLATORS IN THE CRYSTALLOGRAPHIC REFERENCE FRAME
   V INV                    ROTATION MATRICES                   TRANSLATORS
   1   1  1.00  0.00  0.00  0.00  1.00  0.00  0.00  0.00  1.00  0.00  0.00  0.00
   2   2 -0.00  1.00 -1.00  1.00 -0.00 -1.00  0.00  0.00 -1.00  0.00  0.00  0.00
   3   4  0.00 -1.00 -0.00  0.00 -1.00  1.00  1.00 -1.00  0.00  0.00  0.00  0.00
   4   3 -1.00  0.00  1.00 -1.00  0.00 -0.00 -1.00  1.00  0.00  0.00  0.00  0.00

 DIRECT LATTICE VECTORS CARTESIAN COMPONENTS (ANGSTROM)
          X                    Y                    Z
  -0.550512159315E+01   0.550512159315E+01   0.686994622815E+01
   0.550512159315E+01  -0.550512159315E+01   0.686994622815E+01
   0.550512159315E+01   0.550512159315E+01  -0.686994622815E+01


 CARTESIAN COORDINATES - PRIMITIVE CELL
 *******************************************************************************
 *      ATOM          X(ANGSTROM)         Y(ANGSTROM)         Z(ANGSTROM)
 *******************************************************************************
    1     1 H    -1.208264087265E+00 -4.170680118970E-01 -1.686022203313E+00
    2     1 H     1.208264087265E+00  4.170680118970E-01 -1.686022203313E+00
    3     1 H    -4.170680118970E-01  1.208264087265E+00  1.686022203313E+00
    4     1 H     4.170680118970E-01 -1.208264087265E+00  1.686022203313E+00
    5     6 C    -2.411573565095E+00  3.273565504151E+00 -1.485969369149E+00
    6     6 C     2.411573565095E+00 -3.273565504151E+00 -1.485969369149E+00
    7     6 C     3.273565504151E+00  2.411573565095E+00  1.485969369149E+00
    8     6 C    -3.273565504151E+00 -2.411573565095E+00  1.485969369149E+00
    9     6 C    -2.742871782571E+00  4.693116158160E+00 -1.700174292543E+00
   10     6 C     2.742871782571E+00 -4.693116158160E+00 -1.700174292543E+00
   11     6 C     4.693116158160E+00  2.742871782571E+00  1.700174292543E+00
   12     6 C    -4.693116158160E+00 -2.742871782571E+00  1.700174292543E+00
   13     6 C    -3.358234274253E+00  2.242896639481E+00 -1.667885545270E+00
   14     6 C     3.358234274253E+00 -2.242896639481E+00 -1.667885545270E+00
   15     6 C     2.242896639481E+00  3.358234274253E+00  1.667885545270E+00
   16     6 C    -2.242896639481E+00 -3.358234274253E+00  1.667885545270E+00
   17     6 C    -1.573473853754E+00  6.124998284539E-01 -1.625291878656E+00
   18     6 C     1.573473853754E+00 -6.124998284539E-01 -1.625291878656E+00
   19     6 C     6.124998284539E-01  1.573473853754E+00  1.625291878656E+00
   20     6 C    -6.124998284539E-01 -1.573473853754E+00  1.625291878656E+00
   21     6 C    -1.084729158714E+00  2.828311269697E+00 -1.295397060780E+00
   22     6 C     1.084729158714E+00 -2.828311269697E+00 -1.295397060780E+00
   23     6 C     2.828311269697E+00  1.084729158714E+00  1.295397060780E+00
   24     6 C    -2.828311269697E+00 -1.084729158714E+00  1.295397060780E+00
   25     6 C     2.924761000009E+00 -9.102168042114E-01 -1.795254348340E+00
   26     6 C    -2.924761000009E+00  9.102168042114E-01 -1.795254348340E+00
   27     6 C    -9.102168042114E-01 -2.924761000009E+00  1.795254348340E+00
   28     6 C     9.102168042114E-01  2.924761000009E+00  1.795254348340E+00
   29     7 N     3.498394670015E+00 -3.721462196969E-02  4.320921379657E+00
   30     7 N    -3.498394670015E+00  3.721462196969E-02  4.320921379657E+00
   31     7 N    -3.721462196969E-02 -3.498394670015E+00 -4.320921379657E+00
   32     7 N     3.721462196969E-02  3.498394670015E+00 -4.320921379657E+00
   33     7 N     2.879839207809E+00  1.187124420347E+00  4.270633373267E+00
   34     7 N    -2.879839207809E+00 -1.187124420347E+00  4.270633373267E+00
   35     7 N     1.187124420347E+00 -2.879839207809E+00 -4.270633373267E+00
   36     7 N    -1.187124420347E+00  2.879839207809E+00 -4.270633373267E+00
   37     7 N     1.703284620921E+00 -7.938385337322E-02  5.634455098480E+00
   38     7 N    -1.703284620921E+00  7.938385337322E-02  5.634455098480E+00
   39     7 N    -7.938385337322E-02 -1.703284620921E+00 -5.634455098480E+00
   40     7 N     7.938385337322E-02  1.703284620921E+00 -5.634455098480E+00
   41     7 N     1.820653813287E+00  1.166094855861E+00  5.054494237899E+00
   42     7 N    -1.820653813287E+00 -1.166094855861E+00  5.054494237899E+00
   43     7 N     1.166094855861E+00 -1.820653813287E+00 -5.054494237899E+00
   44     7 N    -1.166094855861E+00  1.820653813287E+00 -5.054494237899E+00
   45     7 N    -6.765794437981E-01  1.567748527297E+00 -1.341837897282E+00
   46     7 N     6.765794437981E-01 -1.567748527297E+00 -1.341837897282E+00
   47     7 N     1.567748527297E+00  6.765794437981E-01  1.341837897282E+00
   48     7 N    -1.567748527297E+00 -6.765794437981E-01  1.341837897282E+00
   49    17 CL    4.820284466962E-01 -2.835027518040E+00  5.134597810919E+00
   50    17 CL   -4.820284466962E-01  2.835027518040E+00  5.134597810919E+00
   51    17 CL   -2.835027518040E+00 -4.820284466962E-01 -5.134597810919E+00
   52    17 CL    2.835027518040E+00  4.820284466962E-01 -5.134597810919E+00
   53    17 CL    1.762739934127E-01  3.973927073231E+00 -1.007546313820E+00
   54    17 CL   -1.762739934127E-01 -3.973927073231E+00 -1.007546313820E+00
   55    17 CL    3.973927073231E+00 -1.762739934127E-01  1.007546313820E+00
   56    17 CL   -3.973927073231E+00  1.762739934127E-01  1.007546313820E+00
   57    17 CL   -3.984937316418E+00 -4.050668468240E-01 -2.095745796359E+00
   58    17 CL    3.984937316418E+00  4.050668468240E-01 -2.095745796359E+00
   59    17 CL   -4.050668468240E-01  3.984937316418E+00  2.095745796359E+00
   60    17 CL    4.050668468240E-01 -3.984937316418E+00  2.095745796359E+00
   61    30 ZN    5.505121593150E+00  4.700037766092E-16 -1.030491934222E+01
   62    30 ZN    0.000000000000E+00  0.000000000000E+00  6.869946228150E+00

 *******************************************************************************
 STARTING BASIS SET HANDLING 
 *******************************************************************************

 Loading internal basis set: POB-DZVPP           

 Please cite in your publication:
 Peintinger, M. F., Oliveira, D. V. and Bredow, T. (2013), Generally applicable 
 solid-state Gaussian basis sets, in preparation                                
                                                                                
                    

 *******************************************************************************
 LOCAL ATOMIC FUNCTIONS BASIS SET
 *******************************************************************************
   ATOM   X(AU)   Y(AU)   Z(AU)  N. TYPE  EXPONENT  S COEF   P COEF   D/F/G COEF
 *******************************************************************************
   1 H   -2.283  -0.788  -3.186
                                  1 S  
                                         2.263E+01 1.441E-02 0.000E+00 0.000E+00
                                         3.236E+00 1.072E-01 0.000E+00 0.000E+00
                                         7.304E-01 3.846E-01 0.000E+00 0.000E+00
                                  2 S  
                                         1.417E-01 1.000E+00 0.000E+00 0.000E+00
                           3-     5 P  
                                         3.944E-01 0.000E+00 1.000E+00 0.000E+00
                           6-     8 P  
                                         1.006E-01 0.000E+00 1.000E+00 0.000E+00
   2 H    2.283   0.788  -3.186
   3 H   -0.788   2.283   3.186
   4 H    0.788  -2.283   3.186
   5 C   -4.557   6.186  -2.808
                                 33 S  
                                         1.238E+03 5.457E-03 0.000E+00 0.000E+00
                                         1.863E+02 4.064E-02 0.000E+00 0.000E+00
                                         4.225E+01 1.803E-01 0.000E+00 0.000E+00
                                         1.168E+01 4.632E-01 0.000E+00 0.000E+00
                                         3.593E+00 4.409E-01 0.000E+00 0.000E+00
                                 34 S  
                                         5.281E+00 1.000E+00 0.000E+00 0.000E+00
                                 35 S  
                                         4.447E-01 1.000E+00 0.000E+00 0.000E+00
                          36-    38 P  
                                         9.468E+00 0.000E+00 3.839E-02 0.000E+00
                                         2.010E+00 0.000E+00 2.112E-01 0.000E+00
                                         5.477E-01 0.000E+00 5.133E-01 0.000E+00
                          39-    41 P  
                                         1.604E-01 0.000E+00 1.000E+00 0.000E+00
                          42-    46 D  
                                         6.070E-01 0.000E+00 0.000E+00 1.000E+00
                          47-    51 D  
                                         2.939E-01 0.000E+00 0.000E+00 1.000E+00
   6 C    4.557  -6.186  -2.808
   7 C    6.186   4.557   2.808
   8 C   -6.186  -4.557   2.808
   9 C   -5.183   8.869  -3.213
  10 C    5.183  -8.869  -3.213
  11 C    8.869   5.183   3.213
  12 C   -8.869  -5.183   3.213
  13 C   -6.346   4.238  -3.152
  14 C    6.346  -4.238  -3.152
  15 C    4.238   6.346   3.152
  16 C   -4.238  -6.346   3.152
  17 C   -2.973   1.157  -3.071
  18 C    2.973  -1.157  -3.071
  19 C    1.157   2.973   3.071
  20 C   -1.157  -2.973   3.071
  21 C   -2.050   5.345  -2.448
  22 C    2.050  -5.345  -2.448
  23 C    5.345   2.050   2.448
  24 C   -5.345  -2.050   2.448
  25 C    5.527  -1.720  -3.393
  26 C   -5.527   1.720  -3.393
  27 C   -1.720  -5.527   3.393
  28 C    1.720   5.527   3.393
  29 N    6.611  -0.070   8.165
                                489 S  
                                         1.713E+03-5.393E-03 0.000E+00 0.000E+00
                                         2.576E+02-4.022E-02 0.000E+00 0.000E+00
                                         5.846E+01-1.793E-01 0.000E+00 0.000E+00
                                         1.620E+01-4.638E-01 0.000E+00 0.000E+00
                                         5.005E+00-4.417E-01 0.000E+00 0.000E+00
                                490 S  
                                         6.217E-01 1.000E+00 0.000E+00 0.000E+00
                                491 S  
                                         2.921E-01 1.000E+00 0.000E+00 0.000E+00
                         492-   494 P  
                                         1.357E+01 0.000E+00-4.007E-02 0.000E+00
                                         2.926E+00 0.000E+00-2.181E-01 0.000E+00
                                         7.993E-01 0.000E+00-5.129E-01 0.000E+00
                         495-   497 P  
                                         2.244E-01 0.000E+00 1.000E+00 0.000E+00
                         498-   502 D  
                                         3.118E-01 0.000E+00 0.000E+00 1.000E+00
  30 N   -6.611   0.070   8.165
  31 N   -0.070  -6.611  -8.165
  32 N    0.070   6.611  -8.165
  33 N    5.442   2.243   8.070
  34 N   -5.442  -2.243   8.070
  35 N    2.243  -5.442  -8.070
  36 N   -2.243   5.442  -8.070
  37 N    3.219  -0.150  10.648
  38 N   -3.219   0.150  10.648
  39 N   -0.150  -3.219 -10.648
  40 N    0.150   3.219 -10.648
  41 N    3.441   2.204   9.552
  42 N   -3.441  -2.204   9.552
  43 N    2.204  -3.441  -9.552
  44 N   -2.204   3.441  -9.552
  45 N   -1.279   2.963  -2.536
  46 N    1.279  -2.963  -2.536
  47 N    2.963   1.279   2.536
  48 N   -2.963  -1.279   2.536
  49 CL   0.911  -5.357   9.703
                                769 S  
                                         1.045E+04 1.971E-03 0.000E+00 0.000E+00
                                         1.572E+03 1.475E-02 0.000E+00 0.000E+00
                                         3.571E+02 6.668E-02 0.000E+00 0.000E+00
                                         1.003E+02 1.723E-01 0.000E+00 0.000E+00
                                         3.081E+01 1.588E-01 0.000E+00 0.000E+00
                                770 S  
                                         5.192E+01-1.001E-01 0.000E+00 0.000E+00
                                         5.705E+00 6.084E-01 0.000E+00 0.000E+00
                                         2.351E+00 5.435E-01 0.000E+00 0.000E+00
                                771 S  
                                         4.886E-01 1.000E+00 0.000E+00 0.000E+00
                                772 S  
                                         1.984E-01 1.000E+00 0.000E+00 0.000E+00
                         773-   775 P  
                                         3.077E+02 0.000E+00-8.780E-03 0.000E+00
                                         7.210E+01 0.000E+00-6.356E-02 0.000E+00
                                         2.253E+01 0.000E+00-2.402E-01 0.000E+00
                                         7.899E+00 0.000E+00-4.780E-01 0.000E+00
                                         2.877E+00 0.000E+00-3.852E-01 0.000E+00
                         776-   778 P  
                                         9.483E-01 0.000E+00 1.000E+00 0.000E+00
                         779-   781 P  
                                         2.521E-01 0.000E+00 1.000E+00 0.000E+00
                         782-   786 D  
                                         9.722E-01 0.000E+00 0.000E+00 1.000E+00
                         787-   791 D  
                                         2.060E-01 0.000E+00 0.000E+00 1.000E+00
  50 CL  -0.911   5.357   9.703
  51 CL  -5.357  -0.911  -9.703
  52 CL   5.357   0.911  -9.703
  53 CL   0.333   7.510  -1.904
  54 CL  -0.333  -7.510  -1.904
  55 CL   7.510  -0.333   1.904
  56 CL  -7.510   0.333   1.904
  57 CL  -7.530  -0.765  -3.960
  58 CL   7.530   0.765  -3.960
  59 CL  -0.765   7.530   3.960
  60 CL   0.765  -7.530   3.960
  61 ZN  10.403   0.000 -19.473
                               1045 S  
                                         8.200E+04 1.421E-03 0.000E+00 0.000E+00
                                         1.231E+04 1.089E-02 0.000E+00 0.000E+00
                                         2.801E+03 5.406E-02 0.000E+00 0.000E+00
                                         7.910E+02 1.885E-01 0.000E+00 0.000E+00
                                         2.576E+02 3.835E-01 0.000E+00 0.000E+00
                                         8.881E+01 2.972E-01 0.000E+00 0.000E+00
                               1046 S  
                                         1.719E+02-1.105E-01 0.000E+00 0.000E+00
                                         2.030E+01 6.461E-01 0.000E+00 0.000E+00
                                         8.346E+00 4.422E-01 0.000E+00 0.000E+00
                               1047 S  
                                         1.485E+01-2.271E-01 0.000E+00 0.000E+00
                                         2.450E+00 7.243E-01 0.000E+00 0.000E+00
                                         9.985E-01 4.484E-01 0.000E+00 0.000E+00
                               1048 S  
                                         1.493E+00 1.000E+00 0.000E+00 0.000E+00
                               1049 S  
                                         1.830E-01 1.000E+00 0.000E+00 0.000E+00
                        1050-  1052 P  
                                         1.072E+03 0.000E+00 9.277E-03 0.000E+00
                                         2.527E+02 0.000E+00 6.954E-02 0.000E+00
                                         8.010E+01 0.000E+00 2.716E-01 0.000E+00
                                         2.890E+01 0.000E+00 5.340E-01 0.000E+00
                                         1.077E+01 0.000E+00 3.450E-01 0.000E+00
                        1053-  1055 P  
                                         5.645E+00 0.000E+00 3.413E-01 0.000E+00
                                         2.168E+00 0.000E+00 5.639E-01 0.000E+00
                                         8.054E-01 0.000E+00 2.368E-01 0.000E+00
                        1056-  1058 P  
                                         2.721E-01 0.000E+00 1.000E+00 0.000E+00
                        1059-  1063 D  
                                         5.609E+01 0.000E+00 0.000E+00 2.959E-02
                                         1.575E+01 0.000E+00 0.000E+00 1.587E-01
                                         5.312E+00 0.000E+00 0.000E+00 3.798E-01
                                         1.774E+00 0.000E+00 0.000E+00 4.690E-01
                        1064-  1068 D  
                                         5.073E-01 0.000E+00 0.000E+00 1.000E+00
                        1069-  1075 F  
                                         2.814E+00 0.000E+00 0.000E+00 1.000E+00
                        1076-  1082 F  
                                         1.300E+00 0.000E+00 0.000E+00 1.000E+00
  62 ZN   0.000   0.000  12.982

 *******************************************************************************
 FINISHED BASIS SET HANDLING 
 *******************************************************************************

 INFORMATION **** SET_MPP **** PCRYSTAL CALCULATION
 INFORMATION **** READM2 **** NEW DEFAULT: FOCK/KS MATRIX MIXING SET TO 30 %
 INFORMATION **** READM2 **** NEW DEFAULT: FULL DIRECT SCF MODE
 INFORMATION **** READM2 **** NEW DEFAULT: COULOMB BIPOLAR BUFFER SET TO 32 Mb
 INFORMATION **** READM2 **** NEW DEFAULT: EXCHANGE BIPOLAR BUFFER SET TO 32 Mb

 *******************************************************************************
 NEW DEFAULT: DFT INTEGRATION GRID INCREASED TO XLGRID
 NEW DEFAULT: DIIS ACCELERATOR ACTIVE
 USE KEYWORD NODIIS TO TURN IT OFF
 *******************************************************************************

 INFORMATION **** DFTD3_INPUT **** PERFORM DISPERSION CORRECTION DFT-D3(BJ) IN THE BECKE-JOHNSON DAMPING SCHEME

 PLEASE CITE:
 (1) DFT-D3 Reference
  S. Grimme, J. Antony, S. Ehrlich, and H. Krieg, J. Chem. Phys. 132 (2010), 154104
 (2) BJ-Damping Reference
  S. Grimme, S. Ehrlich, and L. Goerigk, J. Comput. Chem. 32 (2011), 1456-1465
 (3) General DFT-D Review
  S. Grimme, A. Hansen, J. G. Brandenburg, and C. Bannwarth,
  Chem. Rev. 116 (2016), 5105-5154

 INFORMATION **** TOLINTEG **** COULOMB AND EXCHANGE SERIES TOLERANCES MODIFIED
 INFORMATION **** BIPOSIZE **** COULOMB BIPOLAR BUFFER SET TO   100000000
 INFORMATION **** MAXCYCLE **** MAX NUMBER OF SCF CYCLES SET TO          50
 *******************************************************************************
 N. OF ATOMS PER CELL        62  COULOMB OVERLAP TOL         (T1) 10**  -12
 NUMBER OF SHELLS           436  COULOMB PENETRATION TOL     (T2) 10**  -12
 NUMBER OF AO              1120  EXCHANGE OVERLAP TOL        (T3) 10**   20
 N. OF ELECTRONS PER CELL   552  EXCHANGE PSEUDO OVP (F(G))  (T4) 10**   20
 CORE ELECTRONS PER CELL    244  EXCHANGE PSEUDO OVP (P(G))  (T5) 10**   20
 N. OF SYMMETRY OPERATORS     4  POLE ORDER IN MONO ZONE                  4
 *******************************************************************************
 TYPE OF CALCULATION :  RESTRICTED CLOSED SHELL
 KOHN-SHAM HAMILTONIAN

 (EXCHANGE)[CORRELATION] FUNCTIONAL:(PERDEW-BURKE-ERNZERHOF)[PERDEW-BURKE-ERNZERHOF]


 CAPPA:IS1  3;IS2  3;IS3  3; K PTS MONK NET   6; SYMMOPS:K SPACE   8;G SPACE   4

 *******************************************************************************
 MAX NUMBER OF SCF CYCLES      50  CONVERGENCE ON DELTAP        10**-16
 WEIGHT OF F(I) IN F(I+1)      30% CONVERGENCE ON ENERGY        10**- 6
 SHRINK. FACT.(MONKH.)    3  3  3  NUMBER OF K POINTS IN THE IBZ      6
 SHRINKING FACTOR(GILAT NET)    3  NUMBER OF K POINTS(GILAT NET)      6
 *******************************************************************************
 *** K POINTS COORDINATES (OBLIQUE COORDINATES IN UNITS OF IS =  3)
   1-R(  0  0  0)   2-C(  1  0  0)   3-C(  1  1  0)   4-C(  2  1  0)
   5-C(  2  1  1)   6-C(  2  2  1)

 DIRECT LATTICE VECTORS COMPON. (A.U.)     RECIP. LATTICE VECTORS COMPON. (A.U.) 
        X            Y            Z              X            Y            Z
  -10.4031721   10.4031721   12.9823169      0.0000000    0.3019841    0.2419901
   10.4031721  -10.4031721   12.9823169      0.3019841    0.0000000    0.2419901
   10.4031721   10.4031721  -12.9823169      0.3019841    0.3019841    0.0000000

 DISK SPACE FOR EIGENVECTORS (FTN 10)    13798400 REALS

 SYMMETRY ADAPTION OF THE BLOCH FUNCTIONS ENABLED
 TTTTTTTTTTTTTTTTTTTTTTTTTTTTTT gordsh1     TELAPSE        4.96 TCPU        0.08

 MATRIX SIZE: P(G) 1761528, F(G)  881412, P(G) IRR  222674, F(G) IRR  222674
 MAX G-VECTOR INDEX FOR 1- AND 2-ELECTRON INTEGRALS  63

 TTTTTTTTTTTTTTTTTTTTTTTTTTTTTT INPUT       TELAPSE        5.37 TCPU        0.50

 NEIGHBORS OF THE NON-EQUIVALENT ATOMS

 N = NUMBER OF NEIGHBORS AT DISTANCE R
    ATOM  N     R/ANG      R/AU   NEIGHBORS (ATOM LABELS AND CELL INDICES)
   1 H    1     1.0941     2.0676   17 C    0 0 0
   1 H    1     2.0834     3.9371   45 N    0 0 0
   1 H    1     2.1726     4.1055   26 C    0 0 0
   1 H    1     2.2350     4.2235   46 N    0 0 0
   1 H    1     2.5564     4.8310    2 H    0 0 0
   1 H    1     2.7893     5.2709   18 C    0 0 0

   5 C    1     1.4112     2.6668   13 C    0 0 0
   5 C    1     1.4125     2.6692   21 C    0 0 0
   5 C    1     1.4734     2.7842    9 C    0 0 0
   5 C    1     2.4374     4.6060   45 N    0 0 0
   5 C    1     2.4381     4.6074   26 C    0 0 0
   5 C    1     2.4717     4.6708   29 N    0-1 0

   9 C    1     1.3648     2.5792   29 N    0-1 0
   9 C    1     1.3690     2.5870   37 N    0-1 0
   9 C    1     1.4734     2.7842    5 C    0 0 0
   9 C    1     2.1938     4.1457   41 N    0-1 0
   9 C    1     2.1952     4.1483   33 N    0-1 0
   9 C    1     2.5265     4.7744   13 C    0 0 0

  13 C    1     1.4072     2.6592   26 C    0 0 0
  13 C    1     1.4112     2.6668    5 C    0 0 0
  13 C    1     1.7201     3.2506   49 CL   0-1 0
  13 C    1     2.3770     4.4919   21 C    0 0 0
  13 C    1     2.4177     4.5688   17 C    0 0 0
  13 C    1     2.5265     4.7744    9 C    0 0 0

  17 C    1     1.0941     2.0676    1 H    0 0 0
  17 C    1     1.3406     2.5334   45 N    0 0 0
  17 C    1     1.3941     2.6345   26 C    0 0 0
  17 C    1     2.2929     4.3330   21 C    0 0 0
  17 C    1     2.4177     4.5688   13 C    0 0 0
  17 C    1     2.6593     5.0254   57 CL   0 0 0

  21 C    1     1.3258     2.5054   45 N    0 0 0
  21 C    1     1.4125     2.6692    5 C    0 0 0
  21 C    1     1.7278     3.2651   53 CL   0 0 0
  21 C    1     2.2929     4.3330   17 C    0 0 0
  21 C    1     2.3770     4.4919   13 C    0 0 0
  21 C    1     2.5280     4.7772    9 C    0 0 0

  25 C    1     1.3941     2.6345   18 C    0 0 0
  25 C    1     1.4072     2.6592   14 C    0 0 0
  25 C    1     1.7159     3.2425   58 CL   0 0 0
  25 C    1     2.1726     4.1055    2 H    0 0 0
  25 C    1     2.3858     4.5086   46 N    0 0 0
  25 C    1     2.4381     4.6074    6 C    0 0 0

  29 N    1     1.3648     2.5792    9 C    0 1 0
  29 N    1     1.3726     2.5939   33 N    0 0 0
  29 N    1     2.1911     4.1406   41 N    0 0 0
  29 N    1     2.1939     4.1459   61 ZN   1 1 0
  29 N    1     2.2248     4.2042   37 N    0 0 0
  29 N    1     2.4717     4.6708    5 C    0 1 0

  33 N    1     1.3179     2.4904   41 N    0 0 0
  33 N    1     1.3726     2.5939   29 N    0 0 0
  33 N    1     2.1952     4.1483    9 C    0 1 0
  33 N    1     2.2019     4.1610   37 N    0 0 0
  33 N    1     2.9410     5.5578   54 CL   1 1 1
  33 N    1     2.9774     5.6266   23 C    0 0 0

  37 N    1     1.3690     2.5870    9 C    0 1 0
  37 N    1     1.3789     2.6057   41 N    0 0 0
  37 N    1     2.1057     3.9792   62 ZN   0 0 0
  37 N    1     2.2019     4.1610   33 N    0 0 0
  37 N    1     2.2248     4.2042   29 N    0 0 0
  37 N    1     2.5744     4.8649    5 C    0 1 0

  41 N    1     1.3179     2.4904   33 N    0 0 0
  41 N    1     1.3789     2.6057   37 N    0 0 0
  41 N    1     2.1911     4.1406   29 N    0 0 0
  41 N    1     2.1938     4.1457    9 C    0 1 0
  41 N    1     2.8232     5.3351   62 ZN   0 0 0
  41 N    1     2.8450     5.3763   50 CL   0 0 0

  45 N    1     1.3258     2.5054   21 C    0 0 0
  45 N    1     1.3406     2.5334   17 C    0 0 0
  45 N    1     2.0834     3.9371    1 H    0 0 0
  45 N    1     2.2350     4.2235    2 H    0 0 0
  45 N    1     2.3858     4.5086   26 C    0 0 0
  45 N    1     2.4374     4.6060    5 C    0 0 0

  49 CL   1     1.7201     3.2506   13 C    0 1 0
  49 CL   1     2.6919     5.0870    5 C    0 1 0
  49 CL   1     2.7393     5.1765   26 C    0 1 0
  49 CL   1     2.8450     5.3763   42 N    0 0 0
  49 CL   1     3.0445     5.7533   58 CL   0 0-1
  49 CL   1     3.0485     5.7608    9 C    0 1 0

  53 CL   1     1.7278     3.2651   21 C    0 0 0
  53 CL   1     2.5746     4.8654   45 N    0 0 0
  53 CL   1     2.7233     5.1463    5 C    0 0 0
  53 CL   1     2.8612     5.4069   30 N    0 0 1
  53 CL   1     2.8754     5.4338   61 ZN   1 0 0
  53 CL   1     2.9410     5.5578   34 N    0 0 1

  57 CL   1     1.7159     3.2425   26 C    0 0 0
  57 CL   1     2.6593     5.0254   17 C    0 0 0
  57 CL   1     2.7545     5.2053   13 C    0 0 0
  57 CL   1     2.8068     5.3040    1 H    0 0 0
  57 CL   1     3.0445     5.7533   50 CL  -1-1-1
  57 CL   1     3.1465     5.9459   58 CL   0-1-1

  61 ZN   4     2.1939     4.1459   29 N   -1-1 0   30 N   -1 0 1   31 N    0 0 1
                                    32 N   -1 0 0
  61 ZN   4     2.8754     5.4338   53 CL  -1 0 0   54 CL   0 0 1   55 CL  -1-1 0
                                    56 CL  -1 0 1
  61 ZN   4     3.0000     5.6691   33 N   -1-1 0   34 N   -1 0 1   35 N    0 0 1
                                    36 N   -1 0 0
  61 ZN   4     3.3455     6.3220    9 C   -1 0 0   10 C    0 0 1   11 C   -1-1 0
                                    12 C   -1 0 1
  61 ZN   4     3.5944     6.7924   21 C   -1 0 0   22 C    0 0 1   23 C   -1-1 0
                                    24 C   -1 0 1
  61 ZN   4     3.8202     7.2192    5 C   -1 0 0    6 C    0 0 1    7 C   -1-1 0
                                     8 C   -1 0 1

  62 ZN   4     2.1057     3.9792   37 N    0 0 0   38 N    0 0 0   39 N    1 1 0
                                    40 N    1 1 0
  62 ZN   4     2.8232     5.3351   41 N    0 0 0   42 N    0 0 0   43 N    1 1 0
                                    44 N    1 1 0
  62 ZN   4     3.3436     6.3186    9 C    0 1 0   10 C    1 0 0   11 C    0 0-1
                                    12 C    1 1 1
  62 ZN   4     3.3587     6.3471   49 CL   0 0 0   50 CL   0 0 0   51 CL   1 1 0
                                    52 CL   1 1 0
  62 ZN   4     4.0570     7.6666   33 N    0 0 0   34 N    0 0 0   35 N    1 1 0
                                    36 N    1 1 0
  62 ZN   4     4.0937     7.7359    5 C    0 1 0    6 C    1 0 0    7 C    0 0-1
                                     8 C    1 1 1


 SYMMETRY ALLOWED INTERNAL DEGREE(S) OF FREEDOM:  45
 TTTTTTTTTTTTTTTTTTTTTTTTTTTTTT SYMM        TELAPSE        5.40 TCPU        0.52
 TTTTTTTTTTTTTTTTTTTTTTTTTTTTTT INT_SCREEN  TELAPSE        5.41 TCPU        0.53
 INFORMATION **** EXCBUF **** EXCH. BIPO BUFFER: WORDS USED =           0

 DFT PARAMETERS

     ATOM       ELECTRONS   NET CHARGE   R(ANGSTROM)
   1   1  H       1.0000      0.0000     1.11000000
   5   6  C       6.0000      0.0000     0.77000000
  29   7  N       7.0000      0.0000     0.74000000
  49  17  CL     17.0000      0.0000     0.99000000
  61  30  ZN     30.0000      0.0000     1.37000000

 SIZE OF GRID=     487393
 TTTTTTTTTTTTTTTTTTTTTTTTTTTTTT MAKE_GRID2  TELAPSE        6.14 TCPU        1.26
 BECKE WEIGHT FUNCTION
 RADSAFE =     2.00
 TOLERANCES - DENSITY:10**- 6; POTENTIAL:10**- 9; GRID WGT:10**-14

 RADIAL INTEGRATION  - INTERVALS (POINTS,UPPER LIMIT):            1( 75,  4.0*R)

 ANGULAR INTEGRATION - INTERVALS (ACCURACY LEVEL [N. POINTS] UPPER LIMIT):
  1(  4[  86]   0.2)  2(  8[ 194]   0.5)  3( 12[ 350]   0.9)  4( 16[ 974]   3.5)
  5( 12[ 350]9999.0)
 TTTTTTTTTTTTTTTTTTTTTTTTTTTTTT INT_CALC    TELAPSE        6.19 TCPU        1.31
 EEEEEEEEEE INT_CALC TERMINATION  DATE 11 12 2023 TIME 12:29:16.3

 *******************************************************************************
 Z:\home\sanoj\Downloads\tmp_p\newconn.mol                                       
 CRYSTAL - SCF - TYPE OF CALCULATION :  RESTRICTED CLOSED SHELL
 *******************************************************************************

 CAPPA:IS1  3;IS2  3;IS3  3; K PTS MONK NET   6; SYMMOPS:K SPACE   8;G SPACE   4

 TTTTTTTTTTTTTTTTTTTTTTTTTTTTTT SDIK        TELAPSE        6.43 TCPU        1.55

 AAAAAAAAAAAAAAAAAAAAAAAAAAAAAAAAAAAAAAAAAAAAAAAAAAAAAAAAAAAAAAAAAAAAAAAAAAAAAAA
         ATOMIC WAVEFUNCTION(S)


 NUCLEAR CHARGE  1.0  SYMMETRY SPECIES            S
 N. ELECTRONS    1.0  NUMBER OF PRIMITIVE GTOS    4
                      NUMBER OF CONTRACTED GTOS   2
                      NUMBER OF CLOSED SHELLS     0
                      OPEN SHELL OCCUPATION       1

  ZNUC SCFIT  TOTAL HF ENERGY   KINETIC ENERGY   VIRIAL THEOREM ACCURACY
   1.0   1   -4.946643675E-01  4.917913167E-01 -2.005842012E+00  9.4E-17

 NUCLEAR CHARGE  6.0  SYMMETRY SPECIES            S    P
 N. ELECTRONS    6.0  NUMBER OF PRIMITIVE GTOS    7    4
                      NUMBER OF CONTRACTED GTOS   3    2
                      NUMBER OF CLOSED SHELLS     2    0
                      OPEN SHELL OCCUPATION       0    2

  ZNUC SCFIT  TOTAL HF ENERGY   KINETIC ENERGY   VIRIAL THEOREM ACCURACY
   6.0   6   -3.750912652E+01  3.905246519E+01 -1.960480378E+00  3.7E-06

 NUCLEAR CHARGE  7.0  SYMMETRY SPECIES            S    P
 N. ELECTRONS    7.0  NUMBER OF PRIMITIVE GTOS    7    4
                      NUMBER OF CONTRACTED GTOS   3    2
                      NUMBER OF CLOSED SHELLS     2    0
                      OPEN SHELL OCCUPATION       0    3

  ZNUC SCFIT  TOTAL HF ENERGY   KINETIC ENERGY   VIRIAL THEOREM ACCURACY
   7.0   9   -5.432196661E+01  5.425066284E+01 -2.001314339E+00  1.2E-06

 NUCLEAR CHARGE 17.0  SYMMETRY SPECIES            S    P
 N. ELECTRONS   17.0  NUMBER OF PRIMITIVE GTOS   10    7
                      NUMBER OF CONTRACTED GTOS   4    3
                      NUMBER OF CLOSED SHELLS     3    1
                      OPEN SHELL OCCUPATION       0    5

  ZNUC SCFIT  TOTAL HF ENERGY   KINETIC ENERGY   VIRIAL THEOREM ACCURACY
  17.0   9   -4.593005957E+02  4.593991532E+02 -1.999785464E+00  2.3E-06

 NUCLEAR CHARGE 30.0  SYMMETRY SPECIES            S    P    D
 N. ELECTRONS   30.0  NUMBER OF PRIMITIVE GTOS   14    9    5
                      NUMBER OF CONTRACTED GTOS   5    3    2
                      NUMBER OF CLOSED SHELLS     4    2    1
                      OPEN SHELL OCCUPATION       0    0    0

  ZNUC SCFIT  TOTAL HF ENERGY   KINETIC ENERGY   VIRIAL THEOREM ACCURACY
  30.0  10   -1.777404290E+03  1.777325716E+03 -2.000044209E+00  2.5E-06

 AAAAAAAAAAAAAAAAAAAAAAAAAAAAAAAAAAAAAAAAAAAAAAAAAAAAAAAAAAAAAAAAAAAAAAAAAAAAAAA

 TOTAL ATOMIC CHARGES:
   1.0000000   1.0000000   1.0000000   1.0000000   6.0000000   6.0000000
   6.0000000   6.0000000   6.0000000   6.0000000   6.0000000   6.0000000
   6.0000000   6.0000000   6.0000000   6.0000000   6.0000000   6.0000000
   6.0000000   6.0000000   6.0000000   6.0000000   6.0000000   6.0000000
   6.0000000   6.0000000   6.0000000   6.0000000   7.0000000   7.0000000
   7.0000000   7.0000000   7.0000000   7.0000000   7.0000000   7.0000000
   7.0000000   7.0000000   7.0000000   7.0000000   7.0000000   7.0000000
   7.0000000   7.0000000   7.0000000   7.0000000   7.0000000   7.0000000
  17.0000000  17.0000000  17.0000000  17.0000000  17.0000000  17.0000000
  17.0000000  17.0000000  17.0000000  17.0000000  17.0000000  17.0000000
  30.0000000  30.0000000
 TTTTTTTTTTTTTTTTTTTTTTTTTTTTTT MOQGAD      TELAPSE        8.50 TCPU        3.61
 TTTTTTTTTTTTTTTTTTTTTTTTTTTTTT SHELLXN     TELAPSE       74.60 TCPU       57.10
 TTTTTTTTTTTTTTTTTTTTTTTTTTTTTT MONMO3      TELAPSE       78.01 TCPU       60.50
 NUMERICALLY INTEGRATED DENSITY    551.9999085618
 TTTTTTTTTTTTTTTTTTTTTTTTTTTTTT NUMDFT      TELAPSE       80.14 TCPU       62.61
 CYC   0 ETOT(AU) -1.108899094006E+04 DETOT -1.11E+04 tst  0.00E+00 PX  1.00E+00
 TTTTTTTTTTTTTTTTTTTTTTTTTTTTTT DIIS        TELAPSE       80.24 TCPU       62.70
 TTTTTTTTTTTTTTTTTTTTTTTTTTTTTT FDIK        TELAPSE      137.91 TCPU      114.15
 INSULATING STATE
 TOP OF VALENCE BANDS -    BAND    276; K    4; EIG -1.2785223E-01 AU
 TOP OF VALENCE BANDS -    BAND    276; K    1; EIG -1.2856895E-01 AU
 BOTTOM OF VIRTUAL BANDS - BAND    277; K    6; EIG -9.2749067E-02 AU
 INDIRECT ENERGY BAND GAP:   0.9552 eV
 BOTTOM OF VIRTUAL BANDS - BAND    277; K    1; EIG -9.0350793E-02 AU
 TTTTTTTTTTTTTTTTTTTTTTTTTTTTTT PDIG        TELAPSE      138.77 TCPU      115.01
 TOTAL ATOMIC CHARGES:
   1.3005745   1.3005745   1.3005745   1.3005745   6.3005119   6.3005119
   6.3005119   6.3005119   5.5110125   5.5110125   5.5110125   5.5110125
   5.4828443   5.4828443   5.4828443   5.4828443   5.9834085   5.9834085
   5.9834085   5.9834085   5.0822141   5.0822141   5.0822141   5.0822141
   5.4076705   5.4076705   5.4076705   5.4076705   7.4819374   7.4819374
   7.4819374   7.4819374   7.2103689   7.2103689   7.2103689   7.2103689
   7.4532119   7.4532119   7.4532119   7.4532119   7.1592957   7.1592957
   7.1592957   7.1592957   7.5718056   7.5718056   7.5718056   7.5718056
  17.3107034  17.3107034  17.3107034  17.3107034  17.3654608  17.3654608
  17.3654608  17.3654608  17.3608553  17.3608553  17.3608553  17.3608553
  28.0367794  28.0357193
 TTTTTTTTTTTTTTTTTTTTTTTTTTTTTT MOQGAD      TELAPSE      138.82 TCPU      115.06
 TTTTTTTTTTTTTTTTTTTTTTTTTTTTTT SHELLXN     TELAPSE      203.46 TCPU      177.33
 TTTTTTTTTTTTTTTTTTTTTTTTTTTTTT MONMO3      TELAPSE      209.70 TCPU      183.56
 NUMERICALLY INTEGRATED DENSITY    551.9998811642
 TTTTTTTTTTTTTTTTTTTTTTTTTTTTTT NUMDFT      TELAPSE      215.49 TCPU      189.32
 CYC   1 ETOT(AU) -1.108328092804E+04 DETOT  5.71E+00 tst  0.00E+00 PX  1.00E+00
 TTTTTTTTTTTTTTTTTTTTTTTTTTTTTT DIIS        TELAPSE      215.69 TCPU      189.51
 DIIS TEST: 0.86754E+01 AT SCF   CYCLE   1 - MIX   30 %
 TTTTTTTTTTTTTTTTTTTTTTTTTTTTTT FDIK        TELAPSE      234.71 TCPU      206.37
 INSULATING STATE
 TOP OF VALENCE BANDS -    BAND    276; K    4; EIG -1.4832985E-01 AU
 TOP OF VALENCE BANDS -    BAND    276; K    1; EIG -1.4958724E-01 AU
 BOTTOM OF VIRTUAL BANDS - BAND    277; K    6; EIG -1.2872644E-01 AU
 INDIRECT ENERGY BAND GAP:   0.5334 eV
 BOTTOM OF VIRTUAL BANDS - BAND    277; K    1; EIG -1.2418543E-01 AU
 TTTTTTTTTTTTTTTTTTTTTTTTTTTTTT PDIG        TELAPSE      235.57 TCPU      207.24
 TOTAL ATOMIC CHARGES:
   1.2769146   1.2769146   1.2769146   1.2769146   6.2825965   6.2825965
   6.2825965   6.2825965   6.4547317   6.4547317   6.4547317   6.4547317
   6.2636138   6.2636138   6.2636138   6.2636138   5.9168699   5.9168699
   5.9168699   5.9168699   6.1452583   6.1452583   6.1452583   6.1452583
   5.8001169   5.8001169   5.8001169   5.8001169   6.8928523   6.8928523
   6.8928523   6.8928523   6.9288794   6.9288794   6.9288794   6.9288794
   6.9453443   6.9453443   6.9453443   6.9453443   6.8803212   6.8803212
   6.8803212   6.8803212   5.9739887   5.9739887   5.9739887   5.9739887
  17.1225755  17.1225755  17.1225755  17.1225755  17.2847583  17.2847583
  17.2847583  17.2847583  17.1246192  17.1246192  17.1246192  17.1246192
  29.4405947  29.3856431
 TTTTTTTTTTTTTTTTTTTTTTTTTTTTTT MOQGAD      TELAPSE      235.62 TCPU      207.28
 TTTTTTTTTTTTTTTTTTTTTTTTTTTTTT SHELLXN     TELAPSE      299.81 TCPU      269.23
 TTTTTTTTTTTTTTTTTTTTTTTTTTTTTT MONMO3      TELAPSE      306.56 TCPU      275.96
 NUMERICALLY INTEGRATED DENSITY    551.9998690710
 TTTTTTTTTTTTTTTTTTTTTTTTTTTTTT NUMDFT      TELAPSE      312.22 TCPU      281.60
 CYC   2 ETOT(AU) -1.108141728752E+04 DETOT  1.86E+00 tst  1.29E-02 PX  5.88E-01
 TTTTTTTTTTTTTTTTTTTTTTTTTTTTTT DIIS        TELAPSE      312.42 TCPU      281.80
 DIIS TEST: 0.23639E+02 AT SCF   CYCLE   2 - DIIS ACTIVE - HISTORY:     2 CYCLES
 TTTTTTTTTTTTTTTTTTTTTTTTTTTTTT FDIK        TELAPSE      331.31 TCPU      298.51
 INSULATING STATE
 TOP OF VALENCE BANDS -    BAND    276; K    3; EIG -2.3484385E-01 AU
 TOP OF VALENCE BANDS -    BAND    276; K    1; EIG -2.3687556E-01 AU
 BOTTOM OF VIRTUAL BANDS - BAND    277; K    6; EIG -1.2702404E-01 AU
 INDIRECT ENERGY BAND GAP:   2.9339 eV
 BOTTOM OF VIRTUAL BANDS - BAND    277; K    1; EIG -1.2583935E-01 AU
 TTTTTTTTTTTTTTTTTTTTTTTTTTTTTT PDIG        TELAPSE      332.18 TCPU      299.37
 TOTAL ATOMIC CHARGES:
   1.2292162   1.2292162   1.2292162   1.2292162   5.9809766   5.9809766
   5.9809766   5.9809766   5.9568638   5.9568638   5.9568638   5.9568638
   5.7014945   5.7014945   5.7014945   5.7014945   6.2234446   6.2234446
   6.2234446   6.2234446   5.6652407   5.6652407   5.6652407   5.6652407
   5.6095332   5.6095332   5.6095332   5.6095332   7.0870290   7.0870290
   7.0870290   7.0870290   7.1124130   7.1124130   7.1124130   7.1124130
   7.0560448   7.0560448   7.0560448   7.0560448   7.0810535   7.0810535
   7.0810535   7.0810535   7.2905313   7.2905313   7.2905313   7.2905313
  17.1651602  17.1651602  17.1651602  17.1651602  17.1391882  17.1391882
  17.1391882  17.1391882  17.1316353  17.1316353  17.1316353  17.1316353
  29.1217895  29.1589109
 TTTTTTTTTTTTTTTTTTTTTTTTTTTTTT MOQGAD      TELAPSE      332.23 TCPU      299.42
 TTTTTTTTTTTTTTTTTTTTTTTTTTTTTT SHELLXN     TELAPSE      397.65 TCPU      361.54
 TTTTTTTTTTTTTTTTTTTTTTTTTTTTTT MONMO3      TELAPSE      403.15 TCPU      367.02
 NUMERICALLY INTEGRATED DENSITY    551.9998789518
 TTTTTTTTTTTTTTTTTTTTTTTTTTTTTT NUMDFT      TELAPSE      408.88 TCPU      372.74
 CYC   3 ETOT(AU) -1.108442274869E+04 DETOT -3.01E+00 tst  1.06E-02 PX  3.16E-01
 TTTTTTTTTTTTTTTTTTTTTTTTTTTTTT DIIS        TELAPSE      409.10 TCPU      372.95
 DIIS TEST: 0.27260E+01 AT SCF   CYCLE   3 - DIIS ACTIVE - HISTORY:     3 CYCLES
 TTTTTTTTTTTTTTTTTTTTTTTTTTTTTT FDIK        TELAPSE      426.21 TCPU      387.93
 INSULATING STATE
 TOP OF VALENCE BANDS -    BAND    276; K    4; EIG -2.2922213E-01 AU
 TOP OF VALENCE BANDS -    BAND    276; K    1; EIG -2.3111315E-01 AU
 BOTTOM OF VIRTUAL BANDS - BAND    277; K    6; EIG -1.2582220E-01 AU
 INDIRECT ENERGY BAND GAP:   2.8137 eV
 BOTTOM OF VIRTUAL BANDS - BAND    277; K    1; EIG -1.2230986E-01 AU
 TTTTTTTTTTTTTTTTTTTTTTTTTTTTTT PDIG        TELAPSE      427.07 TCPU      388.80
 TOTAL ATOMIC CHARGES:
   1.2639663   1.2639663   1.2639663   1.2639663   6.2913485   6.2913485
   6.2913485   6.2913485   5.8568428   5.8568428   5.8568428   5.8568428
   5.8030375   5.8030375   5.8030375   5.8030375   5.8952139   5.8952139
   5.8952139   5.8952139   5.4713182   5.4713182   5.4713182   5.4713182
   5.5795611   5.5795611   5.5795611   5.5795611   7.2722382   7.2722382
   7.2722382   7.2722382   7.0794172   7.0794172   7.0794172   7.0794172
   7.2604021   7.2604021   7.2604021   7.2604021   7.0381933   7.0381933
   7.0381933   7.0381933   7.0155007   7.0155007   7.0155007   7.0155007
  17.2311946  17.2311946  17.2311946  17.2311946  17.2810789  17.2810789
  17.2810789  17.2810789  17.2696168  17.2696168  17.2696168  17.2696168
  28.7742887  28.7899905
 TTTTTTTTTTTTTTTTTTTTTTTTTTTTTT MOQGAD      TELAPSE      427.12 TCPU      388.84
 TTTTTTTTTTTTTTTTTTTTTTTTTTTTTT SHELLXN     TELAPSE      491.74 TCPU      451.06
 TTTTTTTTTTTTTTTTTTTTTTTTTTTTTT MONMO3      TELAPSE      498.12 TCPU      457.43
 NUMERICALLY INTEGRATED DENSITY    551.9998818850
 TTTTTTTTTTTTTTTTTTTTTTTTTTTTTT NUMDFT      TELAPSE      503.83 TCPU      463.12
 CYC   4 ETOT(AU) -1.108481464944E+04 DETOT -3.92E-01 tst  4.02E-03 PX  2.32E-01
 TTTTTTTTTTTTTTTTTTTTTTTTTTTTTT DIIS        TELAPSE      504.03 TCPU      463.32
 DIIS TEST: 0.63232E+00 AT SCF   CYCLE   4 - DIIS ACTIVE - HISTORY:     4 CYCLES
 TTTTTTTTTTTTTTTTTTTTTTTTTTTTTT FDIK        TELAPSE      521.41 TCPU      477.89
 INSULATING STATE
 TOP OF VALENCE BANDS -    BAND    276; K    1; EIG -2.4169887E-01 AU
 BOTTOM OF VIRTUAL BANDS - BAND    277; K    6; EIG -1.2974498E-01 AU
 INDIRECT ENERGY BAND GAP:   3.0464 eV
 BOTTOM OF VIRTUAL BANDS - BAND    277; K    1; EIG -1.2728487E-01 AU
 TTTTTTTTTTTTTTTTTTTTTTTTTTTTTT PDIG        TELAPSE      522.28 TCPU      478.76
 TOTAL ATOMIC CHARGES:
   1.2518603   1.2518603   1.2518603   1.2518603   6.2228158   6.2228158
   6.2228158   6.2228158   5.9088469   5.9088469   5.9088469   5.9088469
   5.7858061   5.7858061   5.7858061   5.7858061   6.0260140   6.0260140
   6.0260140   6.0260140   5.5743946   5.5743946   5.5743946   5.5743946
   5.5902688   5.5902688   5.5902688   5.5902688   7.1915461   7.1915461
   7.1915461   7.1915461   7.1396261   7.1396261   7.1396261   7.1396261
   7.1542394   7.1542394   7.1542394   7.1542394   7.0575144   7.0575144
   7.0575144   7.0575144   7.0669045   7.0669045   7.0669045   7.0669045
  17.1851340  17.1851340  17.1851340  17.1851340  17.2546198  17.2546198
  17.2546198  17.2546198  17.2084430  17.2084430  17.2084430  17.2084430
  28.7641093  28.7637556
 TTTTTTTTTTTTTTTTTTTTTTTTTTTTTT MOQGAD      TELAPSE      522.33 TCPU      478.81
 TTTTTTTTTTTTTTTTTTTTTTTTTTTTTT SHELLXN     TELAPSE      586.85 TCPU      540.93
 TTTTTTTTTTTTTTTTTTTTTTTTTTTTTT MONMO3      TELAPSE      592.77 TCPU      546.83
 NUMERICALLY INTEGRATED DENSITY    551.9998790950
 TTTTTTTTTTTTTTTTTTTTTTTTTTTTTT NUMDFT      TELAPSE      598.44 TCPU      552.49
 CYC   5 ETOT(AU) -1.108489414356E+04 DETOT -7.95E-02 tst  5.23E-04 PX  4.31E-02
 TTTTTTTTTTTTTTTTTTTTTTTTTTTTTT DIIS        TELAPSE      598.65 TCPU      552.69
 DIIS TEST: 0.88732E-01 AT SCF   CYCLE   5 - DIIS ACTIVE - HISTORY:     5 CYCLES
 TTTTTTTTTTTTTTTTTTTTTTTTTTTTTT FDIK        TELAPSE      612.98 TCPU      564.90
 INSULATING STATE
 TOP OF VALENCE BANDS -    BAND    276; K    1; EIG -2.3961774E-01 AU
 BOTTOM OF VIRTUAL BANDS - BAND    277; K    6; EIG -1.2724990E-01 AU
 INDIRECT ENERGY BAND GAP:   3.0577 eV
 BOTTOM OF VIRTUAL BANDS - BAND    277; K    1; EIG -1.2447904E-01 AU
 TTTTTTTTTTTTTTTTTTTTTTTTTTTTTT PDIG        TELAPSE      613.84 TCPU      565.76
 TOTAL ATOMIC CHARGES:
   1.2544882   1.2544882   1.2544882   1.2544882   6.2002173   6.2002173
   6.2002173   6.2002173   5.8834829   5.8834829   5.8834829   5.8834829
   5.7713744   5.7713744   5.7713744   5.7713744   6.0111913   6.0111913
   6.0111913   6.0111913   5.5184153   5.5184153   5.5184153   5.5184153
   5.5816887   5.5816887   5.5816887   5.5816887   7.2044948   7.2044948
   7.2044948   7.2044948   7.0717992   7.0717992   7.0717992   7.0717992
   7.2257274   7.2257274   7.2257274   7.2257274   7.0757636   7.0757636
   7.0757636   7.0757636   7.0917922   7.0917922   7.0917922   7.0917922
  17.2196512  17.2196512  17.2196512  17.2196512  17.2578621  17.2578621
  17.2578621  17.2578621  17.2324603  17.2324603  17.2324603  17.2324603
  28.7937672  28.8045971
 TTTTTTTTTTTTTTTTTTTTTTTTTTTTTT MOQGAD      TELAPSE      613.89 TCPU      565.80
 TTTTTTTTTTTTTTTTTTTTTTTTTTTTTT SHELLXN     TELAPSE      678.21 TCPU      627.86
 TTTTTTTTTTTTTTTTTTTTTTTTTTTTTT MONMO3      TELAPSE      684.90 TCPU      634.54
 NUMERICALLY INTEGRATED DENSITY    551.9998793696
 TTTTTTTTTTTTTTTTTTTTTTTTTTTTTT NUMDFT      TELAPSE      690.66 TCPU      640.26
 CYC   6 ETOT(AU) -1.108490420969E+04 DETOT -1.01E-02 tst  5.32E-05 PX  3.91E-02
 TTTTTTTTTTTTTTTTTTTTTTTTTTTTTT DIIS        TELAPSE      690.87 TCPU      640.46
 DIIS TEST: 0.31378E-01 AT SCF   CYCLE   6 - DIIS ACTIVE - HISTORY:     6 CYCLES
 TTTTTTTTTTTTTTTTTTTTTTTTTTTTTT FDIK        TELAPSE      708.15 TCPU      655.59
 INSULATING STATE
 TOP OF VALENCE BANDS -    BAND    276; K    1; EIG -2.3938702E-01 AU
 BOTTOM OF VIRTUAL BANDS - BAND    277; K    6; EIG -1.2734443E-01 AU
 INDIRECT ENERGY BAND GAP:   3.0488 eV
 BOTTOM OF VIRTUAL BANDS - BAND    277; K    1; EIG -1.2476695E-01 AU
 TTTTTTTTTTTTTTTTTTTTTTTTTTTTTT PDIG        TELAPSE      709.02 TCPU      656.46
 TOTAL ATOMIC CHARGES:
   1.2541799   1.2541799   1.2541799   1.2541799   6.2031954   6.2031954
   6.2031954   6.2031954   5.8899675   5.8899675   5.8899675   5.8899675
   5.7712630   5.7712630   5.7712630   5.7712630   6.0034242   6.0034242
   6.0034242   6.0034242   5.5349306   5.5349306   5.5349306   5.5349306
   5.5801146   5.5801146   5.5801146   5.5801146   7.2325314   7.2325314
   7.2325314   7.2325314   7.1181635   7.1181635   7.1181635   7.1181635
   7.1780063   7.1780063   7.1780063   7.1780063   7.0431332   7.0431332
   7.0431332   7.0431332   7.0979754   7.0979754   7.0979754   7.0979754
  17.2093982  17.2093982  17.2093982  17.2093982  17.2528785  17.2528785
  17.2528785  17.2528785  17.2284595  17.2284595  17.2284595  17.2284595
  28.8012019  28.8083130
 TTTTTTTTTTTTTTTTTTTTTTTTTTTTTT MOQGAD      TELAPSE      709.07 TCPU      656.51
 TTTTTTTTTTTTTTTTTTTTTTTTTTTTTT SHELLXN     TELAPSE      773.44 TCPU      718.64
 TTTTTTTTTTTTTTTTTTTTTTTTTTTTTT MONMO3      TELAPSE      780.02 TCPU      725.20
 NUMERICALLY INTEGRATED DENSITY    551.9998799298
 TTTTTTTTTTTTTTTTTTTTTTTTTTTTTT NUMDFT      TELAPSE      785.65 TCPU      730.82
 CYC   7 ETOT(AU) -1.108490703867E+04 DETOT -2.83E-03 tst  2.44E-05 PX  1.28E-02
 TTTTTTTTTTTTTTTTTTTTTTTTTTTTTT DIIS        TELAPSE      785.86 TCPU      731.03
 DIIS TEST: 0.16685E-01 AT SCF   CYCLE   7 - DIIS ACTIVE - HISTORY:     7 CYCLES
 TTTTTTTTTTTTTTTTTTTTTTTTTTTTTT FDIK        TELAPSE      800.14 TCPU      743.09
 INSULATING STATE
 TOP OF VALENCE BANDS -    BAND    276; K    1; EIG -2.3950085E-01 AU
 BOTTOM OF VIRTUAL BANDS - BAND    277; K    6; EIG -1.2773213E-01 AU
 INDIRECT ENERGY BAND GAP:   3.0414 eV
 BOTTOM OF VIRTUAL BANDS - BAND    277; K    1; EIG -1.2509976E-01 AU
 TTTTTTTTTTTTTTTTTTTTTTTTTTTTTT PDIG        TELAPSE      801.01 TCPU      743.96
 TOTAL ATOMIC CHARGES:
   1.2535706   1.2535706   1.2535706   1.2535706   6.2034634   6.2034634
   6.2034634   6.2034634   5.8947515   5.8947515   5.8947515   5.8947515
   5.7742812   5.7742812   5.7742812   5.7742812   6.0119431   6.0119431
   6.0119431   6.0119431   5.5404419   5.5404419   5.5404419   5.5404419
   5.5850530   5.5850530   5.5850530   5.5850530   7.2011935   7.2011935
   7.2011935   7.2011935   7.1051044   7.1051044   7.1051044   7.1051044
   7.1934697   7.1934697   7.1934697   7.1934697   7.0645989   7.0645989
   7.0645989   7.0645989   7.0916113   7.0916113   7.0916113   7.0916113
  17.2070200  17.2070200  17.2070200  17.2070200  17.2484564  17.2484564
  17.2484564  17.2484564  17.2239453  17.2239453  17.2239453  17.2239453
  28.7970725  28.8073100
 TTTTTTTTTTTTTTTTTTTTTTTTTTTTTT MOQGAD      TELAPSE      801.06 TCPU      744.01
 TTTTTTTTTTTTTTTTTTTTTTTTTTTTTT SHELLXN     TELAPSE      865.77 TCPU      806.34
 TTTTTTTTTTTTTTTTTTTTTTTTTTTTTT MONMO3      TELAPSE      871.47 TCPU      812.02
 NUMERICALLY INTEGRATED DENSITY    551.9998798853
 TTTTTTTTTTTTTTTTTTTTTTTTTTTTTT NUMDFT      TELAPSE      877.14 TCPU      817.67
 CYC   8 ETOT(AU) -1.108490947377E+04 DETOT -2.44E-03 tst  5.81E-06 PX  7.96E-03
 TTTTTTTTTTTTTTTTTTTTTTTTTTTTTT DIIS        TELAPSE      877.35 TCPU      817.88
 DIIS TEST: 0.10180E-02 AT SCF   CYCLE   8 - DIIS ACTIVE - HISTORY:     8 CYCLES
 TTTTTTTTTTTTTTTTTTTTTTTTTTTTTT FDIK        TELAPSE      894.74 TCPU      833.09
 INSULATING STATE
 TOP OF VALENCE BANDS -    BAND    276; K    1; EIG -2.3978787E-01 AU
 BOTTOM OF VIRTUAL BANDS - BAND    277; K    6; EIG -1.2782564E-01 AU
 INDIRECT ENERGY BAND GAP:   3.0466 eV
 BOTTOM OF VIRTUAL BANDS - BAND    277; K    1; EIG -1.2524488E-01 AU
 TTTTTTTTTTTTTTTTTTTTTTTTTTTTTT PDIG        TELAPSE      895.61 TCPU      833.95
 TOTAL ATOMIC CHARGES:
   1.2530282   1.2530282   1.2530282   1.2530282   6.2032485   6.2032485
   6.2032485   6.2032485   5.8899580   5.8899580   5.8899580   5.8899580
   5.7714970   5.7714970   5.7714970   5.7714970   6.0157461   6.0157461
   6.0157461   6.0157461   5.5385047   5.5385047   5.5385047   5.5385047
   5.5838453   5.5838453   5.5838453   5.5838453   7.2132869   7.2132869
   7.2132869   7.2132869   7.0998602   7.0998602   7.0998602   7.0998602
   7.1955017   7.1955017   7.1955017   7.1955017   7.0589131   7.0589131
   7.0589131   7.0589131   7.0897906   7.0897906   7.0897906   7.0897906
  17.2077224  17.2077224  17.2077224  17.2077224  17.2535599  17.2535599
  17.2535599  17.2535599  17.2244434  17.2244434  17.2244434  17.2244434
  28.7978569  28.8065189
 TTTTTTTTTTTTTTTTTTTTTTTTTTTTTT MOQGAD      TELAPSE      895.66 TCPU      834.00
 TTTTTTTTTTTTTTTTTTTTTTTTTTTTTT SHELLXN     TELAPSE      960.14 TCPU      896.11
 TTTTTTTTTTTTTTTTTTTTTTTTTTTTTT MONMO3      TELAPSE      966.14 TCPU      902.10
 NUMERICALLY INTEGRATED DENSITY    551.9998796018
 TTTTTTTTTTTTTTTTTTTTTTTTTTTTTT NUMDFT      TELAPSE      971.86 TCPU      907.80
 CYC   9 ETOT(AU) -1.108490958643E+04 DETOT -1.13E-04 tst  7.69E-07 PX  2.67E-03
 TTTTTTTTTTTTTTTTTTTTTTTTTTTTTT DIIS        TELAPSE      972.07 TCPU      908.01
 DIIS TEST: 0.37608E-03 AT SCF   CYCLE   9 - DIIS ACTIVE - HISTORY:     9 CYCLES
 TTTTTTTTTTTTTTTTTTTTTTTTTTTTTT FDIK        TELAPSE      988.20 TCPU      921.93
 INSULATING STATE
 TOP OF VALENCE BANDS -    BAND    276; K    1; EIG -2.3977913E-01 AU
 BOTTOM OF VIRTUAL BANDS - BAND    277; K    6; EIG -1.2776748E-01 AU
 INDIRECT ENERGY BAND GAP:   3.0480 eV
 BOTTOM OF VIRTUAL BANDS - BAND    277; K    1; EIG -1.2514404E-01 AU
 TTTTTTTTTTTTTTTTTTTTTTTTTTTTTT PDIG        TELAPSE      989.06 TCPU      922.79
 TOTAL ATOMIC CHARGES:
   1.2532213   1.2532213   1.2532213   1.2532213   6.2038791   6.2038791
   6.2038791   6.2038791   5.8915412   5.8915412   5.8915412   5.8915412
   5.7732367   5.7732367   5.7732367   5.7732367   6.0115852   6.0115852
   6.0115852   6.0115852   5.5367562   5.5367562   5.5367562   5.5367562
   5.5835516   5.5835516   5.5835516   5.5835516   7.2072291   7.2072291
   7.2072291   7.2072291   7.1055385   7.1055385   7.1055385   7.1055385
   7.1919233   7.1919233   7.1919233   7.1919233   7.0611721   7.0611721
   7.0611721   7.0611721   7.0927807   7.0927807   7.0927807   7.0927807
  17.2082866  17.2082866  17.2082866  17.2082866  17.2523648  17.2523648
  17.2523648  17.2523648  17.2254332  17.2254332  17.2254332  17.2254332
  28.7983866  28.8076141
 TTTTTTTTTTTTTTTTTTTTTTTTTTTTTT MOQGAD      TELAPSE      989.11 TCPU      922.84
 TTTTTTTTTTTTTTTTTTTTTTTTTTTTTT SHELLXN     TELAPSE     1053.57 TCPU      985.01
 TTTTTTTTTTTTTTTTTTTTTTTTTTTTTT MONMO3      TELAPSE     1060.07 TCPU      991.49
 NUMERICALLY INTEGRATED DENSITY    551.9998797852
 TTTTTTTTTTTTTTTTTTTTTTTTTTTTTT NUMDFT      TELAPSE     1065.74 TCPU      997.14
 CYC  10 ETOT(AU) -1.108490963364E+04 DETOT -4.72E-05 tst  3.92E-07 PX  1.46E-03
 TTTTTTTTTTTTTTTTTTTTTTTTTTTTTT DIIS        TELAPSE     1065.97 TCPU      997.37
 DIIS TEST: 0.94405E-04 AT SCF   CYCLE  10 - DIIS ACTIVE - HISTORY:    10 CYCLES
 TTTTTTTTTTTTTTTTTTTTTTTTTTTTTT FDIK        TELAPSE     1079.72 TCPU     1011.01
 INSULATING STATE
 TOP OF VALENCE BANDS -    BAND    276; K    1; EIG -2.3970185E-01 AU
 BOTTOM OF VIRTUAL BANDS - BAND    277; K    6; EIG -1.2783632E-01 AU
 INDIRECT ENERGY BAND GAP:   3.0440 eV
 BOTTOM OF VIRTUAL BANDS - BAND    277; K    1; EIG -1.2522738E-01 AU
 TTTTTTTTTTTTTTTTTTTTTTTTTTTTTT PDIG        TELAPSE     1080.58 TCPU     1011.87
 TOTAL ATOMIC CHARGES:
   1.2531928   1.2531928   1.2531928   1.2531928   6.2033570   6.2033570
   6.2033570   6.2033570   5.8923538   5.8923538   5.8923538   5.8923538
   5.7724747   5.7724747   5.7724747   5.7724747   6.0126431   6.0126431
   6.0126431   6.0126431   5.5387370   5.5387370   5.5387370   5.5387370
   5.5838109   5.5838109   5.5838109   5.5838109   7.2093144   7.2093144
   7.2093144   7.2093144   7.1033421   7.1033421   7.1033421   7.1033421
   7.1934447   7.1934447   7.1934447   7.1934447   7.0602947   7.0602947
   7.0602947   7.0602947   7.0924030   7.0924030   7.0924030   7.0924030
  17.2078923  17.2078923  17.2078923  17.2078923  17.2511464  17.2511464
  17.2511464  17.2511464  17.2245239  17.2245239  17.2245239  17.2245239
  28.7975349  28.8067421
 TTTTTTTTTTTTTTTTTTTTTTTTTTTTTT MOQGAD      TELAPSE     1080.63 TCPU     1011.92
 TTTTTTTTTTTTTTTTTTTTTTTTTTTTTT SHELLXN     TELAPSE     1144.56 TCPU     1073.51
 TTTTTTTTTTTTTTTTTTTTTTTTTTTTTT MONMO3      TELAPSE     1151.09 TCPU     1080.02
 NUMERICALLY INTEGRATED DENSITY    551.9998797705
 TTTTTTTTTTTTTTTTTTTTTTTTTTTTTT NUMDFT      TELAPSE     1156.74 TCPU     1085.65
 CYC  11 ETOT(AU) -1.108490964542E+04 DETOT -1.18E-05 tst  5.10E-08 PX  6.90E-04
 TTTTTTTTTTTTTTTTTTTTTTTTTTTTTT DIIS        TELAPSE     1156.95 TCPU     1085.86
 DIIS TEST: 0.21897E-04 AT SCF   CYCLE  11 - DIIS ACTIVE - HISTORY:    11 CYCLES
 TTTTTTTTTTTTTTTTTTTTTTTTTTTTTT FDIK        TELAPSE     1171.44 TCPU     1098.18
 INSULATING STATE
 TOP OF VALENCE BANDS -    BAND    276; K    1; EIG -2.3974467E-01 AU
 BOTTOM OF VIRTUAL BANDS - BAND    277; K    6; EIG -1.2776620E-01 AU
 INDIRECT ENERGY BAND GAP:   3.0471 eV
 BOTTOM OF VIRTUAL BANDS - BAND    277; K    1; EIG -1.2515920E-01 AU
 TTTTTTTTTTTTTTTTTTTTTTTTTTTTTT PDIG        TELAPSE     1172.32 TCPU     1099.05
 TOTAL ATOMIC CHARGES:
   1.2531881   1.2531881   1.2531881   1.2531881   6.2030301   6.2030301
   6.2030301   6.2030301   5.8914247   5.8914247   5.8914247   5.8914247
   5.7726611   5.7726611   5.7726611   5.7726611   6.0132234   6.0132234
   6.0132234   6.0132234   5.5378421   5.5378421   5.5378421   5.5378421
   5.5840212   5.5840212   5.5840212   5.5840212   7.2091608   7.2091608
   7.2091608   7.2091608   7.1040564   7.1040564   7.1040564   7.1040564
   7.1927726   7.1927726   7.1927726   7.1927726   7.0606437   7.0606437
   7.0606437   7.0606437   7.0915114   7.0915114   7.0915114   7.0915114
  17.2080237  17.2080237  17.2080237  17.2080237  17.2521379  17.2521379
  17.2521379  17.2521379  17.2250468  17.2250468  17.2250468  17.2250468
  28.7979142  28.8071102
 TTTTTTTTTTTTTTTTTTTTTTTTTTTTTT MOQGAD      TELAPSE     1172.36 TCPU     1099.09
 TTTTTTTTTTTTTTTTTTTTTTTTTTTTTT SHELLXN     TELAPSE     1236.18 TCPU     1160.58
 TTTTTTTTTTTTTTTTTTTTTTTTTTTTTT MONMO3      TELAPSE     1242.79 TCPU     1167.18
 NUMERICALLY INTEGRATED DENSITY    551.9998797609
 TTTTTTTTTTTTTTTTTTTTTTTTTTTTTT NUMDFT      TELAPSE     1248.46 TCPU     1172.83
 CYC  12 ETOT(AU) -1.108490964806E+04 DETOT -2.64E-06 tst  1.03E-08 PX  2.80E-04
 TTTTTTTTTTTTTTTTTTTTTTTTTTTTTT DIIS        TELAPSE     1248.68 TCPU     1173.05
 DIIS TEST: 0.95431E-05 AT SCF   CYCLE  12 - DIIS ACTIVE - HISTORY:    12 CYCLES
 TTTTTTTTTTTTTTTTTTTTTTTTTTTTTT FDIK        TELAPSE     1264.97 TCPU     1187.21
 INSULATING STATE
 TOP OF VALENCE BANDS -    BAND    276; K    1; EIG -2.3973007E-01 AU
 BOTTOM OF VIRTUAL BANDS - BAND    277; K    6; EIG -1.2778633E-01 AU
 INDIRECT ENERGY BAND GAP:   3.0461 eV
 BOTTOM OF VIRTUAL BANDS - BAND    277; K    1; EIG -1.2517650E-01 AU
 TTTTTTTTTTTTTTTTTTTTTTTTTTTTTT PDIG        TELAPSE     1265.84 TCPU     1188.07
 TOTAL ATOMIC CHARGES:
   1.2532078   1.2532078   1.2532078   1.2532078   6.2036492   6.2036492
   6.2036492   6.2036492   5.8915527   5.8915527   5.8915527   5.8915527
   5.7725805   5.7725805   5.7725805   5.7725805   6.0127449   6.0127449
   6.0127449   6.0127449   5.5379225   5.5379225   5.5379225   5.5379225
   5.5835247   5.5835247   5.5835247   5.5835247   7.2091034   7.2091034
   7.2091034   7.2091034   7.1037716   7.1037716   7.1037716   7.1037716
   7.1931411   7.1931411   7.1931411   7.1931411   7.0603584   7.0603584
   7.0603584   7.0603584   7.0921247   7.0921247   7.0921247   7.0921247
  17.2079900  17.2079900  17.2079900  17.2079900  17.2520843  17.2520843
  17.2520843  17.2520843  17.2249618  17.2249618  17.2249618  17.2249618
  28.7979938  28.8071361
 TTTTTTTTTTTTTTTTTTTTTTTTTTTTTT MOQGAD      TELAPSE     1265.89 TCPU     1188.12
 TTTTTTTTTTTTTTTTTTTTTTTTTTTTTT SHELLXN     TELAPSE     1329.76 TCPU     1249.63
 TTTTTTTTTTTTTTTTTTTTTTTTTTTTTT MONMO3      TELAPSE     1336.33 TCPU     1256.18
 NUMERICALLY INTEGRATED DENSITY    551.9998797440
 TTTTTTTTTTTTTTTTTTTTTTTTTTTTTT NUMDFT      TELAPSE     1342.06 TCPU     1261.89
 CYC  13 ETOT(AU) -1.108490964925E+04 DETOT -1.20E-06 tst  4.96E-09 PX  2.09E-04
[...]
 DIIS TEST: 0.76004E-02 AT CPHF  CYCLE   8 - DIIS ACTIVE - HISTORY:     8 CYCLES
 CYCLE   8   ALPHA 1458.559044  EPSILON    4.261295  DELTA    3.9789E-01
 TTTTTTTTTTTTTTTTTTTTTTTTTTTTTT MOQGAD      TELAPSE   135455.54 TCPU   134455.96
 TTTTTTTTTTTTTTTTTTTTTTTTTTTTTT CP_MONMON   TELAPSE   135483.49 TCPU   134483.83
 DIIS TEST: 0.66941E-03 AT CPHF  CYCLE   9 - DIIS ACTIVE - HISTORY:     9 CYCLES
 CYCLE   9   ALPHA 1458.552859  EPSILON    4.261281  DELTA   -6.1852E-03
 TTTTTTTTTTTTTTTTTTTTTTTTTTTTTT MOQGAD      TELAPSE   136787.64 TCPU   135778.96
 TTTTTTTTTTTTTTTTTTTTTTTTTTTTTT CP_MONMON   TELAPSE   136815.59 TCPU   135806.83
 DIIS TEST: 0.16002E-03 AT CPHF  CYCLE  10 - DIIS ACTIVE - HISTORY:    10 CYCLES
 CYCLE  10   ALPHA 1458.540378  EPSILON    4.261253  DELTA   -1.2480E-02
 TTTTTTTTTTTTTTTTTTTTTTTTTTTTTT MOQGAD      TELAPSE   138111.99 TCPU   137097.66
 TTTTTTTTTTTTTTTTTTTTTTTTTTTTTT CP_MONMON   TELAPSE   138139.90 TCPU   137125.49
 DIIS TEST: 0.24428E-04 AT CPHF  CYCLE  11 - DIIS ACTIVE - HISTORY:    11 CYCLES
 CYCLE  11   ALPHA 1458.511732  EPSILON    4.261189  DELTA   -2.8646E-02
 TTTTTTTTTTTTTTTTTTTTTTTTTTTTTT MOQGAD      TELAPSE   139440.20 TCPU   138420.18
 TTTTTTTTTTTTTTTTTTTTTTTTTTTTTT CP_MONMON   TELAPSE   139468.09 TCPU   138448.00
 DIIS TEST: 0.22652E-05 AT CPHF  CYCLE  12 - DIIS ACTIVE - HISTORY:    12 CYCLES
 CYCLE  12   ALPHA 1458.504925  EPSILON    4.261174  DELTA   -6.8076E-03
 TTTTTTTTTTTTTTTTTTTTTTTTTTTTTT MOQGAD      TELAPSE   140764.10 TCPU   139736.43
 TTTTTTTTTTTTTTTTTTTTTTTTTTTTTT CP_MONMON   TELAPSE   140792.12 TCPU   139764.34
 DIIS TEST: 0.77741E-06 AT CPHF  CYCLE  13 - DIIS ACTIVE - HISTORY:    13 CYCLES
 CYCLE  13   ALPHA 1458.503302  EPSILON    4.261171  DELTA   -1.6227E-03
 TTTTTTTTTTTTTTTTTTTTTTTTTTTTTT MOQGAD      TELAPSE   142090.12 TCPU   141050.34
 TTTTTTTTTTTTTTTTTTTTTTTTTTTTTT CP_MONMON   TELAPSE   142118.04 TCPU   141078.13
 DIIS TEST: 0.54769E-06 AT CPHF  CYCLE  14 - DIIS ACTIVE - HISTORY:    14 CYCLES
 CYCLE  14   ALPHA 1458.502454  EPSILON    4.261169  DELTA   -8.4784E-04
 TTTTTTTTTTTTTTTTTTTTTTTTTTTTTT CP_SC       TELAPSE   142268.91 TCPU   141223.96

 *******************************************************************************

 ELECTRIC FIELD APPLIED ALONG CARTESIAN DIRECTION Z

 *******************************************************************************
 THE NUMBER OF SYMMETRY OPERATORS HAS BEEN REDUCED FROM  4 TO  1

 NEW GRID IN RECIPROCAL SPACE
 *******************************************************************************
 POINTS IN THE IBZ                  14 SHRINKING FACTORS               3  3  3
 *******************************************************************************
 *** K POINTS COORDINATES (OBLIQUE COORDINATES IN UNITS OF SHRINK FAC. )
   1-R(  0  0  0)   2-C(  1  0  0)   3-C(  0  1  2)   4-C(  2  0  1)
   5-C(  0  2  0)   6-C(  1  1  0)   7-C(  1  1  1)   8-C(  1  0  1)
   9-C(  0  1  1)  10-C(  2  1  0)  11-C(  0  0  2)  12-C(  2  1  1)
  13-C(  2  1  2)  14-C(  2  2  1)

 GCALCO - MAX INDICES DIRECT LATTICE VECTOR    14    14    16
 NO.OF VECTORS CREATED 6999 STARS  482 RMAX   211.09218 BOHR
 TTTTTTTTTTTTTTTTTTTTTTTTTTTTTT gordsh1     TELAPSE   142321.48 TCPU   141275.98

 MATRIX SIZE: P(G) 1761528, F(G)  881412, P(G) IRR  883014, F(G) IRR  883014
 MAX G-VECTOR INDEX FOR 1- AND 2-ELECTRON INTEGRALS  63

 TTTTTTTTTTTTTTTTTTTTTTTTTTTTTT INPUT       TELAPSE   142371.13 TCPU   141325.23
 TTTTTTTTTTTTTTTTTTTTTTTTTTTTTT SYMM        TELAPSE   142371.13 TCPU   141325.23

 ***** NEW REFERENCE GEOMETRY *****
 TTTTTTTTTTTTTTTTTTTTTTTTTTTTTT INT_SCREEN  TELAPSE   142371.15 TCPU   141325.25
 INFORMATION **** EXCBUF **** EXCH. BIPO BUFFER: WORDS USED =           0

 DFT PARAMETERS

     ATOM       ELECTRONS   NET CHARGE   R(ANGSTROM)
   1   1  H       1.0000      0.0000     1.11000000
   5   6  C       6.0000      0.0000     0.77000000
  29   7  N       7.0000      0.0000     0.74000000
  49  17  CL     17.0000      0.0000     0.99000000
  61  30  ZN     30.0000      0.0000     1.37000000

 SIZE OF GRID=    1949338
 TTTTTTTTTTTTTTTTTTTTTTTTTTTTTT MAKE_GRID2  TELAPSE   142373.22 TCPU   141327.31
 BECKE WEIGHT FUNCTION
 RADSAFE =     2.00
 TOLERANCES - DENSITY:10**- 6; POTENTIAL:10**- 9; GRID WGT:10**-14

 RADIAL INTEGRATION  - INTERVALS (POINTS,UPPER LIMIT):            1( 75,  4.0*R)

 ANGULAR INTEGRATION - INTERVALS (ACCURACY LEVEL [N. POINTS] UPPER LIMIT):
  1(  4[  86]   0.2)  2(  8[ 194]   0.5)  3( 12[ 350]   0.9)  4( 16[ 974]   3.5)
  5( 12[ 350]9999.0)
 TTTTTTTTTTTTTTTTTTTTTTTTTTTTTT INT_CALC    TELAPSE   142373.32 TCPU   141327.41
 CYCLE   0   ALPHA  909.232026  EPSILON    3.033016  DELTA    9.0923E+02
 TTTTTTTTTTTTTTTTTTTTTTTTTTTTTT MOQGAD      TELAPSE   143619.34 TCPU   142565.94
 TTTTTTTTTTTTTTTTTTTTTTTTTTTTTT CP_MONMON   TELAPSE   143647.49 TCPU   142593.95
 DIIS TEST: 0.16925E+03 AT CPHF  CYCLE   1 - MIX    0 %
 CYCLE   1   ALPHA  305.333153  EPSILON    1.682716  DELTA   -6.0390E+02
 TTTTTTTTTTTTTTTTTTTTTTTTTTTTTT MOQGAD      TELAPSE   144936.59 TCPU   143870.95
 TTTTTTTTTTTTTTTTTTTTTTTTTTTTTT CP_MONMON   TELAPSE   144964.46 TCPU   143898.64
 DIIS TEST: 0.17475E+04 AT CPHF  CYCLE   2 - DIIS ACTIVE - HISTORY:     2 CYCLES
 CYCLE   2   ALPHA  630.367239  EPSILON    2.409483  DELTA    3.2503E+02
 TTTTTTTTTTTTTTTTTTTTTTTTTTTTTT MOQGAD      TELAPSE   146253.45 TCPU   145176.73
 TTTTTTTTTTTTTTTTTTTTTTTTTTTTTT CP_MONMON   TELAPSE   146281.35 TCPU   145204.55
 DIIS TEST: 0.37682E+02 AT CPHF  CYCLE   3 - DIIS ACTIVE - HISTORY:     3 CYCLES
 CYCLE   3   ALPHA  683.981870  EPSILON    2.529363  DELTA    5.3615E+01
 TTTTTTTTTTTTTTTTTTTTTTTTTTTTTT MOQGAD      TELAPSE   147570.59 TCPU   146486.89
 TTTTTTTTTTTTTTTTTTTTTTTTTTTTTT CP_MONMON   TELAPSE   147598.65 TCPU   146514.87
 DIIS TEST: 0.98371E+01 AT CPHF  CYCLE   4 - DIIS ACTIVE - HISTORY:     4 CYCLES
 CYCLE   4   ALPHA  687.713084  EPSILON    2.537706  DELTA    3.7312E+00
 TTTTTTTTTTTTTTTTTTTTTTTTTTTTTT MOQGAD      TELAPSE   148887.10 TCPU   147797.24
 TTTTTTTTTTTTTTTTTTTTTTTTTTTTTT CP_MONMON   TELAPSE   148915.23 TCPU   147825.29
 DIIS TEST: 0.40174E+00 AT CPHF  CYCLE   5 - DIIS ACTIVE - HISTORY:     5 CYCLES
 CYCLE   5   ALPHA  688.636065  EPSILON    2.539770  DELTA    9.2298E-01
 TTTTTTTTTTTTTTTTTTTTTTTTTTTTTT MOQGAD      TELAPSE   150202.51 TCPU   149104.53
 TTTTTTTTTTTTTTTTTTTTTTTTTTTTTT CP_MONMON   TELAPSE   150230.63 TCPU   149132.51
 DIIS TEST: 0.66984E-01 AT CPHF  CYCLE   6 - DIIS ACTIVE - HISTORY:     6 CYCLES
 CYCLE   6   ALPHA  689.248421  EPSILON    2.541139  DELTA    6.1236E-01
 TTTTTTTTTTTTTTTTTTTTTTTTTTTTTT MOQGAD      TELAPSE   151520.20 TCPU   150414.76
 TTTTTTTTTTTTTTTTTTTTTTTTTTTTTT CP_MONMON   TELAPSE   151548.07 TCPU   150442.56
 DIIS TEST: 0.12309E-01 AT CPHF  CYCLE   7 - DIIS ACTIVE - HISTORY:     7 CYCLES
 CYCLE   7   ALPHA  689.458597  EPSILON    2.541609  DELTA    2.1018E-01
 TTTTTTTTTTTTTTTTTTTTTTTTTTTTTT MOQGAD      TELAPSE   152837.97 TCPU   151726.51
 TTTTTTTTTTTTTTTTTTTTTTTTTTTTTT CP_MONMON   TELAPSE   152866.02 TCPU   151754.34
 DIIS TEST: 0.14347E-02 AT CPHF  CYCLE   8 - DIIS ACTIVE - HISTORY:     8 CYCLES
 CYCLE   8   ALPHA  689.455092  EPSILON    2.541601  DELTA   -3.5049E-03
 TTTTTTTTTTTTTTTTTTTTTTTTTTTTTT MOQGAD      TELAPSE   154156.22 TCPU   153037.65
 TTTTTTTTTTTTTTTTTTTTTTTTTTTTTT CP_MONMON   TELAPSE   154184.11 TCPU   153065.25
 DIIS TEST: 0.25569E-03 AT CPHF  CYCLE   9 - DIIS ACTIVE - HISTORY:     9 CYCLES
 CYCLE   9   ALPHA  689.452088  EPSILON    2.541595  DELTA   -3.0045E-03
 TTTTTTTTTTTTTTTTTTTTTTTTTTTTTT MOQGAD      TELAPSE   155474.22 TCPU   154349.07
 TTTTTTTTTTTTTTTTTTTTTTTTTTTTTT CP_MONMON   TELAPSE   155502.30 TCPU   154377.06
 DIIS TEST: 0.25361E-04 AT CPHF  CYCLE  10 - DIIS ACTIVE - HISTORY:    10 CYCLES
 CYCLE  10   ALPHA  689.440555  EPSILON    2.541569  DELTA   -1.1533E-02
 TTTTTTTTTTTTTTTTTTTTTTTTTTTTTT MOQGAD      TELAPSE   156789.83 TCPU   155657.77
 TTTTTTTTTTTTTTTTTTTTTTTTTTTTTT CP_MONMON   TELAPSE   156817.74 TCPU   155685.60
 DIIS TEST: 0.74242E-05 AT CPHF  CYCLE  11 - DIIS ACTIVE - HISTORY:    11 CYCLES
 CYCLE  11   ALPHA  689.439385  EPSILON    2.541566  DELTA   -1.1702E-03
 TTTTTTTTTTTTTTTTTTTTTTTTTTTTTT MOQGAD      TELAPSE   158104.82 TCPU   156966.09
 TTTTTTTTTTTTTTTTTTTTTTTTTTTTTT CP_MONMON   TELAPSE   158133.22 TCPU   156994.12
 DIIS TEST: 0.12021E-05 AT CPHF  CYCLE  12 - DIIS ACTIVE - HISTORY:    12 CYCLES
 CYCLE  12   ALPHA  689.437712  EPSILON    2.541562  DELTA   -1.6730E-03
 TTTTTTTTTTTTTTTTTTTTTTTTTTTTTT MOQGAD      TELAPSE   159422.17 TCPU   158275.78
 TTTTTTTTTTTTTTTTTTTTTTTTTTTTTT CP_MONMON   TELAPSE   159450.34 TCPU   158303.85
 DIIS TEST: 0.44867E-06 AT CPHF  CYCLE  13 - DIIS ACTIVE - HISTORY:    13 CYCLES
 CYCLE  13   ALPHA  689.437331  EPSILON    2.541562  DELTA   -3.8036E-04
 TTTTTTTTTTTTTTTTTTTTTTTTTTTTTT CP_SC       TELAPSE   159591.37 TCPU   158442.19

 *******************************************************************************

 POLARIZABILITY (ALPHA), DIELECTRIC (EPSILON) AND FIRST-ORDER ELECTRIC
 SUSCEPTIBILITY (CHI(1)) TENSORS (INDEPENDENT COMPONENTS)

  FR.(eV) COMP.   ALPHA(Re,Im)           EPSILON(Re,Im)                CHI(1)
  2.331   XX    1458.5030       0.0000       4.2612       0.0000       3.2612
  2.331   XY      -0.0007       0.0000      -0.0000       0.0000      -0.0000
  2.331   XZ       0.0000       0.0000       0.0000       0.0000       0.0000
  2.331   YY    1458.5025       0.0000       4.2612       0.0000       3.2612
  2.331   YZ      -0.0000       0.0000      -0.0000       0.0000      -0.0000
  2.331   ZZ     689.4373       0.0000       2.5416       0.0000       1.5416

 DIELECTRIC TENSOR

 TENSOR IN PRINCIPAL AXES SYSTEM
 AA  4.261171E+00 BB  4.261168E+00 CC  2.541562E+00

 REFRACTIVE INDICES 
 AA  1.594228E+00 BB  2.064260E+00 CC  2.064260E+00

 OPTICALLY ANISOTROPIC - UNIAXIAL CRYSTAL

 BIREFRINGENCE =  0.4700 (NEGATIVE) - OBLATE OPTICAL ELLIPSOID

 EPSILON=N**2=1+CHI(1)=1+ALPHA*4*PI/V,   4*PI/V=   0.00224 BOHR**(-3)
 ALPHA IN BOHR**3; EPSILON AND CHI(1) ARE DIMENSIONLESS.
 *******************************************************************************


  Pockels Effect beta(-omega;omega,0) with omega=   1.1653 eV


 SIZE OF GRID=    1949338
 TTTTTTTTTTTTTTTTTTTTTTTTTTTTTT MAKE_GRID2  TELAPSE   160240.72 TCPU   159087.08
 BECKE WEIGHT FUNCTION
 RADSAFE =     2.00
 TOLERANCES - DENSITY:10**- 6; POTENTIAL:10**- 9; GRID WGT:10**-14

 RADIAL INTEGRATION  - INTERVALS (POINTS,UPPER LIMIT):            1( 75,  4.0*R)

 ANGULAR INTEGRATION - INTERVALS (ACCURACY LEVEL [N. POINTS] UPPER LIMIT):
  1(  4[  86]   0.2)  2(  8[ 194]   0.5)  3( 12[ 350]   0.9)  4( 16[ 974]   3.5)
  5( 12[ 350]9999.0)

 SIZE OF GRID=    1949338
 TTTTTTTTTTTTTTTTTTTTTTTTTTTTTT MAKE_GRID2  TELAPSE   160248.69 TCPU   159092.30
 BECKE WEIGHT FUNCTION
 RADSAFE =     2.00
 TOLERANCES - DENSITY:10**- 6; POTENTIAL:10**- 9; GRID WGT:10**-14

 RADIAL INTEGRATION  - INTERVALS (POINTS,UPPER LIMIT):            1( 75,  4.0*R)

 ANGULAR INTEGRATION - INTERVALS (ACCURACY LEVEL [N. POINTS] UPPER LIMIT):
  1(  4[  86]   0.2)  2(  8[ 194]   0.5)  3( 12[ 350]   0.9)  4( 16[ 974]   3.5)
  5( 12[ 350]9999.0)
 *******************************************************************************

 DC-POCKELS AND SECOND ELECTRIC SUSCEPTIBILITY (CHI(2))
 TENSORS (INDEPENDENT COMPONENTS)

BETA                                         CHI(2)       d(MKS)       d(cgs)
 *******************************************************************************

     XXX          0.3763E-03   0.4207E-06   0.4091E-06   0.9760E-08
     XXY         -0.2701E-03  -0.3019E-06  -0.2936E-06  -0.7004E-08
     XXZ          0.2898E+03   0.3240E+00   0.3150E+00   0.7515E-02
     XYX         -0.2048E-03  -0.2289E-06  -0.2226E-06  -0.5311E-08
     XYY         -0.7166E-03  -0.8012E-06  -0.7790E-06  -0.1859E-07
     XYZ         -0.3669E+03  -0.4102E+00  -0.3989E+00  -0.9515E-02
     XZX          0.2900E+03   0.3242E+00   0.3153E+00   0.7521E-02
     XZY         -0.3103E+03  -0.3469E+00  -0.3373E+00  -0.8048E-02
     XZZ         -0.4833E-03  -0.5404E-06  -0.5254E-06  -0.1253E-07
     YXX         -0.1388E-03  -0.1552E-06  -0.1509E-06  -0.3601E-08
     YXY         -0.5531E-03  -0.6184E-06  -0.6013E-06  -0.1434E-07
     YXZ         -0.3669E+03  -0.4102E+00  -0.3989E+00  -0.9515E-02
     YYX         -0.4337E-03  -0.4849E-06  -0.4714E-06  -0.1125E-07
     YYY          0.1573E-03   0.1758E-06   0.1710E-06   0.4078E-08
     YYZ         -0.2897E+03  -0.3239E+00  -0.3150E+00  -0.7514E-02
     YZX         -0.3103E+03  -0.3469E+00  -0.3373E+00  -0.8048E-02
     YZY         -0.2900E+03  -0.3242E+00  -0.3152E+00  -0.7520E-02
     YZZ          0.7431E-04   0.8307E-07   0.8078E-07   0.1927E-08
     ZXX          0.2900E+03   0.3242E+00   0.3152E+00   0.7520E-02
     ZXY         -0.3103E+03  -0.3469E+00  -0.3373E+00  -0.8047E-02
     ZXZ         -0.4517E-03  -0.5050E-06  -0.4910E-06  -0.1171E-07
     ZYX         -0.3103E+03  -0.3469E+00  -0.3373E+00  -0.8047E-02
     ZYY         -0.2899E+03  -0.3241E+00  -0.3152E+00  -0.7519E-02
     ZYZ          0.6797E-04   0.7599E-07   0.7389E-07   0.1763E-08
     ZZX         -0.2482E-03  -0.2775E-06  -0.2698E-06  -0.6437E-08
     ZZY         -0.5281E-05  -0.5905E-08  -0.5741E-08  -0.1370E-09
     ZZZ          0.4882E-03   0.5458E-06   0.5307E-06   0.1266E-07
 *******************************************************************************
 CHI(2) = BETA*2PI/V

 BETA AND CHI(2) IN A.U.:    [BETA] = M**(-1/2) L**(7/2) T
                             [CHI(2)] = 1/F
                             (L=LENGTH, M=MASS, T=TIME, F=FIELD INTENSITY)

 ELECTRIC SUSCEPTIBILITY IN THE SECOND HARMONIC GENERATION (SHG) CONVENTION IS:
                   d(A.U.)= 1/2 CHI(2)
                   d(MKS) = d(A.U.)/0.514220632 pm/V
                   d(CGS) = d(A.U.)/(4PI*1.7152535)  10**(-7) esu

 FIELD INTENSITY: 1 A.U. = 0.514220632*10**(11) V/m = 1.7152535*10**7 esu
 BEWARE:                CHI(2)=P/(E0*F**2)   (MKS)
                        CHI(2)=P/F**2        (CGS)
 WHERE P IS THE POLARIZATION VECTOR AND F IS THE APPLIED ELECTRIC FIELD.
 CONSISTENCY IS  PRESERVED BY MULTIPLYING THE CGS VALUE TIMES THE PERMITTIVITY
 OF THE VACUUM, E0 (CONVERSION FACTORS FROM www.physics.nist.gov/constants).
 IN PARENTHESIS: BETA BEFORE SYMMETRIZATION.

  SHG Effect beta(-2omega;omega,omega) with omega=   1.1653 eV


 SIZE OF GRID=    1949338
 TTTTTTTTTTTTTTTTTTTTTTTTTTTTTT MAKE_GRID2  TELAPSE   160795.25 TCPU   159635.85
 BECKE WEIGHT FUNCTION
 RADSAFE =     2.00
 TOLERANCES - DENSITY:10**- 6; POTENTIAL:10**- 9; GRID WGT:10**-14

 RADIAL INTEGRATION  - INTERVALS (POINTS,UPPER LIMIT):            1( 75,  4.0*R)

 ANGULAR INTEGRATION - INTERVALS (ACCURACY LEVEL [N. POINTS] UPPER LIMIT):
  1(  4[  86]   0.2)  2(  8[ 194]   0.5)  3( 12[ 350]   0.9)  4( 16[ 974]   3.5)
  5( 12[ 350]9999.0)

 SIZE OF GRID=    1949338
 TTTTTTTTTTTTTTTTTTTTTTTTTTTTTT MAKE_GRID2  TELAPSE   160797.75 TCPU   159638.34
 BECKE WEIGHT FUNCTION
 RADSAFE =     2.00
 TOLERANCES - DENSITY:10**- 6; POTENTIAL:10**- 9; GRID WGT:10**-14

 RADIAL INTEGRATION  - INTERVALS (POINTS,UPPER LIMIT):            1( 75,  4.0*R)

 ANGULAR INTEGRATION - INTERVALS (ACCURACY LEVEL [N. POINTS] UPPER LIMIT):
  1(  4[  86]   0.2)  2(  8[ 194]   0.5)  3( 12[ 350]   0.9)  4( 16[ 974]   3.5)
  5( 12[ 350]9999.0)
 *******************************************************************************

 SECOND HARMONIC GENERATION (SHG)  AND SECOND ELECTRIC SUSCEPTIBILITY (CHI(2))
 TENSORS (INDEPENDENT COMPONENTS)

BETA                                         CHI(2)       d(MKS)       d(cgs)
 *******************************************************************************

     XXX          0.4690E-03   0.5243E-06   0.5098E-06   0.1216E-07
     XXY         -0.4387E-03  -0.4905E-06  -0.4769E-06  -0.1138E-07
     XXZ          0.5311E+03   0.5937E+00   0.5773E+00   0.1377E-01
     XYX         -0.4387E-03  -0.4905E-06  -0.4769E-06  -0.1138E-07
     XYY         -0.1136E-02  -0.1270E-05  -0.1235E-05  -0.2946E-07
     XYZ         -0.4153E+03  -0.4643E+00  -0.4515E+00  -0.1077E-01
     XZX          0.5311E+03   0.5937E+00   0.5773E+00   0.1377E-01
     XZY         -0.4153E+03  -0.4643E+00  -0.4515E+00  -0.1077E-01
     XZZ         -0.6419E-03  -0.7176E-06  -0.6977E-06  -0.1665E-07
     YXX         -0.1147E-03  -0.1282E-06  -0.1247E-06  -0.2974E-08
     YXY         -0.7450E-03  -0.8329E-06  -0.8099E-06  -0.1932E-07
     YXZ         -0.4153E+03  -0.4643E+00  -0.4515E+00  -0.1077E-01
     YYX         -0.7450E-03  -0.8329E-06  -0.8099E-06  -0.1932E-07
     YYY          0.5237E-03   0.5855E-06   0.5693E-06   0.1358E-07
     YYZ         -0.5310E+03  -0.5937E+00  -0.5772E+00  -0.1377E-01
     YZX         -0.4153E+03  -0.4643E+00  -0.4515E+00  -0.1077E-01
     YZY         -0.5310E+03  -0.5937E+00  -0.5772E+00  -0.1377E-01
     YZZ          0.2772E-03   0.3099E-06   0.3014E-06   0.7190E-08
     ZXX          0.6233E+03   0.6968E+00   0.6776E+00   0.1616E-01
     ZXY         -0.1137E+03  -0.1271E+00  -0.1236E+00  -0.2948E-02
     ZXZ         -0.4866E-03  -0.5440E-06  -0.5289E-06  -0.1262E-07
     ZYX         -0.1137E+03  -0.1271E+00  -0.1236E+00  -0.2948E-02
     ZYY         -0.6232E+03  -0.6967E+00  -0.6775E+00  -0.1616E-01
     ZYZ          0.7692E-04   0.8599E-07   0.8362E-07   0.1995E-08
     ZZX         -0.4866E-03  -0.5440E-06  -0.5289E-06  -0.1262E-07
     ZZY          0.7692E-04   0.8599E-07   0.8362E-07   0.1995E-08
     ZZZ          0.9813E-05   0.1097E-07   0.1067E-07   0.2545E-09
 *******************************************************************************
 CHI(2) = BETA*2PI/V

 BETA AND CHI(2) IN A.U.:    [BETA] = M**(-1/2) L**(7/2) T
                             [CHI(2)] = 1/F
                             (L=LENGTH, M=MASS, T=TIME, F=FIELD INTENSITY)

 ELECTRIC SUSCEPTIBILITY IN THE SECOND HARMONIC GENERATION (SHG) CONVENTION IS:
                   d(A.U.)= 1/2 CHI(2)
                   d(MKS) = d(A.U.)/0.514220632 pm/V
                   d(CGS) = d(A.U.)/(4PI*1.7152535)  10**(-7) esu

 FIELD INTENSITY: 1 A.U. = 0.514220632*10**(11) V/m = 1.7152535*10**7 esu
 BEWARE:                CHI(2)=P/(E0*F**2)   (MKS)
                        CHI(2)=P/F**2        (CGS)
 WHERE P IS THE POLARIZATION VECTOR AND F IS THE APPLIED ELECTRIC FIELD.
 CONSISTENCY IS  PRESERVED BY MULTIPLYING THE CGS VALUE TIMES THE PERMITTIVITY
 OF THE VACUUM, E0 (CONVERSION FACTORS FROM www.physics.nist.gov/constants).
 IN PARENTHESIS: BETA BEFORE SYMMETRIZATION.

 *******************************************************************************


 GCALCO - MAX INDICES DIRECT LATTICE VECTOR    14    14    16
 NO.OF VECTORS CREATED 6999 STARS  482 RMAX   211.09218 BOHR

 CAPPA:IS1  3;IS2  3;IS3  3; K PTS MONK NET   6; SYMMOPS:K SPACE   8;G SPACE   4

 TTTTTTTTTTTTTTTTTTTTTTTTTTTTTT END         TELAPSE   160798.14 TCPU   159638.72
 EEEEEEEEEE TERMINATION  DATE 13 12 2023 TIME 09:09:08.3
NODE    0 CPU TIME =    159638.722
NODE    1 CPU TIME =    159880.987
NODE    2 CPU TIME =    160100.983
NODE    3 CPU TIME =    160027.618
NODE    4 CPU TIME =    159790.520
NODE    5 CPU TIME =    159868.686
NODE    6 CPU TIME =    160068.554
NODE    7 CPU TIME =    160024.792
NODE    8 CPU TIME =    159744.352
NODE    9 CPU TIME =    159864.771
NODE   10 CPU TIME =    159944.257
NODE   11 CPU TIME =    159871.265
NODE   12 CPU TIME =    159631.067
NODE   13 CPU TIME =    159770.176
NODE   14 CPU TIME =    159883.851
NODE   15 CPU TIME =    159886.234
NODE   16 CPU TIME =    159637.349
NODE   17 CPU TIME =    159787.236
NODE   18 CPU TIME =    159879.020
NODE   19 CPU TIME =    159858.781
NODE   20 CPU TIME =    159621.767
NODE   21 CPU TIME =    159787.711
NODE   22 CPU TIME =    159867.704
NODE   23 CPU TIME =    159880.483
    TOTAL CPU TIME =   3836316.887
trying normal rsh (/usr/bin/rsh)
exec: No such file or directory
trying normal rsh (/usr/bin/rsh)
exec: No such file or directory
trying normal rsh (/usr/bin/rsh)
exec: No such file or directory
trying normal rsh (/usr/bin/rsh)
exec: No such file or directory
