Loading crystal17/1.0.2/intel/19.0
  Loading requirement: intel/19.0 ompi/4.0.1/intel/19.0
 PROCESS            7  OF           24  WORKING
 PROCESS           15  OF           24  WORKING
 PROCESS           20  OF           24  WORKING
 PROCESS            3  OF           24  WORKING
 PROCESS           23  OF           24  WORKING
 PROCESS           19  OF           24  WORKING
 PROCESS            1  OF           24  WORKING
 PROCESS            4  OF           24  WORKING
 PROCESS            5  OF           24  WORKING
 PROCESS            6  OF           24  WORKING
 PROCESS            8  OF           24  WORKING
 PROCESS           10  OF           24  WORKING
 PROCESS           11  OF           24  WORKING
 PROCESS           12  OF           24  WORKING
 PROCESS           13  OF           24  WORKING
 PROCESS           14  OF           24  WORKING
 PROCESS           16  OF           24  WORKING
 PROCESS           18  OF           24  WORKING
 PROCESS           21  OF           24  WORKING
 PROCESS           22  OF           24  WORKING
 PROCESS            2  OF           24  WORKING
 PROCESS            9  OF           24  WORKING
 PROCESS           17  OF           24  WORKING
 PROCESS            0  OF           24  WORKING

         
 *******************************************************************************
 *                                                                             *
 *                               CRYSTAL17                                     *
 *                      public : 1.0.2 - March 1st, 2018                       *
 *                       HTTP://WWW.CRYSTAL.UNITO.IT                           *
 *                                                                             *
 *                              MAIN AUTHORS                                   *
 *                                                                             *
 *  R. DOVESI(1,11), V.R. SAUNDERS(2), C. ROETTI(1,11), R. ORLANDO(1,11),      *
 *  C.M. ZICOVICH-WILSON(1,3), F. PASCALE(4), B. CIVALLERI(1,11),              *
 *  K. DOLL(5), N.M. HARRISON(2,6), I.J. BUSH(7), Ph. D'ARCO(8),               *
 *  M. LLUNELL(9), M. CAUSA'(10), Y. NOEL(8), L. MASCHIO(1,11), A. ERBA(1,11)  *
 *  M. RE'RAT(14), S. CASASSA(1,11)                                            *
 *                                                                             *
 *        CONTRIBUTIONS TO THE CODE HAVE ALSO BEEN GIVEN BY                    *
 *                                                                             *
 *  M. FERRABONE(1,11), M. DE LA PIERRE(1,11), M. FERRERO(1,11),               *
 *  J. BAIMA(1,11), E. ALBANESE(1,11), M.F. PEINTINGER(12), R. BAST(13),       *
 *  B. KIRTMAN(15), V. LACIVITA(1,11), R. DEMICHELIS(1,16)                     *
 *  G. BRANDEBURG(17), S. SALUSTRO(1,11), G. SANSONE(1,11)                     *
 *  M.T. RUGGIERO(18)                                                          *
 *                                                                             *
 * (1) THEORETICAL CHEMISTRY GROUP - UNIVERSITA' DI TORINO - TORINO (ITALY)    *
 * (2) COMPUTATIONAL SCIENCE & ENGINEERING DEPARTMENT - STFC DARESBURY (UK)    *
 * (3) UNIVERSIDAD AUTONOMA DEL ESTADO DE MORELOS - CUERNAVACA (MEXICO)        *
 * (4) UNIVERSITE' DE LORRAINE - NANCY (FRANCE)                                *
 * (5) UNIVERSITAET STUTTGART- STUTTGART (GERMANY)                             *
 * (6) IMPERIAL COLLEGE - LONDON (UK)                                          *
 * (7) OXFORD E-RESEARCH CENTRE - OXFORD (UK)                                  *
 * (8) UPMC - SORBONNE UNIVERSITES - PARIS (FRANCE)                            *
 * (9) UNIVERSIDAD DE BARCELONA - BARCELONA (SPAIN)                            *
 *(10) UNIVERSITA' DI NAPOLI "FEDERICO II" - NAPOLI (ITALY)                    *
 *(11) NIS - NANOSTRUCTURED INTERFACES AND SURFACES - TORINO (ITALY)           *
 *(12) MPI FUER CHEMISCHE ENERGIEKONVERSION - MUELHEIM AN DER RUHR (GERMANY)   *
 *(13) UNIVERSITY OF TROMSO - TROMSO (NORWAY)                                  *
 *(14) UNIVERSITE' DE PAU ET DES PAYS DE L'ADOUR - PAU (FRANCE)                *
 *(15) UNIVERSITY OF CALIFORNIA SANTA BARBARA - SANTA BARBARA (USA)            *
 *(16) CURTIN UNIVERSITY - PERTH (AUSTRALIA)                                   *
 *(17) UNIVERSITY COLLEGE LONDON - LONDON (UK)                                 *
 *(18) CAMBRIDGE UNIVERSITY - CAMBRIDGE (UK)                                   *
 *                                                                             *
 *******************************************************************************
 EEEEEEEEEE STARTING  DATE 11 12 2023 TIME 17:22:42.7
 Z:\home\sanoj\Downloads\tmp_p\newconn.mol                                       

 CRYSTAL CALCULATION
 (INPUT ACCORDING TO THE INTERNATIONAL TABLES FOR X-RAY CRYSTALLOGRAPHY)
 CRYSTAL FAMILY                       :  TETRAGONAL  
 CRYSTAL CLASS  (GROTH - 1921)        :  TETRAGONAL DISPHENOIDAL              

 SPACE GROUP (NONCENTROSYMMETRIC)     :  I -4            

 LATTICE PARAMETERS  (ANGSTROMS AND DEGREES) - CONVENTIONAL CELL
        A           B           C        ALPHA        BETA       GAMMA
    11.04604    11.04604    13.37400    90.00000    90.00000    90.00000


 NUMBER OF IRREDUCIBLE ATOMS IN THE CONVENTIONAL CELL:   17

 INPUT COORDINATES

 ATOM AT. N.              COORDINATES
   1   1     1.039300000000E-01  5.203900000000E-01  3.516700000000E-01
   2   6     2.543000000000E-01  7.913400000000E-01  3.782200000000E-01
   3   6     2.432400000000E-01 -7.684000000000E-02  3.705200000000E-01
   4   6     1.577500000000E-01  7.081200000000E-01  3.677200000000E-01
   5   6     2.974200000000E-01  5.437200000000E-01  3.683000000000E-01
   6   6     3.678400000000E-01  7.353600000000E-01  3.922200000000E-01
   7   6     8.217600000000E-01  4.157400000000E-01  3.597800000000E-01
   8   7     3.250000000000E-01 -5.150000000000E-03  3.210700000000E-01
   9   7     2.839800000000E-01  1.112700000000E-01  3.299800000000E-01
  10   7     1.542800000000E-01 -5.040000000000E-03  4.090800000000E-01
  11   7     1.842100000000E-01  1.116700000000E-01  3.834000000000E-01
  12   7     3.896600000000E-01  6.176300000000E-01  3.870100000000E-01
  13  17     9.420000000000E-03  7.563000000000E-01  3.684000000000E-01
  14  17     4.914200000000E-01  8.263300000000E-01  4.238100000000E-01
  15  17     3.232400000000E-01  3.892100000000E-01  3.601600000000E-01
  16  30     0.000000000000E+00  5.000000000000E-01  7.500000000000E-01
  17  30     0.000000000000E+00  0.000000000000E+00  5.000000000000E-01

 *******************************************************************************

 << INFORMATION >>: FROM NOW ON, ALL COORDINATES REFER TO THE PRIMITIVE CELL

 *******************************************************************************

 LATTICE PARAMETERS  (ANGSTROMS AND DEGREES) - PRIMITIVE CELL
       A          B          C        ALPHA      BETA     GAMMA        VOLUME
   10.28219   10.28219   10.28219   115.02112 115.02112  98.86434    815.914763

 COORDINATES OF THE EQUIVALENT ATOMS (FRACTIONAL UNITS)

 N. ATOM EQUIV AT. N.          X                  Y                  Z

   1   1   1    1 H    -1.27940000000E-01  4.55600000000E-01 -3.75680000000E-01
   2   1   2    1 H    -1.68720000000E-01  2.47740000000E-01  3.75680000000E-01
   3   1   3    1 H    -4.55600000000E-01  1.68720000000E-01  4.16460000000E-01
   4   1   4    1 H    -2.47740000000E-01  1.27940000000E-01 -4.16460000000E-01

   5   2   1    6 C     1.69560000000E-01 -3.67480000000E-01  4.56400000000E-02
   6   2   2    6 C    -4.13120000000E-01  1.23920000000E-01 -4.56400000000E-02
   7   2   3    6 C     3.67480000000E-01  4.13120000000E-01 -4.62960000000E-01
   8   2   4    6 C    -1.23920000000E-01 -1.69560000000E-01  4.62960000000E-01

   9   3   1    6 C     2.93680000000E-01 -3.86240000000E-01  1.66400000000E-01
  10   3   2    6 C     4.47360000000E-01  1.27280000000E-01 -1.66400000000E-01
  11   3   3    6 C     3.86240000000E-01 -4.47360000000E-01 -3.20080000000E-01
  12   3   4    6 C    -1.27280000000E-01 -2.93680000000E-01  3.20080000000E-01

  13   4   1    6 C     7.58400000000E-02 -4.74530000000E-01 -1.34130000000E-01
  14   4   2    6 C    -3.40400000000E-01  2.09970000000E-01  1.34130000000E-01
  15   4   3    6 C     4.74530000000E-01  3.40400000000E-01 -4.49630000000E-01
  16   4   4    6 C    -2.09970000000E-01 -7.58400000000E-02  4.49630000000E-01

  17   5   1    6 C    -8.79800000000E-02 -3.34280000000E-01 -1.58860000000E-01
  18   5   2    6 C    -1.75420000000E-01  7.08800000000E-02  1.58860000000E-01
  19   5   3    6 C     3.34280000000E-01  1.75420000000E-01  2.46300000000E-01
  20   5   4    6 C    -7.08800000000E-02  8.79800000000E-02 -2.46300000000E-01

  21   6   1    6 C     1.27580000000E-01 -2.39940000000E-01  1.03200000000E-01
  22   6   2    6 C    -3.43140000000E-01  2.43800000000E-02 -1.03200000000E-01
  23   6   3    6 C     2.39940000000E-01  3.43140000000E-01  3.67520000000E-01
  24   6   4    6 C    -2.43800000000E-02 -1.27580000000E-01 -3.67520000000E-01

  25   7   1    6 C    -2.24480000000E-01  1.81540000000E-01  2.37500000000E-01
  26   7   2    6 C    -5.59600000000E-02 -4.61980000000E-01 -2.37500000000E-01
  27   7   3    6 C    -1.81540000000E-01  5.59600000000E-02 -4.06020000000E-01
  28   7   4    6 C     4.61980000000E-01  2.24480000000E-01  4.06020000000E-01

  29   8   1    7 N     3.15920000000E-01 -3.53930000000E-01  3.19850000000E-01
  30   8   2    7 N     3.26220000000E-01 -3.93000000000E-03 -3.19850000000E-01
  31   8   3    7 N     3.53930000000E-01 -3.26220000000E-01 -3.30150000000E-01
  32   8   4    7 N     3.93000000000E-03 -3.15920000000E-01  3.30150000000E-01

  33   9   1    7 N     4.41250000000E-01 -3.86040000000E-01  3.95250000000E-01
  34   9   2    7 N     2.18710000000E-01  4.60000000000E-02 -3.95250000000E-01
  35   9   3    7 N     3.86040000000E-01 -2.18710000000E-01 -1.72710000000E-01
  36   9   4    7 N    -4.60000000000E-02 -4.41250000000E-01  1.72710000000E-01

  37  10   1    7 N     4.04040000000E-01 -4.36640000000E-01  1.49240000000E-01
  38  10   2    7 N     4.14120000000E-01  2.54800000000E-01 -1.49240000000E-01
  39  10   3    7 N     4.36640000000E-01 -4.14120000000E-01 -1.59320000000E-01
  40  10   4    7 N    -2.54800000000E-01 -4.04040000000E-01  1.59320000000E-01

  41  11   1    7 N     4.95070000000E-01 -4.32390000000E-01  2.95880000000E-01
  42  11   2    7 N     2.71730000000E-01  1.99190000000E-01 -2.95880000000E-01
  43  11   3    7 N     4.32390000000E-01 -2.71730000000E-01 -7.25400000000E-02
  44  11   4    7 N    -1.99190000000E-01 -4.95070000000E-01  7.25400000000E-02

  45  12   1    7 N     4.64000000000E-03 -2.23330000000E-01  7.29000000000E-03
  46  12   2    7 N    -2.30620000000E-01 -2.65000000000E-03 -7.29000000000E-03
  47  12   3    7 N     2.23330000000E-01  2.30620000000E-01  2.27970000000E-01
  48  12   4    7 N     2.65000000000E-03 -4.64000000000E-03 -2.27970000000E-01

  49  13   1   17 CL    1.24700000000E-01  3.77820000000E-01 -2.34280000000E-01
  50  13   2   17 CL   -3.87900000000E-01  3.58980000000E-01  2.34280000000E-01
  51  13   3   17 CL   -3.77820000000E-01  3.87900000000E-01 -2.53120000000E-01
  52  13   4   17 CL   -3.58980000000E-01 -1.24700000000E-01  2.53120000000E-01

  53  14   1   17 CL    2.50140000000E-01 -8.47700000000E-02  3.17750000000E-01
  54  14   2   17 CL   -4.02520000000E-01 -6.76100000000E-02 -3.17750000000E-01
  55  14   3   17 CL    8.47700000000E-02  4.02520000000E-01  3.34910000000E-01
  56  14   4   17 CL    6.76100000000E-02 -2.50140000000E-01 -3.34910000000E-01

  57  15   1   17 CL   -2.50630000000E-01 -3.16600000000E-01 -2.87550000000E-01
  58  15   2   17 CL   -2.90500000000E-02  3.69200000000E-02  2.87550000000E-01
  59  15   3   17 CL    3.16600000000E-01  2.90500000000E-02  6.59700000000E-02
  60  15   4   17 CL   -3.69200000000E-02  2.50630000000E-01 -6.59700000000E-02

  61  16   1   30 ZN    2.50000000000E-01 -2.50000000000E-01 -5.00000000000E-01

  62  17   1   30 ZN   -5.00000000000E-01 -5.00000000000E-01  0.00000000000E+00

 NUMBER OF SYMMETRY OPERATORS         :    4
 *******************************************************************************
 * GEOMETRY EDITING - INPUT COORDINATES ARE GIVEN IN ANGSTROM         
 *******************************************************************************

 GEOMETRY NOW FULLY CONSISTENT WITH THE GROUP

 GCALCO - MAX INDICES DIRECT LATTICE VECTOR    14    14    16
 NO.OF VECTORS CREATED 6999 STARS  484 RMAX   210.45286 BOHR

 GEOMETRY FOR WAVE FUNCTION - DIMENSIONALITY OF THE SYSTEM    3
 (NON PERIODIC DIRECTION: LATTICE PARAMETER FORMALLY SET TO 500)
 *******************************************************************************
 LATTICE PARAMETERS (ANGSTROMS AND DEGREES) - BOHR = 0.5291772083 ANGSTROM
 PRIMITIVE CELL - CENTRING CODE 6/0 VOLUME=   815.914763 - DENSITY  2.279 g/cm^3
         A              B              C           ALPHA      BETA       GAMMA 
    10.28219391    10.28219391    10.28219391   115.021115 115.021115  98.864344
 *******************************************************************************
 ATOMS IN THE ASYMMETRIC UNIT   17 - ATOMS IN THE UNIT CELL:   62
     ATOM                 X/A                 Y/B                 Z/C    
 *******************************************************************************
      1 T   1 H    -1.279400000000E-01  4.556000000000E-01 -3.756800000000E-01
      2 F   1 H    -1.687200000000E-01  2.477400000000E-01  3.756800000000E-01
      3 F   1 H    -4.556000000000E-01  1.687200000000E-01  4.164600000000E-01
      4 F   1 H    -2.477400000000E-01  1.279400000000E-01 -4.164600000000E-01
      5 T   6 C     1.695600000000E-01 -3.674800000000E-01  4.564000000000E-02
      6 F   6 C    -4.131200000000E-01  1.239200000000E-01 -4.564000000000E-02
      7 F   6 C     3.674800000000E-01  4.131200000000E-01 -4.629600000000E-01
      8 F   6 C    -1.239200000000E-01 -1.695600000000E-01  4.629600000000E-01
      9 T   6 C     2.936800000000E-01 -3.862400000000E-01  1.664000000000E-01
     10 F   6 C     4.473600000000E-01  1.272800000000E-01 -1.664000000000E-01
     11 F   6 C     3.862400000000E-01 -4.473600000000E-01 -3.200800000000E-01
     12 F   6 C    -1.272800000000E-01 -2.936800000000E-01  3.200800000000E-01
     13 T   6 C     7.584000000000E-02 -4.745300000000E-01 -1.341300000000E-01
     14 F   6 C    -3.404000000000E-01  2.099700000000E-01  1.341300000000E-01
     15 F   6 C     4.745300000000E-01  3.404000000000E-01 -4.496300000000E-01
     16 F   6 C    -2.099700000000E-01 -7.584000000000E-02  4.496300000000E-01
     17 T   6 C    -8.798000000000E-02 -3.342800000000E-01 -1.588600000000E-01
     18 F   6 C    -1.754200000000E-01  7.088000000000E-02  1.588600000000E-01
     19 F   6 C     3.342800000000E-01  1.754200000000E-01  2.463000000000E-01
     20 F   6 C    -7.088000000000E-02  8.798000000000E-02 -2.463000000000E-01
     21 T   6 C     1.275800000000E-01 -2.399400000000E-01  1.032000000000E-01
     22 F   6 C    -3.431400000000E-01  2.438000000000E-02 -1.032000000000E-01
     23 F   6 C     2.399400000000E-01  3.431400000000E-01  3.675200000000E-01
     24 F   6 C    -2.438000000000E-02 -1.275800000000E-01 -3.675200000000E-01
     25 T   6 C    -2.244800000000E-01  1.815400000000E-01  2.375000000000E-01
     26 F   6 C    -5.596000000000E-02 -4.619800000000E-01 -2.375000000000E-01
     27 F   6 C    -1.815400000000E-01  5.596000000000E-02 -4.060200000000E-01
     28 F   6 C     4.619800000000E-01  2.244800000000E-01  4.060200000000E-01
     29 T   7 N     3.159200000000E-01 -3.539300000000E-01  3.198500000000E-01
     30 F   7 N     3.262200000000E-01 -3.930000000000E-03 -3.198500000000E-01
     31 F   7 N     3.539300000000E-01 -3.262200000000E-01 -3.301500000000E-01
     32 F   7 N     3.930000000000E-03 -3.159200000000E-01  3.301500000000E-01
     33 T   7 N     4.412500000000E-01 -3.860400000000E-01  3.952500000000E-01
     34 F   7 N     2.187100000000E-01  4.600000000000E-02 -3.952500000000E-01
     35 F   7 N     3.860400000000E-01 -2.187100000000E-01 -1.727100000000E-01
     36 F   7 N    -4.600000000000E-02 -4.412500000000E-01  1.727100000000E-01
     37 T   7 N     4.040400000000E-01 -4.366400000000E-01  1.492400000000E-01
     38 F   7 N     4.141200000000E-01  2.548000000000E-01 -1.492400000000E-01
     39 F   7 N     4.366400000000E-01 -4.141200000000E-01 -1.593200000000E-01
     40 F   7 N    -2.548000000000E-01 -4.040400000000E-01  1.593200000000E-01
     41 T   7 N     4.950700000000E-01 -4.323900000000E-01  2.958800000000E-01
     42 F   7 N     2.717300000000E-01  1.991900000000E-01 -2.958800000000E-01
     43 F   7 N     4.323900000000E-01 -2.717300000000E-01 -7.254000000000E-02
     44 F   7 N    -1.991900000000E-01 -4.950700000000E-01  7.254000000000E-02
     45 T   7 N     4.640000000000E-03 -2.233300000000E-01  7.290000000000E-03
     46 F   7 N    -2.306200000000E-01 -2.650000000000E-03 -7.290000000000E-03
     47 F   7 N     2.233300000000E-01  2.306200000000E-01  2.279700000000E-01
     48 F   7 N     2.650000000000E-03 -4.640000000000E-03 -2.279700000000E-01
     49 T  17 CL    1.247000000000E-01  3.778200000000E-01 -2.342800000000E-01
     50 F  17 CL   -3.879000000000E-01  3.589800000000E-01  2.342800000000E-01
     51 F  17 CL   -3.778200000000E-01  3.879000000000E-01 -2.531200000000E-01
     52 F  17 CL   -3.589800000000E-01 -1.247000000000E-01  2.531200000000E-01
     53 T  17 CL    2.501400000000E-01 -8.477000000000E-02  3.177500000000E-01
     54 F  17 CL   -4.025200000000E-01 -6.761000000000E-02 -3.177500000000E-01
     55 F  17 CL    8.477000000000E-02  4.025200000000E-01  3.349100000000E-01
     56 F  17 CL    6.761000000000E-02 -2.501400000000E-01 -3.349100000000E-01
     57 T  17 CL   -2.506300000000E-01 -3.166000000000E-01 -2.875500000000E-01
     58 F  17 CL   -2.905000000000E-02  3.692000000000E-02  2.875500000000E-01
     59 F  17 CL    3.166000000000E-01  2.905000000000E-02  6.597000000000E-02
     60 F  17 CL   -3.692000000000E-02  2.506300000000E-01 -6.597000000000E-02
     61 T  30 ZN    2.500000000000E-01 -2.500000000000E-01 -5.000000000000E-01
     62 T  30 ZN   -5.000000000000E-01 -5.000000000000E-01  0.000000000000E+00

 TRANSFORMATION MATRIX PRIMITIVE-CRYSTALLOGRAPHIC CELL
  0.0000  1.0000  1.0000  1.0000  0.0000  1.0000  1.0000  1.0000  0.0000

 *******************************************************************************
 CRYSTALLOGRAPHIC CELL (VOLUME=       1631.82952547)
         A              B              C           ALPHA      BETA       GAMMA 
    11.04604150    11.04604150    13.37400392    90.000000  90.000000  90.000000

 COORDINATES IN THE CRYSTALLOGRAPHIC CELL
     ATOM                 X/A                 Y/B                 Z/C    
 *******************************************************************************
      1 T   1 H    -3.960700000000E-01  2.039000000000E-02 -1.483300000000E-01
      2 F   1 H     3.960700000000E-01 -2.039000000000E-02 -1.483300000000E-01
      3 F   1 H     2.039000000000E-02  3.960700000000E-01  1.483300000000E-01
      4 F   1 H    -2.039000000000E-02 -3.960700000000E-01  1.483300000000E-01
      5 T   6 C    -2.457000000000E-01  2.913400000000E-01 -1.217800000000E-01
      6 F   6 C     2.457000000000E-01 -2.913400000000E-01 -1.217800000000E-01
      7 F   6 C     2.913400000000E-01  2.457000000000E-01  1.217800000000E-01
      8 F   6 C    -2.913400000000E-01 -2.457000000000E-01  1.217800000000E-01
      9 T   6 C     2.432400000000E-01 -7.684000000000E-02  3.705200000000E-01
     10 F   6 C    -2.432400000000E-01  7.684000000000E-02  3.705200000000E-01
     11 F   6 C    -7.684000000000E-02 -2.432400000000E-01 -3.705200000000E-01
     12 F   6 C     7.684000000000E-02  2.432400000000E-01 -3.705200000000E-01
     13 T   6 C    -3.422500000000E-01  2.081200000000E-01 -1.322800000000E-01
     14 F   6 C     3.422500000000E-01 -2.081200000000E-01 -1.322800000000E-01
     15 F   6 C     2.081200000000E-01  3.422500000000E-01  1.322800000000E-01
     16 F   6 C    -2.081200000000E-01 -3.422500000000E-01  1.322800000000E-01
     17 T   6 C    -2.025800000000E-01  4.372000000000E-02 -1.317000000000E-01
     18 F   6 C     2.025800000000E-01 -4.372000000000E-02 -1.317000000000E-01
     19 F   6 C     4.372000000000E-02  2.025800000000E-01  1.317000000000E-01
     20 F   6 C    -4.372000000000E-02 -2.025800000000E-01  1.317000000000E-01
     21 T   6 C    -1.321600000000E-01  2.353600000000E-01 -1.077800000000E-01
     22 F   6 C     1.321600000000E-01 -2.353600000000E-01 -1.077800000000E-01
     23 F   6 C     2.353600000000E-01  1.321600000000E-01  1.077800000000E-01
     24 F   6 C    -2.353600000000E-01 -1.321600000000E-01  1.077800000000E-01
     25 T   6 C     3.217600000000E-01 -8.426000000000E-02 -1.402200000000E-01
     26 F   6 C    -3.217600000000E-01  8.426000000000E-02 -1.402200000000E-01
     27 F   6 C    -8.426000000000E-02 -3.217600000000E-01  1.402200000000E-01
     28 F   6 C     8.426000000000E-02  3.217600000000E-01  1.402200000000E-01
     29 T   7 N     3.250000000000E-01 -5.150000000000E-03  3.210700000000E-01
     30 F   7 N    -3.250000000000E-01  5.150000000000E-03  3.210700000000E-01
     31 F   7 N    -5.150000000000E-03 -3.250000000000E-01 -3.210700000000E-01
     32 F   7 N     5.150000000000E-03  3.250000000000E-01 -3.210700000000E-01
     33 T   7 N    -2.160200000000E-01 -3.887300000000E-01 -1.700200000000E-01
     34 F   7 N     2.160200000000E-01  3.887300000000E-01 -1.700200000000E-01
     35 F   7 N    -3.887300000000E-01  2.160200000000E-01  1.700200000000E-01
     36 F   7 N     3.887300000000E-01 -2.160200000000E-01  1.700200000000E-01
     37 T   7 N     1.542800000000E-01 -5.040000000000E-03  4.090800000000E-01
     38 F   7 N    -1.542800000000E-01  5.040000000000E-03  4.090800000000E-01
     39 F   7 N    -5.040000000000E-03 -1.542800000000E-01 -4.090800000000E-01
     40 F   7 N     5.040000000000E-03  1.542800000000E-01 -4.090800000000E-01
     41 T   7 N     1.842100000000E-01  1.116700000000E-01  3.834000000000E-01
     42 F   7 N    -1.842100000000E-01 -1.116700000000E-01  3.834000000000E-01
     43 F   7 N     1.116700000000E-01 -1.842100000000E-01 -3.834000000000E-01
     44 F   7 N    -1.116700000000E-01  1.842100000000E-01 -3.834000000000E-01
     45 T   7 N    -1.103400000000E-01  1.176300000000E-01 -1.129900000000E-01
     46 F   7 N     1.103400000000E-01 -1.176300000000E-01 -1.129900000000E-01
     47 F   7 N     1.176300000000E-01  1.103400000000E-01  1.129900000000E-01
     48 F   7 N    -1.176300000000E-01 -1.103400000000E-01  1.129900000000E-01
     49 T  17 CL    9.420000000000E-03 -2.437000000000E-01  3.684000000000E-01
     50 F  17 CL   -9.420000000000E-03  2.437000000000E-01  3.684000000000E-01
     51 F  17 CL   -2.437000000000E-01 -9.420000000000E-03 -3.684000000000E-01
     52 F  17 CL    2.437000000000E-01  9.420000000000E-03 -3.684000000000E-01
     53 T  17 CL   -8.580000000000E-03  3.263300000000E-01 -7.619000000000E-02
     54 F  17 CL    8.580000000000E-03 -3.263300000000E-01 -7.619000000000E-02
     55 F  17 CL    3.263300000000E-01  8.580000000000E-03  7.619000000000E-02
     56 F  17 CL   -3.263300000000E-01 -8.580000000000E-03  7.619000000000E-02
     57 T  17 CL   -1.767600000000E-01 -1.107900000000E-01 -1.398400000000E-01
     58 F  17 CL    1.767600000000E-01  1.107900000000E-01 -1.398400000000E-01
     59 F  17 CL   -1.107900000000E-01  1.767600000000E-01  1.398400000000E-01
     60 F  17 CL    1.107900000000E-01 -1.767600000000E-01  1.398400000000E-01
     61 T  30 ZN    5.000000000000E-01  0.000000000000E+00  2.500000000000E-01
     62 T  30 ZN    0.000000000000E+00  0.000000000000E+00 -5.000000000000E-01

 T = ATOM BELONGING TO THE ASYMMETRIC UNIT

 ****    4 SYMMOPS - TRANSLATORS IN FRACTIONAL UNITS
 **** MATRICES AND TRANSLATORS IN THE CRYSTALLOGRAPHIC REFERENCE FRAME
   V INV                    ROTATION MATRICES                   TRANSLATORS
   1   1  1.00  0.00  0.00  0.00  1.00  0.00  0.00  0.00  1.00  0.00  0.00  0.00
   2   2  0.00  1.00 -1.00  1.00  0.00 -1.00 -0.00  0.00 -1.00  0.00  0.00  0.00
   3   4 -0.00 -1.00  0.00  0.00 -1.00  1.00  1.00 -1.00  0.00  0.00  0.00  0.00
   4   3 -1.00 -0.00  1.00 -1.00  0.00 -0.00 -1.00  1.00 -0.00  0.00  0.00  0.00

 DIRECT LATTICE VECTORS CARTESIAN COMPONENTS (ANGSTROM)
          X                    Y                    Z
  -0.552302074750E+01   0.552302074750E+01   0.668700195885E+01
   0.552302074750E+01  -0.552302074750E+01   0.668700195885E+01
   0.552302074750E+01   0.552302074750E+01  -0.668700195885E+01


 CARTESIAN COORDINATES - PRIMITIVE CELL
 *******************************************************************************
 *      ATOM          X(ANGSTROM)         Y(ANGSTROM)         Z(ANGSTROM)
 *******************************************************************************
    1     1 H    -4.375005654925E+00  2.252287860830E-01 -1.983766001112E+00
    2     1 H     4.375005654925E+00 -2.252287860830E-01 -1.983766001112E+00
    3     1 H     2.252287860830E-01  4.375005654925E+00  1.983766001112E+00
    4     1 H    -2.252287860830E-01 -4.375005654925E+00  1.983766001112E+00
    5     6 C    -2.714012395322E+00  3.218153729153E+00 -1.628686197098E+00
    6     6 C     2.714012395322E+00 -3.218153729153E+00 -1.628686197098E+00
    7     6 C     3.218153729153E+00  2.714012395322E+00  1.628686197098E+00
    8     6 C    -3.218153729153E+00 -2.714012395322E+00  1.628686197098E+00
    9     6 C     2.686839133244E+00 -8.487778284758E-01  4.955335931586E+00
   10     6 C    -2.686839133244E+00  8.487778284758E-01  4.955335931586E+00
   11     6 C    -8.487778284758E-01 -2.686839133244E+00 -4.955335931586E+00
   12     6 C     8.487778284758E-01  2.686839133244E+00 -4.955335931586E+00
   13     6 C    -3.780507701664E+00  2.298902155939E+00 -1.769113238233E+00
   14     6 C     3.780507701664E+00 -2.298902155939E+00 -1.769113238233E+00
   15     6 C     2.298902155939E+00  3.780507701664E+00  1.769113238233E+00
   16     6 C    -2.298902155939E+00 -3.780507701664E+00  1.769113238233E+00
   17     6 C    -2.237707086057E+00  4.829329341614E-01 -1.761356315961E+00
   18     6 C     2.237707086057E+00 -4.829329341614E-01 -1.761356315961E+00
   19     6 C     4.829329341614E-01  2.237707086057E+00  1.761356315961E+00
   20     6 C    -4.829329341614E-01 -2.237707086057E+00  1.761356315961E+00
   21     6 C    -1.459844843979E+00  2.599796326263E+00 -1.441450142250E+00
   22     6 C     1.459844843979E+00 -2.599796326263E+00 -1.441450142250E+00
   23     6 C     2.599796326263E+00  1.459844843979E+00  1.441450142250E+00
   24     6 C    -2.599796326263E+00 -1.459844843979E+00  1.441450142250E+00
   25     6 C     3.554174311431E+00 -9.307394563687E-01 -1.875302829340E+00
   26     6 C    -3.554174311431E+00  9.307394563687E-01 -1.875302829340E+00
   27     6 C    -9.307394563687E-01 -3.554174311431E+00  1.875302829340E+00
   28     6 C     9.307394563687E-01  3.554174311431E+00  1.875302829340E+00
   29     7 N     3.589963485875E+00 -5.688711369925E-02  4.293991437856E+00
   30     7 N    -3.589963485875E+00  5.688711369925E-02  4.293991437856E+00
   31     7 N    -5.688711369925E-02 -3.589963485875E+00 -4.293991437856E+00
   32     7 N     5.688711369925E-02  3.589963485875E+00 -4.293991437856E+00
   33     7 N    -2.386165883750E+00 -4.293927710351E+00 -2.273848146087E+00
   34     7 N     2.386165883750E+00  4.293927710351E+00 -2.273848146087E+00
   35     7 N    -4.293927710351E+00  2.386165883750E+00  2.273848146087E+00
   36     7 N     4.293927710351E+00 -2.386165883750E+00  2.273848146087E+00
   37     7 N     1.704183281849E+00 -5.567204913480E-02  5.471037522653E+00
   38     7 N    -1.704183281849E+00  5.567204913480E-02  5.471037522653E+00
   39     7 N    -5.567204913480E-02 -1.704183281849E+00 -5.471037522653E+00
   40     7 N     5.567204913480E-02  1.704183281849E+00 -5.471037522653E+00
   41     7 N     2.034791303794E+00  1.233511453747E+00  5.127593102046E+00
   42     7 N    -2.034791303794E+00 -1.233511453747E+00  5.127593102046E+00
   43     7 N     1.233511453747E+00 -2.034791303794E+00 -5.127593102046E+00
   44     7 N    -1.233511453747E+00  2.034791303794E+00 -5.127593102046E+00
   45     7 N    -1.218820218558E+00  1.299345861057E+00 -1.511128702661E+00
   46     7 N     1.218820218558E+00 -1.299345861057E+00 -1.511128702661E+00
   47     7 N     1.299345861057E+00  1.218820218558E+00  1.511128702661E+00
   48     7 N    -1.299345861057E+00 -1.218820218558E+00  1.511128702661E+00
   49    17 CL    1.040537108829E-01 -2.691920312331E+00  4.926983043281E+00
   50    17 CL   -1.040537108829E-01  2.691920312332E+00  4.926983043281E+00
   51    17 CL   -2.691920312331E+00 -1.040537108829E-01 -4.926983043281E+00
   52    17 CL    2.691920312331E+00  1.040537108829E-01 -4.926983043281E+00
   53    17 CL   -9.477503602710E-02  3.604654721063E+00 -1.018965358490E+00
   54    17 CL    9.477503602710E-02 -3.604654721063E+00 -1.018965358490E+00
   55    17 CL    3.604654721063E+00  9.477503602710E-02  1.018965358490E+00
   56    17 CL   -3.604654721063E+00 -9.477503602710E-02  1.018965358490E+00
   57    17 CL   -1.952498294656E+00 -1.223790937231E+00 -1.870220707851E+00
   58    17 CL    1.952498294656E+00  1.223790937231E+00 -1.870220707851E+00
   59    17 CL   -1.223790937231E+00  1.952498294656E+00  1.870220707851E+00
   60    17 CL    1.223790937231E+00 -1.952498294656E+00  1.870220707851E+00
   61    30 ZN    5.523020747500E+00  0.000000000000E+00 -1.003050293827E+01
   62    30 ZN    0.000000000000E+00  0.000000000000E+00  6.687001958850E+00

 *******************************************************************************
 STARTING BASIS SET HANDLING 
 *******************************************************************************

 Loading internal basis set: POB-DZVPP           

 Please cite in your publication:
 Peintinger, M. F., Oliveira, D. V. and Bredow, T. (2013), Generally applicable 
 solid-state Gaussian basis sets, in preparation                                
                                                                                
                    

 *******************************************************************************
 LOCAL ATOMIC FUNCTIONS BASIS SET
 *******************************************************************************
   ATOM   X(AU)   Y(AU)   Z(AU)  N. TYPE  EXPONENT  S COEF   P COEF   D/F/G COEF
 *******************************************************************************
   1 H   -8.268   0.426  -3.749
                                  1 S  
                                         2.263E+01 1.441E-02 0.000E+00 0.000E+00
                                         3.236E+00 1.072E-01 0.000E+00 0.000E+00
                                         7.304E-01 3.846E-01 0.000E+00 0.000E+00
                                  2 S  
                                         1.417E-01 1.000E+00 0.000E+00 0.000E+00
                           3-     5 P  
                                         3.944E-01 0.000E+00 1.000E+00 0.000E+00
                           6-     8 P  
                                         1.006E-01 0.000E+00 1.000E+00 0.000E+00
   2 H    8.268  -0.426  -3.749
   3 H    0.426   8.268   3.749
   4 H   -0.426  -8.268   3.749
   5 C   -5.129   6.081  -3.078
                                 33 S  
                                         1.238E+03 5.457E-03 0.000E+00 0.000E+00
                                         1.863E+02 4.064E-02 0.000E+00 0.000E+00
                                         4.225E+01 1.803E-01 0.000E+00 0.000E+00
                                         1.168E+01 4.632E-01 0.000E+00 0.000E+00
                                         3.593E+00 4.409E-01 0.000E+00 0.000E+00
                                 34 S  
                                         5.281E+00 1.000E+00 0.000E+00 0.000E+00
                                 35 S  
                                         4.447E-01 1.000E+00 0.000E+00 0.000E+00
                          36-    38 P  
                                         9.468E+00 0.000E+00 3.839E-02 0.000E+00
                                         2.010E+00 0.000E+00 2.112E-01 0.000E+00
                                         5.477E-01 0.000E+00 5.133E-01 0.000E+00
                          39-    41 P  
                                         1.604E-01 0.000E+00 1.000E+00 0.000E+00
                          42-    46 D  
                                         6.070E-01 0.000E+00 0.000E+00 1.000E+00
                          47-    51 D  
                                         2.939E-01 0.000E+00 0.000E+00 1.000E+00
   6 C    5.129  -6.081  -3.078
   7 C    6.081   5.129   3.078
   8 C   -6.081  -5.129   3.078
   9 C    5.077  -1.604   9.364
  10 C   -5.077   1.604   9.364
  11 C   -1.604  -5.077  -9.364
  12 C    1.604   5.077  -9.364
  13 C   -7.144   4.344  -3.343
  14 C    7.144  -4.344  -3.343
  15 C    4.344   7.144   3.343
  16 C   -4.344  -7.144   3.343
  17 C   -4.229   0.913  -3.328
  18 C    4.229  -0.913  -3.328
  19 C    0.913   4.229   3.328
  20 C   -0.913  -4.229   3.328
  21 C   -2.759   4.913  -2.724
  22 C    2.759  -4.913  -2.724
  23 C    4.913   2.759   2.724
  24 C   -4.913  -2.759   2.724
  25 C    6.716  -1.759  -3.544
  26 C   -6.716   1.759  -3.544
  27 C   -1.759  -6.716   3.544
  28 C    1.759   6.716   3.544
  29 N    6.784  -0.108   8.114
                                489 S  
                                         1.713E+03-5.393E-03 0.000E+00 0.000E+00
                                         2.576E+02-4.022E-02 0.000E+00 0.000E+00
                                         5.846E+01-1.793E-01 0.000E+00 0.000E+00
                                         1.620E+01-4.638E-01 0.000E+00 0.000E+00
                                         5.005E+00-4.417E-01 0.000E+00 0.000E+00
                                490 S  
                                         6.217E-01 1.000E+00 0.000E+00 0.000E+00
                                491 S  
                                         2.921E-01 1.000E+00 0.000E+00 0.000E+00
                         492-   494 P  
                                         1.357E+01 0.000E+00-4.007E-02 0.000E+00
                                         2.926E+00 0.000E+00-2.181E-01 0.000E+00
                                         7.993E-01 0.000E+00-5.129E-01 0.000E+00
                         495-   497 P  
                                         2.244E-01 0.000E+00 1.000E+00 0.000E+00
                         498-   502 D  
                                         3.118E-01 0.000E+00 0.000E+00 1.000E+00
  30 N   -6.784   0.108   8.114
  31 N   -0.108  -6.784  -8.114
  32 N    0.108   6.784  -8.114
  33 N   -4.509  -8.114  -4.297
  34 N    4.509   8.114  -4.297
  35 N   -8.114   4.509   4.297
  36 N    8.114  -4.509   4.297
  37 N    3.220  -0.105  10.339
  38 N   -3.220   0.105  10.339
  39 N   -0.105  -3.220 -10.339
  40 N    0.105   3.220 -10.339
  41 N    3.845   2.331   9.690
  42 N   -3.845  -2.331   9.690
  43 N    2.331  -3.845  -9.690
  44 N   -2.331   3.845  -9.690
  45 N   -2.303   2.455  -2.856
  46 N    2.303  -2.455  -2.856
  47 N    2.455   2.303   2.856
  48 N   -2.455  -2.303   2.856
  49 CL   0.197  -5.087   9.311
                                769 S  
                                         1.045E+04 1.971E-03 0.000E+00 0.000E+00
                                         1.572E+03 1.475E-02 0.000E+00 0.000E+00
                                         3.571E+02 6.668E-02 0.000E+00 0.000E+00
                                         1.003E+02 1.723E-01 0.000E+00 0.000E+00
                                         3.081E+01 1.588E-01 0.000E+00 0.000E+00
                                770 S  
                                         5.192E+01-1.001E-01 0.000E+00 0.000E+00
                                         5.705E+00 6.084E-01 0.000E+00 0.000E+00
                                         2.351E+00 5.435E-01 0.000E+00 0.000E+00
                                771 S  
                                         4.886E-01 1.000E+00 0.000E+00 0.000E+00
                                772 S  
                                         1.984E-01 1.000E+00 0.000E+00 0.000E+00
                         773-   775 P  
                                         3.077E+02 0.000E+00-8.780E-03 0.000E+00
                                         7.210E+01 0.000E+00-6.356E-02 0.000E+00
                                         2.253E+01 0.000E+00-2.402E-01 0.000E+00
                                         7.899E+00 0.000E+00-4.780E-01 0.000E+00
                                         2.877E+00 0.000E+00-3.852E-01 0.000E+00
                         776-   778 P  
                                         9.483E-01 0.000E+00 1.000E+00 0.000E+00
                         779-   781 P  
                                         2.521E-01 0.000E+00 1.000E+00 0.000E+00
                         782-   786 D  
                                         9.722E-01 0.000E+00 0.000E+00 1.000E+00
                         787-   791 D  
                                         2.060E-01 0.000E+00 0.000E+00 1.000E+00
  50 CL  -0.197   5.087   9.311
  51 CL  -5.087  -0.197  -9.311
  52 CL   5.087   0.197  -9.311
  53 CL  -0.179   6.812  -1.926
  54 CL   0.179  -6.812  -1.926
  55 CL   6.812   0.179   1.926
  56 CL  -6.812  -0.179   1.926
  57 CL  -3.690  -2.313  -3.534
  58 CL   3.690   2.313  -3.534
  59 CL  -2.313   3.690   3.534
  60 CL   2.313  -3.690   3.534
  61 ZN  10.437   0.000 -18.955
                               1045 S  
                                         8.200E+04 1.421E-03 0.000E+00 0.000E+00
                                         1.231E+04 1.089E-02 0.000E+00 0.000E+00
                                         2.801E+03 5.406E-02 0.000E+00 0.000E+00
                                         7.910E+02 1.885E-01 0.000E+00 0.000E+00
                                         2.576E+02 3.835E-01 0.000E+00 0.000E+00
                                         8.881E+01 2.972E-01 0.000E+00 0.000E+00
                               1046 S  
                                         1.719E+02-1.105E-01 0.000E+00 0.000E+00
                                         2.030E+01 6.461E-01 0.000E+00 0.000E+00
                                         8.346E+00 4.422E-01 0.000E+00 0.000E+00
                               1047 S  
                                         1.485E+01-2.271E-01 0.000E+00 0.000E+00
                                         2.450E+00 7.243E-01 0.000E+00 0.000E+00
                                         9.985E-01 4.484E-01 0.000E+00 0.000E+00
                               1048 S  
                                         1.493E+00 1.000E+00 0.000E+00 0.000E+00
                               1049 S  
                                         1.830E-01 1.000E+00 0.000E+00 0.000E+00
                        1050-  1052 P  
                                         1.072E+03 0.000E+00 9.277E-03 0.000E+00
                                         2.527E+02 0.000E+00 6.954E-02 0.000E+00
                                         8.010E+01 0.000E+00 2.716E-01 0.000E+00
                                         2.890E+01 0.000E+00 5.340E-01 0.000E+00
                                         1.077E+01 0.000E+00 3.450E-01 0.000E+00
                        1053-  1055 P  
                                         5.645E+00 0.000E+00 3.413E-01 0.000E+00
                                         2.168E+00 0.000E+00 5.639E-01 0.000E+00
                                         8.054E-01 0.000E+00 2.368E-01 0.000E+00
                        1056-  1058 P  
                                         2.721E-01 0.000E+00 1.000E+00 0.000E+00
                        1059-  1063 D  
                                         5.609E+01 0.000E+00 0.000E+00 2.959E-02
                                         1.575E+01 0.000E+00 0.000E+00 1.587E-01
                                         5.312E+00 0.000E+00 0.000E+00 3.798E-01
                                         1.774E+00 0.000E+00 0.000E+00 4.690E-01
                        1064-  1068 D  
                                         5.073E-01 0.000E+00 0.000E+00 1.000E+00
                        1069-  1075 F  
                                         2.814E+00 0.000E+00 0.000E+00 1.000E+00
                        1076-  1082 F  
                                         1.300E+00 0.000E+00 0.000E+00 1.000E+00
  62 ZN   0.000   0.000  12.637

 *******************************************************************************
 FINISHED BASIS SET HANDLING 
 *******************************************************************************

 INFORMATION **** SET_MPP **** PCRYSTAL CALCULATION
 INFORMATION **** READM2 **** NEW DEFAULT: FOCK/KS MATRIX MIXING SET TO 30 %
 INFORMATION **** READM2 **** NEW DEFAULT: FULL DIRECT SCF MODE
 INFORMATION **** READM2 **** NEW DEFAULT: COULOMB BIPOLAR BUFFER SET TO 32 Mb
 INFORMATION **** READM2 **** NEW DEFAULT: EXCHANGE BIPOLAR BUFFER SET TO 32 Mb

 *******************************************************************************
 NEW DEFAULT: DFT INTEGRATION GRID INCREASED TO XLGRID
 NEW DEFAULT: DIIS ACCELERATOR ACTIVE
 USE KEYWORD NODIIS TO TURN IT OFF
 *******************************************************************************

 INFORMATION **** DFTD3_INPUT **** PERFORM DISPERSION CORRECTION DFT-D3(BJ) IN THE BECKE-JOHNSON DAMPING SCHEME

 PLEASE CITE:
 (1) DFT-D3 Reference
  S. Grimme, J. Antony, S. Ehrlich, and H. Krieg, J. Chem. Phys. 132 (2010), 154104
 (2) BJ-Damping Reference
  S. Grimme, S. Ehrlich, and L. Goerigk, J. Comput. Chem. 32 (2011), 1456-1465
 (3) General DFT-D Review
  S. Grimme, A. Hansen, J. G. Brandenburg, and C. Bannwarth,
  Chem. Rev. 116 (2016), 5105-5154

 INFORMATION **** TOLINTEG **** COULOMB AND EXCHANGE SERIES TOLERANCES MODIFIED
 INFORMATION **** BIPOSIZE **** COULOMB BIPOLAR BUFFER SET TO   100000000
 INFORMATION **** MAXCYCLE **** MAX NUMBER OF SCF CYCLES SET TO          50
 *******************************************************************************
 N. OF ATOMS PER CELL        62  COULOMB OVERLAP TOL         (T1) 10**  -12
 NUMBER OF SHELLS           436  COULOMB PENETRATION TOL     (T2) 10**  -12
 NUMBER OF AO              1120  EXCHANGE OVERLAP TOL        (T3) 10**   20
 N. OF ELECTRONS PER CELL   552  EXCHANGE PSEUDO OVP (F(G))  (T4) 10**   20
 CORE ELECTRONS PER CELL    244  EXCHANGE PSEUDO OVP (P(G))  (T5) 10**   20
 N. OF SYMMETRY OPERATORS     4  POLE ORDER IN MONO ZONE                  4
 *******************************************************************************
 TYPE OF CALCULATION :  RESTRICTED CLOSED SHELL
 KOHN-SHAM HAMILTONIAN

 (EXCHANGE)[CORRELATION] FUNCTIONAL:(PERDEW-BURKE-ERNZERHOF)[PERDEW-BURKE-ERNZERHOF]


 CAPPA:IS1  3;IS2  3;IS3  3; K PTS MONK NET   6; SYMMOPS:K SPACE   8;G SPACE   4

 *******************************************************************************
 MAX NUMBER OF SCF CYCLES      50  CONVERGENCE ON DELTAP        10**-16
 WEIGHT OF F(I) IN F(I+1)      30% CONVERGENCE ON ENERGY        10**- 6
 SHRINK. FACT.(MONKH.)    3  3  3  NUMBER OF K POINTS IN THE IBZ      6
 SHRINKING FACTOR(GILAT NET)    3  NUMBER OF K POINTS(GILAT NET)      6
 *******************************************************************************
 *** K POINTS COORDINATES (OBLIQUE COORDINATES IN UNITS OF IS =  3)
   1-R(  0  0  0)   2-C(  1  0  0)   3-C(  1  1  0)   4-C(  2  1  0)
   5-C(  2  1  1)   6-C(  2  2  1)

 DIRECT LATTICE VECTORS COMPON. (A.U.)     RECIP. LATTICE VECTORS COMPON. (A.U.) 
        X            Y            Z              X            Y            Z
  -10.4369966   10.4369966   12.6366024      0.0000000    0.3010054    0.2486105
   10.4369966  -10.4369966   12.6366024      0.3010054    0.0000000    0.2486105
   10.4369966   10.4369966  -12.6366024      0.3010054    0.3010054    0.0000000

 DISK SPACE FOR EIGENVECTORS (FTN 10)    13798400 REALS

 SYMMETRY ADAPTION OF THE BLOCH FUNCTIONS ENABLED
 TTTTTTTTTTTTTTTTTTTTTTTTTTTTTT gordsh1     TELAPSE        4.44 TCPU        0.08

 MATRIX SIZE: P(G) 1800952, F(G)  901124, P(G) IRR  227668, F(G) IRR  227668
 MAX G-VECTOR INDEX FOR 1- AND 2-ELECTRON INTEGRALS  59

 TTTTTTTTTTTTTTTTTTTTTTTTTTTTTT INPUT       TELAPSE        6.04 TCPU        1.68

 NEIGHBORS OF THE NON-EQUIVALENT ATOMS

 N = NUMBER OF NEIGHBORS AT DISTANCE R
    ATOM  N     R/ANG      R/AU   NEIGHBORS (ATOM LABELS AND CELL INDICES)
   1 H    1     1.0878     2.0556   26 C    0 0 0
   1 H    1     2.1642     4.0898   17 C    0 0 0
   1 H    1     2.1679     4.0967   13 C    0 0 0
   1 H    1     2.3398     4.4216    2 H    0-1-1
   1 H    1     2.8161     5.3217   49 CL   0-1 0
   1 H    1     2.8251     5.3386   57 CL   0 0 0

   5 C    1     1.4108     2.6660   21 C    0 0 0
   5 C    1     1.4150     2.6739   13 C    0 0 0
   5 C    1     1.4648     2.7681    9 C    0-1 0
   5 C    1     2.4354     4.6023   45 N    0 0 0
   5 C    1     2.4493     4.6285   26 C    0 0 0
   5 C    1     2.4995     4.7234   29 N    0-1 0

   9 C    1     1.3640     2.5776   37 N    0 0 0
   9 C    1     1.3712     2.5911   29 N    0 0 0
   9 C    1     1.4648     2.7681    5 C    0 1 0
   9 C    1     2.1888     4.1362   41 N    0 0 0
   9 C    1     2.1941     4.1462   33 N    1 1 1
   9 C    1     2.5064     4.7363   21 C    0 1 0

  13 C    1     1.3908     2.6283   26 C    0 0 0
  13 C    1     1.4150     2.6739    5 C    0 0 0
  13 C    1     1.7227     3.2555   49 CL   0-1 0
  13 C    1     2.1679     4.0967    1 H    0 0 0
  13 C    1     2.3629     4.4653   21 C    0 0 0
  13 C    1     2.3829     4.5030   17 C    0 0 0

  17 C    1     1.3294     2.5122   45 N    0 0 0
  17 C    1     1.3952     2.6366   26 C    0 0 0
  17 C    1     1.7338     3.2764   57 CL   0 0 0
  17 C    1     2.1642     4.0898    1 H    0 0 0
  17 C    1     2.2778     4.3045   21 C    0 0 0
  17 C    1     2.3829     4.5030   13 C    0 0 0

  21 C    1     1.3244     2.5028   45 N    0 0 0
  21 C    1     1.4108     2.6660    5 C    0 0 0
  21 C    1     1.7469     3.3012   53 CL   0 0 0
  21 C    1     2.2778     4.3045   17 C    0 0 0
  21 C    1     2.3629     4.4653   13 C    0 0 0
  21 C    1     2.5064     4.7363    9 C    0-1 0

  25 C    1     1.0878     2.0556    2 H    0 0 0
  25 C    1     1.3908     2.6283   14 C    0 0 0
  25 C    1     1.3952     2.6366   18 C    0 0 0
  25 C    1     2.3921     4.5205   46 N    0 0 0
  25 C    1     2.4493     4.6285    6 C    0 0 0
  25 C    1     2.6650     5.0361   50 CL  -1 0 0

  29 N    1     1.3687     2.5864   33 N    1 1 1
  29 N    1     1.3712     2.5911    9 C    0 0 0
  29 N    1     2.1549     4.0721   61 ZN   1 1 0
  29 N    1     2.1860     4.1309   41 N    0 0 0
  29 N    1     2.2230     4.2008   37 N    0 0 0
  29 N    1     2.4995     4.7234    5 C    0 1 0

  33 N    1     1.3134     2.4819   41 N   -1-1-1
  33 N    1     1.3687     2.5864   29 N   -1-1-1
  33 N    1     2.1941     4.1462    9 C   -1-1-1
  33 N    1     2.1960     4.1498   37 N   -1-1-1
  33 N    1     2.8644     5.4130   54 CL   0 0 0
  33 N    1     2.8894     5.4602   61 ZN   0 0-1

  37 N    1     1.3640     2.5776    9 C    0 0 0
  37 N    1     1.3745     2.5974   41 N    0 0 0
  37 N    1     2.0943     3.9576   62 ZN   0 0 0
  37 N    1     2.1960     4.1498   33 N    1 1 1
  37 N    1     2.2230     4.2008   29 N    0 0 0
  37 N    1     2.5397     4.7993    5 C    0 1 0

  41 N    1     1.3134     2.4819   33 N    1 1 1
  41 N    1     1.3745     2.5974   37 N    0 0 0
  41 N    1     2.1860     4.1309   29 N    0 0 0
  41 N    1     2.1888     4.1362    9 C    0 0 0
  41 N    1     2.5965     4.9067   50 CL   0 0 0
  41 N    1     2.8449     5.3762   62 ZN   0 0 0

  45 N    1     1.3244     2.5028   21 C    0 0 0
  45 N    1     1.3294     2.5122   17 C    0 0 0
  45 N    1     2.3921     4.5205   26 C    0 0 0
  45 N    1     2.4354     4.6023    5 C    0 0 0
  45 N    1     2.6115     4.9351   53 CL   0 0 0
  45 N    1     2.6521     5.0117   57 CL   0 0 0

  49 CL   1     1.7227     3.2555   13 C    0 1 0
  49 CL   1     2.5965     4.9067   42 N    0 0 0
  49 CL   1     2.6650     5.0361   26 C    0 1 0
  49 CL   1     2.7357     5.1696    5 C    0 1 0
  49 CL   1     2.8161     5.3217    1 H    0 1 0
  49 CL   1     3.1315     5.9177   37 N    0 0 0

  53 CL   1     1.7469     3.3012   21 C    0 0 0
  53 CL   1     2.6115     4.9351   45 N    0 0 0
  53 CL   1     2.7169     5.1342    5 C    0 0 0
  53 CL   1     2.8644     5.4130   34 N    0 0 0
  53 CL   1     2.9551     5.5843   29 N    0-1 0
  53 CL   1     3.0154     5.6983   61 ZN   1 0 0

  57 CL   1     1.7338     3.2764   17 C    0 0 0
  57 CL   1     2.6521     5.0117   45 N    0 0 0
  57 CL   1     2.6847     5.0733   26 C    0 0 0
  57 CL   1     2.8251     5.3386    1 H    0 0 0
  57 CL   1     3.1268     5.9087   33 N    0 0 0
  57 CL   1     3.1925     6.0329   46 N    0 0 0

  61 ZN   4     2.1549     4.0721   29 N   -1-1 0   30 N   -1 0 1   31 N    0 0 1
                                    32 N   -1 0 0
  61 ZN   4     2.8894     5.4602   33 N    0 0 1   34 N   -1 0 0   35 N   -1 0 1
                                    36 N   -1-1 0
  61 ZN   4     3.0154     5.6983   53 CL  -1 0 0   54 CL   0 0 1   55 CL  -1-1 0
                                    56 CL  -1 0 1
  61 ZN   4     3.3708     6.3699    9 C   -1-1 0   10 C   -1 0 1   11 C    0 0 1
                                    12 C   -1 0 0
  61 ZN   4     3.7808     7.1446   21 C   -1 0 0   22 C    0 0 1   23 C   -1-1 0
                                    24 C   -1 0 1
  61 ZN   4     3.9521     7.4683    5 C   -1 0 0    6 C    0 0 1    7 C   -1-1 0
                                     8 C   -1 0 1

  62 ZN   4     2.0943     3.9576   37 N    0 0 0   38 N    0 0 0   39 N    1 1 0
                                    40 N    1 1 0
  62 ZN   4     2.8449     5.3762   41 N    0 0 0   42 N    0 0 0   43 N    1 1 0
                                    44 N    1 1 0
  62 ZN   4     3.2179     6.0810   49 CL   0 0 0   50 CL   0 0 0   51 CL   1 1 0
                                    52 CL   1 1 0
  62 ZN   4     3.3073     6.2499    9 C    0 0 0   10 C    0 0 0   11 C    1 1 0
                                    12 C    1 1 0
  62 ZN   4     3.9819     7.5247    5 C    0 1 0    6 C    1 0 0    7 C    0 0-1
                                     8 C    1 1 1
  62 ZN   4     4.0646     7.6810   33 N    1 1 1   34 N    0 0-1   35 N    0 1 0
                                    36 N    1 0 0


 SYMMETRY ALLOWED INTERNAL DEGREE(S) OF FREEDOM:  45
 TTTTTTTTTTTTTTTTTTTTTTTTTTTTTT SYMM        TELAPSE        6.07 TCPU        1.70
 TTTTTTTTTTTTTTTTTTTTTTTTTTTTTT INT_SCREEN  TELAPSE        6.08 TCPU        1.71
 INFORMATION **** EXCBUF **** EXCH. BIPO BUFFER: WORDS USED =           0

 DFT PARAMETERS

     ATOM       ELECTRONS   NET CHARGE   R(ANGSTROM)
   1   1  H       1.0000      0.0000     1.11000000
   5   6  C       6.0000      0.0000     0.77000000
  29   7  N       7.0000      0.0000     0.74000000
  49  17  CL     17.0000      0.0000     0.99000000
  61  30  ZN     30.0000      0.0000     1.37000000

 SIZE OF GRID=     485477
 TTTTTTTTTTTTTTTTTTTTTTTTTTTTTT MAKE_GRID2  TELAPSE        6.84 TCPU        2.47
 BECKE WEIGHT FUNCTION
 RADSAFE =     2.00
 TOLERANCES - DENSITY:10**- 6; POTENTIAL:10**- 9; GRID WGT:10**-14

 RADIAL INTEGRATION  - INTERVALS (POINTS,UPPER LIMIT):            1( 75,  4.0*R)

 ANGULAR INTEGRATION - INTERVALS (ACCURACY LEVEL [N. POINTS] UPPER LIMIT):
  1(  4[  86]   0.2)  2(  8[ 194]   0.5)  3( 12[ 350]   0.9)  4( 16[ 974]   3.5)
  5( 12[ 350]9999.0)
 TTTTTTTTTTTTTTTTTTTTTTTTTTTTTT INT_CALC    TELAPSE        6.89 TCPU        2.51
 EEEEEEEEEE INT_CALC TERMINATION  DATE 11 12 2023 TIME 17:22:49.6

 *******************************************************************************
 Z:\home\sanoj\Downloads\tmp_p\newconn.mol                                       
 CRYSTAL - SCF - TYPE OF CALCULATION :  RESTRICTED CLOSED SHELL
 *******************************************************************************

 CAPPA:IS1  3;IS2  3;IS3  3; K PTS MONK NET   6; SYMMOPS:K SPACE   8;G SPACE   4

 TTTTTTTTTTTTTTTTTTTTTTTTTTTTTT SDIK        TELAPSE        7.12 TCPU        2.75

 AAAAAAAAAAAAAAAAAAAAAAAAAAAAAAAAAAAAAAAAAAAAAAAAAAAAAAAAAAAAAAAAAAAAAAAAAAAAAAA
         ATOMIC WAVEFUNCTION(S)


 NUCLEAR CHARGE  1.0  SYMMETRY SPECIES            S
 N. ELECTRONS    1.0  NUMBER OF PRIMITIVE GTOS    4
                      NUMBER OF CONTRACTED GTOS   2
                      NUMBER OF CLOSED SHELLS     0
                      OPEN SHELL OCCUPATION       1

  ZNUC SCFIT  TOTAL HF ENERGY   KINETIC ENERGY   VIRIAL THEOREM ACCURACY
   1.0   1   -4.946643675E-01  4.917913167E-01 -2.005842012E+00  9.4E-17

 NUCLEAR CHARGE  6.0  SYMMETRY SPECIES            S    P
 N. ELECTRONS    6.0  NUMBER OF PRIMITIVE GTOS    7    4
                      NUMBER OF CONTRACTED GTOS   3    2
                      NUMBER OF CLOSED SHELLS     2    0
                      OPEN SHELL OCCUPATION       0    2

  ZNUC SCFIT  TOTAL HF ENERGY   KINETIC ENERGY   VIRIAL THEOREM ACCURACY
   6.0   6   -3.750912652E+01  3.905246519E+01 -1.960480378E+00  3.7E-06

 NUCLEAR CHARGE  7.0  SYMMETRY SPECIES            S    P
 N. ELECTRONS    7.0  NUMBER OF PRIMITIVE GTOS    7    4
                      NUMBER OF CONTRACTED GTOS   3    2
                      NUMBER OF CLOSED SHELLS     2    0
                      OPEN SHELL OCCUPATION       0    3

  ZNUC SCFIT  TOTAL HF ENERGY   KINETIC ENERGY   VIRIAL THEOREM ACCURACY
   7.0   9   -5.432196661E+01  5.425066284E+01 -2.001314339E+00  1.2E-06

 NUCLEAR CHARGE 17.0  SYMMETRY SPECIES            S    P
 N. ELECTRONS   17.0  NUMBER OF PRIMITIVE GTOS   10    7
                      NUMBER OF CONTRACTED GTOS   4    3
                      NUMBER OF CLOSED SHELLS     3    1
                      OPEN SHELL OCCUPATION       0    5

  ZNUC SCFIT  TOTAL HF ENERGY   KINETIC ENERGY   VIRIAL THEOREM ACCURACY
  17.0   9   -4.593005957E+02  4.593991532E+02 -1.999785464E+00  2.3E-06

 NUCLEAR CHARGE 30.0  SYMMETRY SPECIES            S    P    D
 N. ELECTRONS   30.0  NUMBER OF PRIMITIVE GTOS   14    9    5
                      NUMBER OF CONTRACTED GTOS   5    3    2
                      NUMBER OF CLOSED SHELLS     4    2    1
                      OPEN SHELL OCCUPATION       0    0    0

  ZNUC SCFIT  TOTAL HF ENERGY   KINETIC ENERGY   VIRIAL THEOREM ACCURACY
  30.0  10   -1.777404290E+03  1.777325716E+03 -2.000044209E+00  2.5E-06

 AAAAAAAAAAAAAAAAAAAAAAAAAAAAAAAAAAAAAAAAAAAAAAAAAAAAAAAAAAAAAAAAAAAAAAAAAAAAAAA

 TOTAL ATOMIC CHARGES:
   1.0000000   1.0000000   1.0000000   1.0000000   6.0000000   6.0000000
   6.0000000   6.0000000   6.0000000   6.0000000   6.0000000   6.0000000
   6.0000000   6.0000000   6.0000000   6.0000000   6.0000000   6.0000000
   6.0000000   6.0000000   6.0000000   6.0000000   6.0000000   6.0000000
   6.0000000   6.0000000   6.0000000   6.0000000   7.0000000   7.0000000
   7.0000000   7.0000000   7.0000000   7.0000000   7.0000000   7.0000000
   7.0000000   7.0000000   7.0000000   7.0000000   7.0000000   7.0000000
   7.0000000   7.0000000   7.0000000   7.0000000   7.0000000   7.0000000
  17.0000000  17.0000000  17.0000000  17.0000000  17.0000000  17.0000000
  17.0000000  17.0000000  17.0000000  17.0000000  17.0000000  17.0000000
  30.0000000  30.0000000
 TTTTTTTTTTTTTTTTTTTTTTTTTTTTTT MOQGAD      TELAPSE        9.17 TCPU        4.78
 TTTTTTTTTTTTTTTTTTTTTTTTTTTTTT SHELLXN     TELAPSE       74.69 TCPU       61.75
 TTTTTTTTTTTTTTTTTTTTTTTTTTTTTT MONMO3      TELAPSE       79.77 TCPU       66.81
 NUMERICALLY INTEGRATED DENSITY    551.9998956026
 TTTTTTTTTTTTTTTTTTTTTTTTTTTTTT NUMDFT      TELAPSE       81.94 TCPU       68.97
 CYC   0 ETOT(AU) -1.108905950726E+04 DETOT -1.11E+04 tst  0.00E+00 PX  1.00E+00
 TTTTTTTTTTTTTTTTTTTTTTTTTTTTTT DIIS        TELAPSE       82.03 TCPU       69.06
 TTTTTTTTTTTTTTTTTTTTTTTTTTTTTT FDIK        TELAPSE      138.65 TCPU      117.54
 INSULATING STATE
 TOP OF VALENCE BANDS -    BAND    276; K    3; EIG -1.2856128E-01 AU
 TOP OF VALENCE BANDS -    BAND    276; K    1; EIG -1.3006914E-01 AU
 BOTTOM OF VIRTUAL BANDS - BAND    277; K    1; EIG -8.9113609E-02 AU
 INDIRECT ENERGY BAND GAP:   1.0734 eV
 TTTTTTTTTTTTTTTTTTTTTTTTTTTTTT PDIG        TELAPSE      139.53 TCPU      118.42
 TOTAL ATOMIC CHARGES:
   1.2700805   1.2700805   1.2700805   1.2700805   6.3708522   6.3708522
   6.3708522   6.3708522   5.5089738   5.5089738   5.5089738   5.5089738
   5.3545419   5.3545419   5.3545419   5.3545419   5.0300286   5.0300286
   5.0300286   5.0300286   5.0550771   5.0550771   5.0550771   5.0550771
   6.5011157   6.5011157   6.5011157   6.5011157   7.4567693   7.4567693
   7.4567693   7.4567693   7.2126936   7.2126936   7.2126936   7.2126936
   7.4545797   7.4545797   7.4545797   7.4545797   7.1488774   7.1488774
   7.1488774   7.1488774   7.6539604   7.6539604   7.6539604   7.6539604
  17.3136261  17.3136261  17.3136261  17.3136261  17.3351000  17.3351000
  17.3351000  17.3351000  17.3182967  17.3182967  17.3182967  17.3182967
  28.0359370  28.0257715
 TTTTTTTTTTTTTTTTTTTTTTTTTTTTTT MOQGAD      TELAPSE      139.58 TCPU      118.47
 TTTTTTTTTTTTTTTTTTTTTTTTTTTTTT SHELLXN     TELAPSE      211.21 TCPU      185.08
 TTTTTTTTTTTTTTTTTTTTTTTTTTTTTT MONMO3      TELAPSE      215.13 TCPU      188.59
 NUMERICALLY INTEGRATED DENSITY    551.9999453888
 TTTTTTTTTTTTTTTTTTTTTTTTTTTTTT NUMDFT      TELAPSE      220.98 TCPU      194.25
 CYC   1 ETOT(AU) -1.108326403095E+04 DETOT  5.80E+00 tst  0.00E+00 PX  1.00E+00
 TTTTTTTTTTTTTTTTTTTTTTTTTTTTTT DIIS        TELAPSE      221.17 TCPU      194.44
 DIIS TEST: 0.85296E+01 AT SCF   CYCLE   1 - MIX   30 %
 TTTTTTTTTTTTTTTTTTTTTTTTTTTTTT FDIK        TELAPSE      239.32 TCPU      211.08
 INSULATING STATE
 TOP OF VALENCE BANDS -    BAND    276; K    6; EIG -1.7425930E-01 AU
 TOP OF VALENCE BANDS -    BAND    276; K    1; EIG -1.7430963E-01 AU
 BOTTOM OF VIRTUAL BANDS - BAND    277; K    1; EIG -1.2772983E-01 AU
 INDIRECT ENERGY BAND GAP:   1.2661 eV
 TTTTTTTTTTTTTTTTTTTTTTTTTTTTTT PDIG        TELAPSE      240.20 TCPU      211.95
 TOTAL ATOMIC CHARGES:
   1.2420395   1.2420395   1.2420395   1.2420395   6.1956268   6.1956268
   6.1956268   6.1956268   6.3901937   6.3901937   6.3901937   6.3901937
   6.1367319   6.1367319   6.1367319   6.1367319   6.0563833   6.0563833
   6.0563833   6.0563833   6.1921849   6.1921849   6.1921849   6.1921849
   5.9037442   5.9037442   5.9037442   5.9037442   6.8623136   6.8623136
   6.8623136   6.8623136   6.9608228   6.9608228   6.9608228   6.9608228
   6.9070635   6.9070635   6.9070635   6.9070635   6.8729143   6.8729143
   6.8729143   6.8729143   6.0688453   6.0688453   6.0688453   6.0688453
  17.1715815  17.1715815  17.1715815  17.1715815  17.2117378  17.2117378
  17.2117378  17.2117378  17.1150521  17.1150521  17.1150521  17.1150521
  29.4183040  29.4327555
 TTTTTTTTTTTTTTTTTTTTTTTTTTTTTT MOQGAD      TELAPSE      240.24 TCPU      212.00
 TTTTTTTTTTTTTTTTTTTTTTTTTTTTTT SHELLXN     TELAPSE      309.04 TCPU      278.51
 TTTTTTTTTTTTTTTTTTTTTTTTTTTTTT MONMO3      TELAPSE      315.07 TCPU      284.52
 NUMERICALLY INTEGRATED DENSITY    551.9999420702
 TTTTTTTTTTTTTTTTTTTTTTTTTTTTTT NUMDFT      TELAPSE      320.77 TCPU      290.18
 CYC   2 ETOT(AU) -1.108216424358E+04 DETOT  1.10E+00 tst  1.55E-02 PX  5.83E-01
 TTTTTTTTTTTTTTTTTTTTTTTTTTTTTT DIIS        TELAPSE      320.97 TCPU      290.38
 DIIS TEST: 0.15474E+02 AT SCF   CYCLE   2 - DIIS ACTIVE - HISTORY:     2 CYCLES
 TTTTTTTTTTTTTTTTTTTTTTTTTTTTTT FDIK        TELAPSE      337.58 TCPU      304.79
 INSULATING STATE
 TOP OF VALENCE BANDS -    BAND    276; K    1; EIG -2.2946079E-01 AU
 BOTTOM OF VIRTUAL BANDS - BAND    277; K    1; EIG -1.2269028E-01 AU
 DIRECT ENERGY BAND GAP:   2.9054 eV
 TTTTTTTTTTTTTTTTTTTTTTTTTTTTTT PDIG        TELAPSE      338.46 TCPU      305.66
 TOTAL ATOMIC CHARGES:
   1.2235346   1.2235346   1.2235346   1.2235346   6.0554602   6.0554602
   6.0554602   6.0554602   5.8465639   5.8465639   5.8465639   5.8465639
   5.5786467   5.5786467   5.5786467   5.5786467   5.6830869   5.6830869
   5.6830869   5.6830869   5.5634348   5.5634348   5.5634348   5.5634348
   6.1654179   6.1654179   6.1654179   6.1654179   7.1328267   7.1328267
   7.1328267   7.1328267   7.1437057   7.1437057   7.1437057   7.1437057
   7.1199302   7.1199302   7.1199302   7.1199302   7.0862460   7.0862460
   7.0862460   7.0862460   7.3594077   7.3594077   7.3594077   7.3594077
  17.2164757  17.2164757  17.2164757  17.2164757  17.1661684  17.1661684
  17.1661684  17.1661684  17.1423855  17.1423855  17.1423855  17.1423855
  29.0147640  29.0520722
 TTTTTTTTTTTTTTTTTTTTTTTTTTTTTT MOQGAD      TELAPSE      338.51 TCPU      305.71
 TTTTTTTTTTTTTTTTTTTTTTTTTTTTTT SHELLXN     TELAPSE      407.59 TCPU      372.36
 TTTTTTTTTTTTTTTTTTTTTTTTTTTTTT MONMO3      TELAPSE      411.54 TCPU      376.30
 NUMERICALLY INTEGRATED DENSITY    551.9999481580
 TTTTTTTTTTTTTTTTTTTTTTTTTTTTTT NUMDFT      TELAPSE      417.22 TCPU      381.95
 CYC   3 ETOT(AU) -1.108463623935E+04 DETOT -2.47E+00 tst  5.58E-03 PX  4.18E-01
 TTTTTTTTTTTTTTTTTTTTTTTTTTTTTT DIIS        TELAPSE      417.42 TCPU      382.15
 DIIS TEST: 0.20575E+01 AT SCF   CYCLE   3 - DIIS ACTIVE - HISTORY:     3 CYCLES
 TTTTTTTTTTTTTTTTTTTTTTTTTTTTTT FDIK        TELAPSE      436.79 TCPU      396.63
 INSULATING STATE
 TOP OF VALENCE BANDS -    BAND    276; K    4; EIG -2.3461178E-01 AU
 TOP OF VALENCE BANDS -    BAND    276; K    1; EIG -2.3527356E-01 AU
 BOTTOM OF VIRTUAL BANDS - BAND    277; K    1; EIG -1.2297341E-01 AU
 INDIRECT ENERGY BAND GAP:   3.0378 eV
 TTTTTTTTTTTTTTTTTTTTTTTTTTTTTT PDIG        TELAPSE      437.67 TCPU      397.51
 TOTAL ATOMIC CHARGES:
   1.2374920   1.2374920   1.2374920   1.2374920   6.3090785   6.3090785
   6.3090785   6.3090785   5.8591351   5.8591351   5.8591351   5.8591351
   5.7154644   5.7154644   5.7154644   5.7154644   5.3992801   5.3992801
   5.3992801   5.3992801   5.4850529   5.4850529   5.4850529   5.4850529
   6.3068242   6.3068242   6.3068242   6.3068242   7.2179729   7.2179729
   7.2179729   7.2179729   7.1129141   7.1129141   7.1129141   7.1129141
   7.2279891   7.2279891   7.2279891   7.2279891   7.0292602   7.0292602
   7.0292602   7.0292602   7.0314232   7.0314232   7.0314232   7.0314232
  17.2288527  17.2288527  17.2288527  17.2288527  17.2372730  17.2372730
  17.2372730  17.2372730  17.2024367  17.2024367  17.2024367  17.2024367
  28.7904488  28.8077545
 TTTTTTTTTTTTTTTTTTTTTTTTTTTTTT MOQGAD      TELAPSE      437.71 TCPU      397.55
 TTTTTTTTTTTTTTTTTTTTTTTTTTTTTT SHELLXN     TELAPSE      506.58 TCPU      464.17
 TTTTTTTTTTTTTTTTTTTTTTTTTTTTTT MONMO3      TELAPSE      512.59 TCPU      470.17
 NUMERICALLY INTEGRATED DENSITY    551.9999452696
 TTTTTTTTTTTTTTTTTTTTTTTTTTTTTT NUMDFT      TELAPSE      518.30 TCPU      475.85
 CYC   4 ETOT(AU) -1.108487946470E+04 DETOT -2.43E-01 tst  2.63E-03 PX  1.38E-01
 TTTTTTTTTTTTTTTTTTTTTTTTTTTTTT DIIS        TELAPSE      518.50 TCPU      476.05
 DIIS TEST: 0.52960E+00 AT SCF   CYCLE   4 - DIIS ACTIVE - HISTORY:     4 CYCLES
 TTTTTTTTTTTTTTTTTTTTTTTTTTTTTT FDIK        TELAPSE      535.33 TCPU      490.71
 INSULATING STATE
 TOP OF VALENCE BANDS -    BAND    276; K    4; EIG -2.3882004E-01 AU
 TOP OF VALENCE BANDS -    BAND    276; K    1; EIG -2.3974439E-01 AU
 BOTTOM OF VIRTUAL BANDS - BAND    277; K    1; EIG -1.2640166E-01 AU
 INDIRECT ENERGY BAND GAP:   3.0591 eV
 TTTTTTTTTTTTTTTTTTTTTTTTTTTTTT PDIG        TELAPSE      536.21 TCPU      491.58
 TOTAL ATOMIC CHARGES:
   1.2319120   1.2319120   1.2319120   1.2319120   6.2364885   6.2364885
   6.2364885   6.2364885   5.8888842   5.8888842   5.8888842   5.8888842
   5.6663876   5.6663876   5.6663876   5.6663876   5.5308449   5.5308449
   5.5308449   5.5308449   5.5839202   5.5839202   5.5839202   5.5839202
   6.2260939   6.2260939   6.2260939   6.2260939   7.1622061   7.1622061
   7.1622061   7.1622061   7.1356393   7.1356393   7.1356393   7.1356393
   7.1646479   7.1646479   7.1646479   7.1646479   7.0428104   7.0428104
   7.0428104   7.0428104   7.1062368   7.1062368   7.1062368   7.1062368
  17.2252322  17.2252322  17.2252322  17.2252322  17.2214277  17.2214277
  17.2214277  17.2214277  17.1890167  17.1890167  17.1890167  17.1890167
  28.7686776  28.7843281
 TTTTTTTTTTTTTTTTTTTTTTTTTTTTTT MOQGAD      TELAPSE      536.25 TCPU      491.63
 TTTTTTTTTTTTTTTTTTTTTTTTTTTTTT SHELLXN     TELAPSE      604.21 TCPU      558.27
 TTTTTTTTTTTTTTTTTTTTTTTTTTTTTT MONMO3      TELAPSE      609.88 TCPU      563.92
 NUMERICALLY INTEGRATED DENSITY    551.9999458092
 TTTTTTTTTTTTTTTTTTTTTTTTTTTTTT NUMDFT      TELAPSE      615.60 TCPU      569.62
 CYC   5 ETOT(AU) -1.108494696010E+04 DETOT -6.75E-02 tst  5.20E-04 PX  4.41E-02
 TTTTTTTTTTTTTTTTTTTTTTTTTTTTTT DIIS        TELAPSE      615.81 TCPU      569.83
 DIIS TEST: 0.63705E-01 AT SCF   CYCLE   5 - DIIS ACTIVE - HISTORY:     5 CYCLES
 TTTTTTTTTTTTTTTTTTTTTTTTTTTTTT FDIK        TELAPSE      630.79 TCPU      582.63
 INSULATING STATE
 TOP OF VALENCE BANDS -    BAND    276; K    4; EIG -2.3652308E-01 AU
 TOP OF VALENCE BANDS -    BAND    276; K    1; EIG -2.3677511E-01 AU
 BOTTOM OF VIRTUAL BANDS - BAND    277; K    1; EIG -1.2464875E-01 AU
 INDIRECT ENERGY BAND GAP:   3.0443 eV
 TTTTTTTTTTTTTTTTTTTTTTTTTTTTTT PDIG        TELAPSE      631.67 TCPU      583.51
 TOTAL ATOMIC CHARGES:
   1.2335130   1.2335130   1.2335130   1.2335130   6.2241093   6.2241093
   6.2241093   6.2241093   5.8618226   5.8618226   5.8618226   5.8618226
   5.6786063   5.6786063   5.6786063   5.6786063   5.5152649   5.5152649
   5.5152649   5.5152649   5.5272416   5.5272416   5.5272416   5.5272416
   6.2455239   6.2455239   6.2455239   6.2455239   7.1794869   7.1794869
   7.1794869   7.1794869   7.1151444   7.1151444   7.1151444   7.1151444
   7.1978451   7.1978451   7.1978451   7.1978451   7.0531156   7.0531156
   7.0531156   7.0531156   7.1119611   7.1119611   7.1119611   7.1119611
  17.2341758  17.2341758  17.2341758  17.2341758  17.2308581  17.2308581
  17.2308581  17.2308581  17.1872079  17.1872079  17.1872079  17.1872079
  28.7989507  28.8175431
 TTTTTTTTTTTTTTTTTTTTTTTTTTTTTT MOQGAD      TELAPSE      631.72 TCPU      583.55
 TTTTTTTTTTTTTTTTTTTTTTTTTTTTTT SHELLXN     TELAPSE      700.75 TCPU      650.28
 TTTTTTTTTTTTTTTTTTTTTTTTTTTTTT MONMO3      TELAPSE      707.76 TCPU      657.27
 NUMERICALLY INTEGRATED DENSITY    551.9999458090
 TTTTTTTTTTTTTTTTTTTTTTTTTTTTTT NUMDFT      TELAPSE      713.45 TCPU      662.95
 CYC   6 ETOT(AU) -1.108495622337E+04 DETOT -9.26E-03 tst  1.93E-05 PX  3.67E-02
 TTTTTTTTTTTTTTTTTTTTTTTTTTTTTT DIIS        TELAPSE      713.66 TCPU      663.15
 DIIS TEST: 0.10488E-01 AT SCF   CYCLE   6 - DIIS ACTIVE - HISTORY:     6 CYCLES
 TTTTTTTTTTTTTTTTTTTTTTTTTTTTTT FDIK        TELAPSE      731.65 TCPU      678.94
 INSULATING STATE
 TOP OF VALENCE BANDS -    BAND    276; K    4; EIG -2.3657475E-01 AU
 TOP OF VALENCE BANDS -    BAND    276; K    1; EIG -2.3714762E-01 AU
 BOTTOM OF VIRTUAL BANDS - BAND    277; K    1; EIG -1.2541096E-01 AU
 INDIRECT ENERGY BAND GAP:   3.0249 eV
 TTTTTTTTTTTTTTTTTTTTTTTTTTTTTT PDIG        TELAPSE      732.53 TCPU      679.81
 TOTAL ATOMIC CHARGES:
   1.2325733   1.2325733   1.2325733   1.2325733   6.2269559   6.2269559
   6.2269559   6.2269559   5.8804705   5.8804705   5.8804705   5.8804705
   5.6747241   5.6747241   5.6747241   5.6747241   5.5108194   5.5108194
   5.5108194   5.5108194   5.5549025   5.5549025   5.5549025   5.5549025
   6.2377582   6.2377582   6.2377582   6.2377582   7.1886747   7.1886747
   7.1886747   7.1886747   7.1375270   7.1375270   7.1375270   7.1375270
   7.1685193   7.1685193   7.1685193   7.1685193   7.0358733   7.0358733
   7.0358733   7.0358733   7.1133325   7.1133325   7.1133325   7.1133325
  17.2255080  17.2255080  17.2255080  17.2255080  17.2209321  17.2209321
  17.2209321  17.2209321  17.1857501  17.1857501  17.1857501  17.1857501
  28.8040387  28.8186779
 TTTTTTTTTTTTTTTTTTTTTTTTTTTTTT MOQGAD      TELAPSE      732.58 TCPU      679.86
 TTTTTTTTTTTTTTTTTTTTTTTTTTTTTT SHELLXN     TELAPSE      801.50 TCPU      746.49
 TTTTTTTTTTTTTTTTTTTTTTTTTTTTTT MONMO3      TELAPSE      807.49 TCPU      752.46
 NUMERICALLY INTEGRATED DENSITY    551.9999453823
 TTTTTTTTTTTTTTTTTTTTTTTTTTTTTT NUMDFT      TELAPSE      813.18 TCPU      758.13
 CYC   7 ETOT(AU) -1.108495660623E+04 DETOT -3.83E-04 tst  9.21E-06 PX  9.46E-03
 TTTTTTTTTTTTTTTTTTTTTTTTTTTTTT DIIS        TELAPSE      813.38 TCPU      758.33
 DIIS TEST: 0.10690E-01 AT SCF   CYCLE   7 - DIIS ACTIVE - HISTORY:     7 CYCLES
 TTTTTTTTTTTTTTTTTTTTTTTTTTTTTT FDIK        TELAPSE      827.38 TCPU      772.06
 INSULATING STATE
 TOP OF VALENCE BANDS -    BAND    276; K    4; EIG -2.3653765E-01 AU
 TOP OF VALENCE BANDS -    BAND    276; K    1; EIG -2.3698289E-01 AU
 BOTTOM OF VIRTUAL BANDS - BAND    277; K    1; EIG -1.2510794E-01 AU
 INDIRECT ENERGY BAND GAP:   3.0322 eV
 TTTTTTTTTTTTTTTTTTTTTTTTTTTTTT PDIG        TELAPSE      828.25 TCPU      772.94
 TOTAL ATOMIC CHARGES:
   1.2322742   1.2322742   1.2322742   1.2322742   6.2239081   6.2239081
   6.2239081   6.2239081   5.8774916   5.8774916   5.8774916   5.8774916
   5.6755614   5.6755614   5.6755614   5.6755614   5.5223051   5.5223051
   5.5223051   5.5223051   5.5512309   5.5512309   5.5512309   5.5512309
   6.2407523   6.2407523   6.2407523   6.2407523   7.1680827   7.1680827
   7.1680827   7.1680827   7.1183700   7.1183700   7.1183700   7.1183700
   7.1898812   7.1898812   7.1898812   7.1898812   7.0529434   7.0529434
   7.0529434   7.0529434   7.1079444   7.1079444   7.1079444   7.1079444
  17.2292924  17.2292924  17.2292924  17.2292924  17.2201063  17.2201063
  17.2201063  17.2201063  17.1846382  17.1846382  17.1846382  17.1846382
  28.8013180  28.8195526
 TTTTTTTTTTTTTTTTTTTTTTTTTTTTTT MOQGAD      TELAPSE      828.30 TCPU      772.98
 TTTTTTTTTTTTTTTTTTTTTTTTTTTTTT SHELLXN     TELAPSE      897.19 TCPU      839.60
 TTTTTTTTTTTTTTTTTTTTTTTTTTTTTT MONMO3      TELAPSE      903.42 TCPU      845.81
 NUMERICALLY INTEGRATED DENSITY    551.9999458883
 TTTTTTTTTTTTTTTTTTTTTTTTTTTTTT NUMDFT      TELAPSE      909.13 TCPU      851.50
 CYC   8 ETOT(AU) -1.108495780643E+04 DETOT -1.20E-03 tst  4.88E-06 PX  5.94E-03
 TTTTTTTTTTTTTTTTTTTTTTTTTTTTTT DIIS        TELAPSE      909.35 TCPU      851.72
 DIIS TEST: 0.24352E-02 AT SCF   CYCLE   8 - DIIS ACTIVE - HISTORY:     8 CYCLES
 TTTTTTTTTTTTTTTTTTTTTTTTTTTTTT FDIK        TELAPSE      924.58 TCPU      864.76
 INSULATING STATE
 TOP OF VALENCE BANDS -    BAND    276; K    4; EIG -2.3675046E-01 AU
 TOP OF VALENCE BANDS -    BAND    276; K    1; EIG -2.3721201E-01 AU
 BOTTOM OF VIRTUAL BANDS - BAND    277; K    1; EIG -1.2519611E-01 AU
 INDIRECT ENERGY BAND GAP:   3.0355 eV
 TTTTTTTTTTTTTTTTTTTTTTTTTTTTTT PDIG        TELAPSE      925.45 TCPU      865.64
 TOTAL ATOMIC CHARGES:
   1.2322727   1.2322727   1.2322727   1.2322727   6.2245838   6.2245838
   6.2245838   6.2245838   5.8694126   5.8694126   5.8694126   5.8694126
   5.6749531   5.6749531   5.6749531   5.6749531   5.5222360   5.5222360
   5.5222360   5.5222360   5.5456568   5.5456568   5.5456568   5.5456568
   6.2402547   6.2402547   6.2402547   6.2402547   7.1825797   7.1825797
   7.1825797   7.1825797   7.1228458   7.1228458   7.1228458   7.1228458
   7.1852739   7.1852739   7.1852739   7.1852739   7.0436880   7.0436880
   7.0436880   7.0436880   7.1075081   7.1075081   7.1075081   7.1075081
  17.2303118  17.2303118  17.2303118  17.2303118  17.2260021  17.2260021
  17.2260021  17.2260021  17.1864091  17.1864091  17.1864091  17.1864091
  28.8031749  28.8208717
 TTTTTTTTTTTTTTTTTTTTTTTTTTTTTT MOQGAD      TELAPSE      925.50 TCPU      865.68
 TTTTTTTTTTTTTTTTTTTTTTTTTTTTTT SHELLXN     TELAPSE      994.52 TCPU      932.30
 TTTTTTTTTTTTTTTTTTTTTTTTTTTTTT MONMO3      TELAPSE     1000.65 TCPU      938.42
 NUMERICALLY INTEGRATED DENSITY    551.9999458065
 TTTTTTTTTTTTTTTTTTTTTTTTTTTTTT NUMDFT      TELAPSE     1006.31 TCPU      944.06
 CYC   9 ETOT(AU) -1.108495812615E+04 DETOT -3.20E-04 tst  1.45E-06 PX  3.84E-03
 TTTTTTTTTTTTTTTTTTTTTTTTTTTTTT DIIS        TELAPSE     1006.54 TCPU      944.29
 DIIS TEST: 0.48167E-03 AT SCF   CYCLE   9 - DIIS ACTIVE - HISTORY:     9 CYCLES
 TTTTTTTTTTTTTTTTTTTTTTTTTTTTTT FDIK        TELAPSE     1022.33 TCPU      957.90
 INSULATING STATE
 TOP OF VALENCE BANDS -    BAND    276; K    4; EIG -2.3672262E-01 AU
 TOP OF VALENCE BANDS -    BAND    276; K    1; EIG -2.3720639E-01 AU
 BOTTOM OF VIRTUAL BANDS - BAND    277; K    1; EIG -1.2521663E-01 AU
 INDIRECT ENERGY BAND GAP:   3.0342 eV
 TTTTTTTTTTTTTTTTTTTTTTTTTTTTTT PDIG        TELAPSE     1023.21 TCPU      958.77
 TOTAL ATOMIC CHARGES:
   1.2322267   1.2322267   1.2322267   1.2322267   6.2268578   6.2268578
   6.2268578   6.2268578   5.8732150   5.8732150   5.8732150   5.8732150
   5.6752942   5.6752942   5.6752942   5.6752942   5.5167241   5.5167241
   5.5167241   5.5167241   5.5467077   5.5467077   5.5467077   5.5467077
   6.2387464   6.2387464   6.2387464   6.2387464   7.1768116   7.1768116
   7.1768116   7.1768116   7.1231327   7.1231327   7.1231327   7.1231327
   7.1851533   7.1851533   7.1851533   7.1851533   7.0470876   7.0470876
   7.0470876   7.0470876   7.1116938   7.1116938   7.1116938   7.1116938
  17.2298850  17.2298850  17.2298850  17.2298850  17.2237937  17.2237937
  17.2237937  17.2237937  17.1866043  17.1866043  17.1866043  17.1866043
  28.8033028  28.8209609
 TTTTTTTTTTTTTTTTTTTTTTTTTTTTTT MOQGAD      TELAPSE     1023.25 TCPU      958.82
 TTTTTTTTTTTTTTTTTTTTTTTTTTTTTT SHELLXN     TELAPSE     1091.41 TCPU     1025.56
 TTTTTTTTTTTTTTTTTTTTTTTTTTTTTT MONMO3      TELAPSE     1095.82 TCPU     1029.95
 NUMERICALLY INTEGRATED DENSITY    551.9999457382
 TTTTTTTTTTTTTTTTTTTTTTTTTTTTTT NUMDFT      TELAPSE     1101.50 TCPU     1035.59
 CYC  10 ETOT(AU) -1.108495818673E+04 DETOT -6.06E-05 tst  2.35E-07 PX  1.62E-03
 TTTTTTTTTTTTTTTTTTTTTTTTTTTTTT DIIS        TELAPSE     1101.72 TCPU     1035.81
 DIIS TEST: 0.13438E-03 AT SCF   CYCLE  10 - DIIS ACTIVE - HISTORY:    10 CYCLES
 TTTTTTTTTTTTTTTTTTTTTTTTTTTTTT FDIK        TELAPSE     1116.94 TCPU     1048.87
 INSULATING STATE
 TOP OF VALENCE BANDS -    BAND    276; K    4; EIG -2.3671743E-01 AU
 TOP OF VALENCE BANDS -    BAND    276; K    1; EIG -2.3716300E-01 AU
 BOTTOM OF VIRTUAL BANDS - BAND    277; K    1; EIG -1.2523297E-01 AU
 INDIRECT ENERGY BAND GAP:   3.0336 eV
 TTTTTTTTTTTTTTTTTTTTTTTTTTTTTT PDIG        TELAPSE     1117.81 TCPU     1049.74
 TOTAL ATOMIC CHARGES:
   1.2321236   1.2321236   1.2321236   1.2321236   6.2241538   6.2241538
   6.2241538   6.2241538   5.8740552   5.8740552   5.8740552   5.8740552
   5.6755585   5.6755585   5.6755585   5.6755585   5.5196651   5.5196651
   5.5196651   5.5196651   5.5472404   5.5472404   5.5472404   5.5472404
   6.2410918   6.2410918   6.2410918   6.2410918   7.1779039   7.1779039
   7.1779039   7.1779039   7.1237154   7.1237154   7.1237154   7.1237154
   7.1842326   7.1842326   7.1842326   7.1842326   7.0465146   7.0465146
   7.0465146   7.0465146   7.1098442   7.1098442   7.1098442   7.1098442
  17.2293918  17.2293918  17.2293918  17.2293918  17.2232567  17.2232567
  17.2232567  17.2232567  17.1856415  17.1856415  17.1856415  17.1856415
  28.8024577  28.8199849
 TTTTTTTTTTTTTTTTTTTTTTTTTTTTTT MOQGAD      TELAPSE     1117.86 TCPU     1049.79
 TTTTTTTTTTTTTTTTTTTTTTTTTTTTTT SHELLXN     TELAPSE     1187.00 TCPU     1116.57
 TTTTTTTTTTTTTTTTTTTTTTTTTTTTTT MONMO3      TELAPSE     1192.79 TCPU     1122.34
 NUMERICALLY INTEGRATED DENSITY    551.9999457545
 TTTTTTTTTTTTTTTTTTTTTTTTTTTTTT NUMDFT      TELAPSE     1198.50 TCPU     1128.04
 CYC  11 ETOT(AU) -1.108495819974E+04 DETOT -1.30E-05 tst  7.72E-08 PX  8.12E-04
 TTTTTTTTTTTTTTTTTTTTTTTTTTTTTT DIIS        TELAPSE     1198.72 TCPU     1128.26
 DIIS TEST: 0.36620E-04 AT SCF   CYCLE  11 - DIIS ACTIVE - HISTORY:    11 CYCLES
 TTTTTTTTTTTTTTTTTTTTTTTTTTTTTT FDIK        TELAPSE     1214.47 TCPU     1141.85
 INSULATING STATE
 TOP OF VALENCE BANDS -    BAND    276; K    4; EIG -2.3668267E-01 AU
 TOP OF VALENCE BANDS -    BAND    276; K    1; EIG -2.3715508E-01 AU
 BOTTOM OF VIRTUAL BANDS - BAND    277; K    1; EIG -1.2520846E-01 AU
 INDIRECT ENERGY BAND GAP:   3.0334 eV
 TTTTTTTTTTTTTTTTTTTTTTTTTTTTTT PDIG        TELAPSE     1215.35 TCPU     1142.73
 TOTAL ATOMIC CHARGES:
   1.2322820   1.2322820   1.2322820   1.2322820   6.2253336   6.2253336
   6.2253336   6.2253336   5.8726851   5.8726851   5.8726851   5.8726851
   5.6751924   5.6751924   5.6751924   5.6751924   5.5191393   5.5191393
   5.5191393   5.5191393   5.5475521   5.5475521   5.5475521   5.5475521
   6.2393431   6.2393431   6.2393431   6.2393431   7.1787012   7.1787012
   7.1787012   7.1787012   7.1228661   7.1228661   7.1228661   7.1228661
   7.1854683   7.1854683   7.1854683   7.1854683   7.0461407   7.0461407
   7.0461407   7.0461407   7.1098760   7.1098760   7.1098760   7.1098760
  17.2297455  17.2297455  17.2297455  17.2297455  17.2236473  17.2236473
  17.2236473  17.2236473  17.1862249  17.1862249  17.1862249  17.1862249
  28.8027474  28.8204624
 TTTTTTTTTTTTTTTTTTTTTTTTTTTTTT MOQGAD      TELAPSE     1215.40 TCPU     1142.78
 TTTTTTTTTTTTTTTTTTTTTTTTTTTTTT SHELLXN     TELAPSE     1284.46 TCPU     1209.52
 TTTTTTTTTTTTTTTTTTTTTTTTTTTTTT MONMO3      TELAPSE     1289.88 TCPU     1214.93
 NUMERICALLY INTEGRATED DENSITY    551.9999457546
 TTTTTTTTTTTTTTTTTTTTTTTTTTTTTT NUMDFT      TELAPSE     1295.57 TCPU     1220.60
 CYC  12 ETOT(AU) -1.108495820352E+04 DETOT -3.78E-06 tst  2.66E-08 PX  5.85E-04
 TTTTTTTTTTTTTTTTTTTTTTTTTTTTTT DIIS        TELAPSE     1295.79 TCPU     1220.82
 DIIS TEST: 0.13080E-04 AT SCF   CYCLE  12 - DIIS ACTIVE - HISTORY:    12 CYCLES
 TTTTTTTTTTTTTTTTTTTTTTTTTTTTTT FDIK        TELAPSE     1312.30 TCPU     1236.20
 INSULATING STATE
 TOP OF VALENCE BANDS -    BAND    276; K    4; EIG -2.3670124E-01 AU
 TOP OF VALENCE BANDS -    BAND    276; K    1; EIG -2.3716429E-01 AU
 BOTTOM OF VIRTUAL BANDS - BAND    277; K    1; EIG -1.2519254E-01 AU
 INDIRECT ENERGY BAND GAP:   3.0343 eV
 TTTTTTTTTTTTTTTTTTTTTTTTTTTTTT PDIG        TELAPSE     1313.18 TCPU     1237.08
 TOTAL ATOMIC CHARGES:
   1.2322301   1.2322301   1.2322301   1.2322301   6.2254038   6.2254038
   6.2254038   6.2254038   5.8731720   5.8731720   5.8731720   5.8731720
   5.6754650   5.6754650   5.6754650   5.6754650   5.5188698   5.5188698
   5.5188698   5.5188698   5.5468077   5.5468077   5.5468077   5.5468077
   6.2400194   6.2400194   6.2400194   6.2400194   7.1777926   7.1777926
   7.1777926   7.1777926   7.1236270   7.1236270   7.1236270   7.1236270
   7.1843853   7.1843853   7.1843853   7.1843853   7.0464580   7.0464580
   7.0464580   7.0464580   7.1102562   7.1102562   7.1102562   7.1102562
  17.2296509  17.2296509  17.2296509  17.2296509  17.2237665  17.2237665
  17.2237665  17.2237665  17.1861698  17.1861698  17.1861698  17.1861698
  28.8030522  28.8206515
 TTTTTTTTTTTTTTTTTTTTTTTTTTTTTT MOQGAD      TELAPSE     1313.23 TCPU     1237.12
 TTTTTTTTTTTTTTTTTTTTTTTTTTTTTT SHELLXN     TELAPSE     1381.33 TCPU     1303.86
 TTTTTTTTTTTTTTTTTTTTTTTTTTTTTT MONMO3      TELAPSE     1385.61 TCPU     1308.12
 NUMERICALLY INTEGRATED DENSITY    551.9999457562
 TTTTTTTTTTTTTTTTTTTTTTTTTTTTTT NUMDFT      TELAPSE     1391.32 TCPU     1313.82
 CYC  13 ETOT(AU) -1.108495820461E+04 DETOT -1.09E-06 tst  5.71E-09 PX  2.79E-04
 TTTTTTTTTTTTTTTTTTTTTTTTTTTTTT DIIS        TELAPSE     1391.55 TCPU     1314.04
 DIIS TEST: 0.49262E-05 AT SCF   CYCLE  13 - DIIS ACTIVE - HISTORY:    13 CYCLES
 TTTTTTTTTTTTTTTTTTTTTTTTTTTTTT FDIK        TELAPSE     1407.15 TCPU     1327.51
 INSULATING STATE
 TOP OF VALENCE BANDS -    BAND    276; K    4; EIG -2.3670691E-01 AU
[...]
 DIIS TEST: 0.66768E-02 AT CPHF  CYCLE   8 - DIIS ACTIVE - HISTORY:     8 CYCLES
 CYCLE   8   ALPHA 1571.855194  EPSILON    4.587410  DELTA    3.4026E-01
 TTTTTTTTTTTTTTTTTTTTTTTTTTTTTT MOQGAD      TELAPSE   139850.63 TCPU   138922.98
 TTTTTTTTTTTTTTTTTTTTTTTTTTTTTT CP_MONMON   TELAPSE   139879.56 TCPU   138951.83
 DIIS TEST: 0.60746E-03 AT CPHF  CYCLE   9 - DIIS ACTIVE - HISTORY:     9 CYCLES
 CYCLE   9   ALPHA 1571.880574  EPSILON    4.587468  DELTA    2.5380E-02
 TTTTTTTTTTTTTTTTTTTTTTTTTTTTTT MOQGAD      TELAPSE   141218.75 TCPU   140286.27
 TTTTTTTTTTTTTTTTTTTTTTTTTTTTTT CP_MONMON   TELAPSE   141247.78 TCPU   140315.20
 DIIS TEST: 0.10670E-03 AT CPHF  CYCLE  10 - DIIS ACTIVE - HISTORY:    10 CYCLES
 CYCLE  10   ALPHA 1571.854325  EPSILON    4.587408  DELTA   -2.6249E-02
 TTTTTTTTTTTTTTTTTTTTTTTTTTTTTT MOQGAD      TELAPSE   142586.02 TCPU   141648.92
 TTTTTTTTTTTTTTTTTTTTTTTTTTTTTT CP_MONMON   TELAPSE   142614.75 TCPU   141677.56
 DIIS TEST: 0.28892E-04 AT CPHF  CYCLE  11 - DIIS ACTIVE - HISTORY:    11 CYCLES
 CYCLE  11   ALPHA 1571.834366  EPSILON    4.587362  DELTA   -1.9959E-02
 TTTTTTTTTTTTTTTTTTTTTTTTTTTTTT MOQGAD      TELAPSE   143956.73 TCPU   143011.19
 TTTTTTTTTTTTTTTTTTTTTTTTTTTTTT CP_MONMON   TELAPSE   143985.66 TCPU   143040.04
 DIIS TEST: 0.95729E-05 AT CPHF  CYCLE  12 - DIIS ACTIVE - HISTORY:    12 CYCLES
 CYCLE  12   ALPHA 1571.828533  EPSILON    4.587349  DELTA   -5.8333E-03
 TTTTTTTTTTTTTTTTTTTTTTTTTTTTTT MOQGAD      TELAPSE   145327.98 TCPU   144373.87
 TTTTTTTTTTTTTTTTTTTTTTTTTTTTTT CP_MONMON   TELAPSE   145356.82 TCPU   144402.62
 DIIS TEST: 0.34550E-05 AT CPHF  CYCLE  13 - DIIS ACTIVE - HISTORY:    13 CYCLES
 CYCLE  13   ALPHA 1571.825169  EPSILON    4.587341  DELTA   -3.3637E-03
 TTTTTTTTTTTTTTTTTTTTTTTTTTTTTT MOQGAD      TELAPSE   146694.59 TCPU   145730.64
 TTTTTTTTTTTTTTTTTTTTTTTTTTTTTT CP_MONMON   TELAPSE   146723.34 TCPU   145759.32
 DIIS TEST: 0.14329E-06 AT CPHF  CYCLE  14 - DIIS ACTIVE - HISTORY:    14 CYCLES
 CYCLE  14   ALPHA 1571.824282  EPSILON    4.587339  DELTA   -8.8695E-04
 TTTTTTTTTTTTTTTTTTTTTTTTTTTTTT CP_SC       TELAPSE   146873.84 TCPU   145906.51

 *******************************************************************************

 ELECTRIC FIELD APPLIED ALONG CARTESIAN DIRECTION Z

 *******************************************************************************
 THE NUMBER OF SYMMETRY OPERATORS HAS BEEN REDUCED FROM  4 TO  1

 NEW GRID IN RECIPROCAL SPACE
 *******************************************************************************
 POINTS IN THE IBZ                  14 SHRINKING FACTORS               3  3  3
 *******************************************************************************
 *** K POINTS COORDINATES (OBLIQUE COORDINATES IN UNITS OF SHRINK FAC. )
   1-R(  0  0  0)   2-C(  1  0  0)   3-C(  0  1  2)   4-C(  2  0  1)
   5-C(  0  2  0)   6-C(  1  1  0)   7-C(  1  1  1)   8-C(  1  0  1)
   9-C(  0  1  1)  10-C(  2  1  0)  11-C(  0  0  2)  12-C(  2  1  1)
  13-C(  2  1  2)  14-C(  2  2  1)

 GCALCO - MAX INDICES DIRECT LATTICE VECTOR    14    14    16
 NO.OF VECTORS CREATED 6999 STARS  484 RMAX   210.45286 BOHR
 TTTTTTTTTTTTTTTTTTTTTTTTTTTTTT gordsh1     TELAPSE   146927.27 TCPU   145959.35

 MATRIX SIZE: P(G) 1800952, F(G)  901124, P(G) IRR  902726, F(G) IRR  902726
 MAX G-VECTOR INDEX FOR 1- AND 2-ELECTRON INTEGRALS  59

 TTTTTTTTTTTTTTTTTTTTTTTTTTTTTT INPUT       TELAPSE   146983.08 TCPU   146014.76
 TTTTTTTTTTTTTTTTTTTTTTTTTTTTTT SYMM        TELAPSE   146983.08 TCPU   146014.76

 ***** NEW REFERENCE GEOMETRY *****
 TTTTTTTTTTTTTTTTTTTTTTTTTTTTTT INT_SCREEN  TELAPSE   146983.10 TCPU   146014.78
 INFORMATION **** EXCBUF **** EXCH. BIPO BUFFER: WORDS USED =           0

 DFT PARAMETERS

     ATOM       ELECTRONS   NET CHARGE   R(ANGSTROM)
   1   1  H       1.0000      0.0000     1.11000000
   5   6  C       6.0000      0.0000     0.77000000
  29   7  N       7.0000      0.0000     0.74000000
  49  17  CL     17.0000      0.0000     0.99000000
  61  30  ZN     30.0000      0.0000     1.37000000

 SIZE OF GRID=    1941668
 TTTTTTTTTTTTTTTTTTTTTTTTTTTTTT MAKE_GRID2  TELAPSE   146985.22 TCPU   146016.89
 BECKE WEIGHT FUNCTION
 RADSAFE =     2.00
 TOLERANCES - DENSITY:10**- 6; POTENTIAL:10**- 9; GRID WGT:10**-14

 RADIAL INTEGRATION  - INTERVALS (POINTS,UPPER LIMIT):            1( 75,  4.0*R)

 ANGULAR INTEGRATION - INTERVALS (ACCURACY LEVEL [N. POINTS] UPPER LIMIT):
  1(  4[  86]   0.2)  2(  8[ 194]   0.5)  3( 12[ 350]   0.9)  4( 16[ 974]   3.5)
  5( 12[ 350]9999.0)
 TTTTTTTTTTTTTTTTTTTTTTTTTTTTTT INT_CALC    TELAPSE   146985.33 TCPU   146017.00
 CYCLE   0   ALPHA  886.482646  EPSILON    3.023199  DELTA    8.8648E+02
 TTTTTTTTTTTTTTTTTTTTTTTTTTTTTT MOQGAD      TELAPSE   148303.11 TCPU   147329.88
 TTTTTTTTTTTTTTTTTTTTTTTTTTTTTT CP_MONMON   TELAPSE   148332.11 TCPU   147358.77
 DIIS TEST: 0.12713E+03 AT CPHF  CYCLE   1 - MIX    0 %
 CYCLE   1   ALPHA  402.337047  EPSILON    1.918245  DELTA   -4.8415E+02
 TTTTTTTTTTTTTTTTTTTTTTTTTTTTTT MOQGAD      TELAPSE   149689.83 TCPU   148708.65
 TTTTTTTTTTTTTTTTTTTTTTTTTTTTTT CP_MONMON   TELAPSE   149718.86 TCPU   148737.57
 DIIS TEST: 0.11042E+04 AT CPHF  CYCLE   2 - DIIS ACTIVE - HISTORY:     2 CYCLES
 CYCLE   2   ALPHA  641.487383  EPSILON    2.464052  DELTA    2.3915E+02
 TTTTTTTTTTTTTTTTTTTTTTTTTTTTTT MOQGAD      TELAPSE   151076.87 TCPU   150089.07
 TTTTTTTTTTTTTTTTTTTTTTTTTTTTTT CP_MONMON   TELAPSE   151106.14 TCPU   150118.26
 DIIS TEST: 0.34762E+02 AT CPHF  CYCLE   3 - DIIS ACTIVE - HISTORY:     3 CYCLES
 CYCLE   3   ALPHA  690.542348  EPSILON    2.576009  DELTA    4.9055E+01
 TTTTTTTTTTTTTTTTTTTTTTTTTTTTTT MOQGAD      TELAPSE   152467.93 TCPU   151471.83
 TTTTTTTTTTTTTTTTTTTTTTTTTTTTTT CP_MONMON   TELAPSE   152497.01 TCPU   151500.79
 DIIS TEST: 0.59556E+01 AT CPHF  CYCLE   4 - DIIS ACTIVE - HISTORY:     4 CYCLES
 CYCLE   4   ALPHA  692.149533  EPSILON    2.579677  DELTA    1.6072E+00
 TTTTTTTTTTTTTTTTTTTTTTTTTTTTTT MOQGAD      TELAPSE   153858.15 TCPU   152854.24
 TTTTTTTTTTTTTTTTTTTTTTTTTTTTTT CP_MONMON   TELAPSE   153887.41 TCPU   152883.43
 DIIS TEST: 0.46741E+00 AT CPHF  CYCLE   5 - DIIS ACTIVE - HISTORY:     5 CYCLES
 CYCLE   5   ALPHA  692.678325  EPSILON    2.580884  DELTA    5.2879E-01
 TTTTTTTTTTTTTTTTTTTTTTTTTTTTTT MOQGAD      TELAPSE   155251.01 TCPU   154234.87
 TTTTTTTTTTTTTTTTTTTTTTTTTTTTTT CP_MONMON   TELAPSE   155280.27 TCPU   154263.89
 DIIS TEST: 0.42626E-01 AT CPHF  CYCLE   6 - DIIS ACTIVE - HISTORY:     6 CYCLES
 CYCLE   6   ALPHA  693.228242  EPSILON    2.582139  DELTA    5.4992E-01
 TTTTTTTTTTTTTTTTTTTTTTTTTTTTTT MOQGAD      TELAPSE   156642.16 TCPU   155617.37
 TTTTTTTTTTTTTTTTTTTTTTTTTTTTTT CP_MONMON   TELAPSE   156671.22 TCPU   155646.32
 DIIS TEST: 0.19803E-01 AT CPHF  CYCLE   7 - DIIS ACTIVE - HISTORY:     7 CYCLES
 CYCLE   7   ALPHA  693.303465  EPSILON    2.582311  DELTA    7.5223E-02
 TTTTTTTTTTTTTTTTTTTTTTTTTTTTTT MOQGAD      TELAPSE   158031.36 TCPU   157000.37
 TTTTTTTTTTTTTTTTTTTTTTTTTTTTTT CP_MONMON   TELAPSE   158060.39 TCPU   157029.28
 DIIS TEST: 0.16140E-02 AT CPHF  CYCLE   8 - DIIS ACTIVE - HISTORY:     8 CYCLES
 CYCLE   8   ALPHA  693.328757  EPSILON    2.582369  DELTA    2.5292E-02
 TTTTTTTTTTTTTTTTTTTTTTTTTTTTTT MOQGAD      TELAPSE   159419.65 TCPU   158381.76
 TTTTTTTTTTTTTTTTTTTTTTTTTTTTTT CP_MONMON   TELAPSE   159448.69 TCPU   158410.72
 DIIS TEST: 0.19575E-03 AT CPHF  CYCLE   9 - DIIS ACTIVE - HISTORY:     9 CYCLES
 CYCLE   9   ALPHA  693.319071  EPSILON    2.582347  DELTA   -9.6857E-03
 TTTTTTTTTTTTTTTTTTTTTTTTTTTTTT MOQGAD      TELAPSE   160809.34 TCPU   159764.04
 TTTTTTTTTTTTTTTTTTTTTTTTTTTTTT CP_MONMON   TELAPSE   160838.36 TCPU   159793.00
 DIIS TEST: 0.22640E-04 AT CPHF  CYCLE  10 - DIIS ACTIVE - HISTORY:    10 CYCLES
 CYCLE  10   ALPHA  693.311008  EPSILON    2.582328  DELTA   -8.0635E-03
 TTTTTTTTTTTTTTTTTTTTTTTTTTTTTT MOQGAD      TELAPSE   162199.07 TCPU   161146.34
 TTTTTTTTTTTTTTTTTTTTTTTTTTTTTT CP_MONMON   TELAPSE   162228.34 TCPU   161175.52
 DIIS TEST: 0.46554E-05 AT CPHF  CYCLE  11 - DIIS ACTIVE - HISTORY:    11 CYCLES
 CYCLE  11   ALPHA  693.309228  EPSILON    2.582324  DELTA   -1.7800E-03
 TTTTTTTTTTTTTTTTTTTTTTTTTTTTTT MOQGAD      TELAPSE   163588.37 TCPU   162527.11
 TTTTTTTTTTTTTTTTTTTTTTTTTTTTTT CP_MONMON   TELAPSE   163617.39 TCPU   162556.01
 DIIS TEST: 0.12311E-05 AT CPHF  CYCLE  12 - DIIS ACTIVE - HISTORY:    12 CYCLES
 CYCLE  12   ALPHA  693.308208  EPSILON    2.582322  DELTA   -1.0193E-03
 TTTTTTTTTTTTTTTTTTTTTTTTTTTTTT MOQGAD      TELAPSE   164976.86 TCPU   163907.49
 TTTTTTTTTTTTTTTTTTTTTTTTTTTTTT CP_MONMON   TELAPSE   165005.90 TCPU   163936.43
 DIIS TEST: 0.73921E-06 AT CPHF  CYCLE  13 - DIIS ACTIVE - HISTORY:    13 CYCLES
 CYCLE  13   ALPHA  693.307865  EPSILON    2.582321  DELTA   -3.4324E-04
 TTTTTTTTTTTTTTTTTTTTTTTTTTTTTT CP_SC       TELAPSE   165147.33 TCPU   164074.61

 *******************************************************************************

 POLARIZABILITY (ALPHA), DIELECTRIC (EPSILON) AND FIRST-ORDER ELECTRIC
 SUSCEPTIBILITY (CHI(1)) TENSORS (INDEPENDENT COMPONENTS)

  FR.(eV) COMP.   ALPHA(Re,Im)           EPSILON(Re,Im)                CHI(1)
  2.331   XX    1571.8246       0.0000       4.5873       0.0000       3.5873
  2.331   XY       0.0033       0.0000       0.0000       0.0000       0.0000
  2.331   XZ      -0.0000       0.0000      -0.0000       0.0000      -0.0000
  2.331   YY    1571.8243       0.0000       4.5873       0.0000       3.5873
  2.331   YZ       0.0000       0.0000       0.0000       0.0000       0.0000
  2.331   ZZ     693.3079       0.0000       2.5823       0.0000       1.5823

 DIELECTRIC TENSOR

 TENSOR IN PRINCIPAL AXES SYSTEM
 AA  4.587347E+00 BB  4.587332E+00 CC  2.582321E+00

 REFRACTIVE INDICES 
 AA  1.606960E+00 BB  2.141806E+00 CC  2.141809E+00

 OPTICALLY ANISOTROPIC - UNIAXIAL CRYSTAL

 BIREFRINGENCE =  0.5348 (NEGATIVE) - OBLATE OPTICAL ELLIPSOID

 EPSILON=N**2=1+CHI(1)=1+ALPHA*4*PI/V,   4*PI/V=   0.00228 BOHR**(-3)
 ALPHA IN BOHR**3; EPSILON AND CHI(1) ARE DIMENSIONLESS.
 *******************************************************************************


  Pockels Effect beta(-omega;omega,0) with omega=   1.1653 eV


 SIZE OF GRID=    1941668
 TTTTTTTTTTTTTTTTTTTTTTTTTTTTTT MAKE_GRID2  TELAPSE   165789.11 TCPU   164711.82
 BECKE WEIGHT FUNCTION
 RADSAFE =     2.00
 TOLERANCES - DENSITY:10**- 6; POTENTIAL:10**- 9; GRID WGT:10**-14

 RADIAL INTEGRATION  - INTERVALS (POINTS,UPPER LIMIT):            1( 75,  4.0*R)

 ANGULAR INTEGRATION - INTERVALS (ACCURACY LEVEL [N. POINTS] UPPER LIMIT):
  1(  4[  86]   0.2)  2(  8[ 194]   0.5)  3( 12[ 350]   0.9)  4( 16[ 974]   3.5)
  5( 12[ 350]9999.0)

 SIZE OF GRID=    1941668
 TTTTTTTTTTTTTTTTTTTTTTTTTTTTTT MAKE_GRID2  TELAPSE   165794.05 TCPU   164714.35
 BECKE WEIGHT FUNCTION
 RADSAFE =     2.00
 TOLERANCES - DENSITY:10**- 6; POTENTIAL:10**- 9; GRID WGT:10**-14

 RADIAL INTEGRATION  - INTERVALS (POINTS,UPPER LIMIT):            1( 75,  4.0*R)

 ANGULAR INTEGRATION - INTERVALS (ACCURACY LEVEL [N. POINTS] UPPER LIMIT):
  1(  4[  86]   0.2)  2(  8[ 194]   0.5)  3( 12[ 350]   0.9)  4( 16[ 974]   3.5)
  5( 12[ 350]9999.0)
 *******************************************************************************

 DC-POCKELS AND SECOND ELECTRIC SUSCEPTIBILITY (CHI(2))
 TENSORS (INDEPENDENT COMPONENTS)

BETA                                         CHI(2)       d(MKS)       d(cgs)
 *******************************************************************************

     XXX         -0.1938E-02  -0.2212E-05  -0.2150E-05  -0.5130E-07
     XXY          0.1586E-03   0.1810E-06   0.1760E-06   0.4198E-08
     XXZ         -0.3248E+03  -0.3707E+00  -0.3604E+00  -0.8599E-02
     XYX          0.2521E-03   0.2877E-06   0.2798E-06   0.6674E-08
     XYY         -0.1269E-02  -0.1449E-05  -0.1409E-05  -0.3360E-07
     XYZ         -0.7548E+03  -0.8614E+00  -0.8376E+00  -0.1998E-01
     XZX         -0.3258E+03  -0.3717E+00  -0.3615E+00  -0.8623E-02
     XZY         -0.7689E+03  -0.8775E+00  -0.8532E+00  -0.2035E-01
     XZZ         -0.1235E-02  -0.1410E-05  -0.1371E-05  -0.3270E-07
     YXX          0.2121E-03   0.2421E-06   0.2354E-06   0.5615E-08
     YXY         -0.1216E-02  -0.1387E-05  -0.1349E-05  -0.3218E-07
     YXZ         -0.7548E+03  -0.8614E+00  -0.8376E+00  -0.1998E-01
     YYX         -0.1297E-03  -0.1480E-06  -0.1439E-06  -0.3434E-08
     YYY          0.1787E-03   0.2040E-06   0.1983E-06   0.4731E-08
     YYZ          0.3248E+03   0.3707E+00   0.3604E+00   0.8599E-02
     YZX         -0.7689E+03  -0.8775E+00  -0.8532E+00  -0.2035E-01
     YZY          0.3258E+03   0.3717E+00   0.3615E+00   0.8623E-02
     YZZ          0.5997E-04   0.6843E-07   0.6654E-07   0.1587E-08
     ZXX         -0.3256E+03  -0.3715E+00  -0.3613E+00  -0.8619E-02
     ZXY         -0.7691E+03  -0.8777E+00  -0.8534E+00  -0.2036E-01
     ZXZ         -0.1199E-02  -0.1368E-05  -0.1330E-05  -0.3173E-07
     ZYX         -0.7691E+03  -0.8777E+00  -0.8534E+00  -0.2036E-01
     ZYY          0.3256E+03   0.3715E+00   0.3613E+00   0.8619E-02
     ZYZ          0.6297E-04   0.7186E-07   0.6988E-07   0.1667E-08
     ZZX         -0.8036E-04  -0.9170E-07  -0.8917E-07  -0.2127E-08
     ZZY          0.6008E-05   0.6856E-08   0.6667E-08   0.1590E-09
     ZZZ          0.1870E-02   0.2133E-05   0.2074E-05   0.4949E-07
 *******************************************************************************
 CHI(2) = BETA*2PI/V

 BETA AND CHI(2) IN A.U.:    [BETA] = M**(-1/2) L**(7/2) T
                             [CHI(2)] = 1/F
                             (L=LENGTH, M=MASS, T=TIME, F=FIELD INTENSITY)

 ELECTRIC SUSCEPTIBILITY IN THE SECOND HARMONIC GENERATION (SHG) CONVENTION IS:
                   d(A.U.)= 1/2 CHI(2)
                   d(MKS) = d(A.U.)/0.514220632 pm/V
                   d(CGS) = d(A.U.)/(4PI*1.7152535)  10**(-7) esu

 FIELD INTENSITY: 1 A.U. = 0.514220632*10**(11) V/m = 1.7152535*10**7 esu
 BEWARE:                CHI(2)=P/(E0*F**2)   (MKS)
                        CHI(2)=P/F**2        (CGS)
 WHERE P IS THE POLARIZATION VECTOR AND F IS THE APPLIED ELECTRIC FIELD.
 CONSISTENCY IS  PRESERVED BY MULTIPLYING THE CGS VALUE TIMES THE PERMITTIVITY
 OF THE VACUUM, E0 (CONVERSION FACTORS FROM www.physics.nist.gov/constants).
 IN PARENTHESIS: BETA BEFORE SYMMETRIZATION.

  SHG Effect beta(-2omega;omega,omega) with omega=   1.1653 eV


 SIZE OF GRID=    1941668
 TTTTTTTTTTTTTTTTTTTTTTTTTTTTTT MAKE_GRID2  TELAPSE   166330.89 TCPU   165248.74
 BECKE WEIGHT FUNCTION
 RADSAFE =     2.00
 TOLERANCES - DENSITY:10**- 6; POTENTIAL:10**- 9; GRID WGT:10**-14

 RADIAL INTEGRATION  - INTERVALS (POINTS,UPPER LIMIT):            1( 75,  4.0*R)

 ANGULAR INTEGRATION - INTERVALS (ACCURACY LEVEL [N. POINTS] UPPER LIMIT):
  1(  4[  86]   0.2)  2(  8[ 194]   0.5)  3( 12[ 350]   0.9)  4( 16[ 974]   3.5)
  5( 12[ 350]9999.0)

 SIZE OF GRID=    1941668
 TTTTTTTTTTTTTTTTTTTTTTTTTTTTTT MAKE_GRID2  TELAPSE   166333.50 TCPU   165251.29
 BECKE WEIGHT FUNCTION
 RADSAFE =     2.00
 TOLERANCES - DENSITY:10**- 6; POTENTIAL:10**- 9; GRID WGT:10**-14

 RADIAL INTEGRATION  - INTERVALS (POINTS,UPPER LIMIT):            1( 75,  4.0*R)

 ANGULAR INTEGRATION - INTERVALS (ACCURACY LEVEL [N. POINTS] UPPER LIMIT):
  1(  4[  86]   0.2)  2(  8[ 194]   0.5)  3( 12[ 350]   0.9)  4( 16[ 974]   3.5)
  5( 12[ 350]9999.0)
 *******************************************************************************

 SECOND HARMONIC GENERATION (SHG)  AND SECOND ELECTRIC SUSCEPTIBILITY (CHI(2))
 TENSORS (INDEPENDENT COMPONENTS)

BETA                                         CHI(2)       d(MKS)       d(cgs)
 *******************************************************************************

     XXX         -0.3542E-02  -0.4042E-05  -0.3930E-05  -0.9377E-07
     XXY          0.2488E-03   0.2839E-06   0.2760E-06   0.6585E-08
     XXZ         -0.4123E+03  -0.4705E+00  -0.4575E+00  -0.1091E-01
     XYX          0.2488E-03   0.2839E-06   0.2760E-06   0.6585E-08
     XYY         -0.1396E-02  -0.1593E-05  -0.1549E-05  -0.3696E-07
     XYZ         -0.7152E+03  -0.8161E+00  -0.7936E+00  -0.1893E-01
     XZX         -0.4123E+03  -0.4705E+00  -0.4575E+00  -0.1091E-01
     XZY         -0.7152E+03  -0.8161E+00  -0.7936E+00  -0.1893E-01
     XZZ         -0.1543E-02  -0.1760E-05  -0.1712E-05  -0.4083E-07
     YXX          0.2082E-03   0.2375E-06   0.2310E-06   0.5510E-08
     YXY         -0.1413E-02  -0.1612E-05  -0.1568E-05  -0.3740E-07
     YXZ         -0.7152E+03  -0.8161E+00  -0.7936E+00  -0.1893E-01
     YYX         -0.1413E-02  -0.1612E-05  -0.1568E-05  -0.3740E-07
     YYY          0.3606E-03   0.4114E-06   0.4001E-06   0.9544E-08
     YYZ          0.4123E+03   0.4705E+00   0.4575E+00   0.1091E-01
     YZX         -0.7152E+03  -0.8161E+00  -0.7936E+00  -0.1893E-01
     YZY          0.4123E+03   0.4705E+00   0.4575E+00   0.1091E-01
     YZZ          0.1227E-03   0.1400E-06   0.1361E-06   0.3247E-08
     ZXX         -0.3897E+03  -0.4447E+00  -0.4324E+00  -0.1032E-01
     ZXY         -0.9264E+03  -0.1057E+01  -0.1028E+01  -0.2452E-01
     ZXZ         -0.1289E-02  -0.1471E-05  -0.1431E-05  -0.3413E-07
     ZYX         -0.9264E+03  -0.1057E+01  -0.1028E+01  -0.2452E-01
     ZYY          0.3897E+03   0.4447E+00   0.4324E+00   0.1032E-01
     ZYZ          0.7212E-04   0.8230E-07   0.8002E-07   0.1909E-08
     ZZX         -0.1289E-02  -0.1471E-05  -0.1431E-05  -0.3413E-07
     ZZY          0.7212E-04   0.8230E-07   0.8002E-07   0.1909E-08
     ZZZ          0.2125E-02   0.2425E-05   0.2358E-05   0.5626E-07
 *******************************************************************************
 CHI(2) = BETA*2PI/V

 BETA AND CHI(2) IN A.U.:    [BETA] = M**(-1/2) L**(7/2) T
                             [CHI(2)] = 1/F
                             (L=LENGTH, M=MASS, T=TIME, F=FIELD INTENSITY)

 ELECTRIC SUSCEPTIBILITY IN THE SECOND HARMONIC GENERATION (SHG) CONVENTION IS:
                   d(A.U.)= 1/2 CHI(2)
                   d(MKS) = d(A.U.)/0.514220632 pm/V
                   d(CGS) = d(A.U.)/(4PI*1.7152535)  10**(-7) esu

 FIELD INTENSITY: 1 A.U. = 0.514220632*10**(11) V/m = 1.7152535*10**7 esu
 BEWARE:                CHI(2)=P/(E0*F**2)   (MKS)
                        CHI(2)=P/F**2        (CGS)
 WHERE P IS THE POLARIZATION VECTOR AND F IS THE APPLIED ELECTRIC FIELD.
 CONSISTENCY IS  PRESERVED BY MULTIPLYING THE CGS VALUE TIMES THE PERMITTIVITY
 OF THE VACUUM, E0 (CONVERSION FACTORS FROM www.physics.nist.gov/constants).
 IN PARENTHESIS: BETA BEFORE SYMMETRIZATION.

 *******************************************************************************


 GCALCO - MAX INDICES DIRECT LATTICE VECTOR    14    14    16
 NO.OF VECTORS CREATED 6999 STARS  484 RMAX   210.45286 BOHR

 CAPPA:IS1  3;IS2  3;IS3  3; K PTS MONK NET   6; SYMMOPS:K SPACE   8;G SPACE   4

 TTTTTTTTTTTTTTTTTTTTTTTTTTTTTT END         TELAPSE   166333.88 TCPU   165251.66
 EEEEEEEEEE TERMINATION  DATE 13 12 2023 TIME 15:34:56.6
NODE    0 CPU TIME =    165251.663
NODE    1 CPU TIME =    165597.015
NODE    2 CPU TIME =    165561.221
NODE    3 CPU TIME =    165572.267
NODE    4 CPU TIME =    165419.309
NODE    5 CPU TIME =    165572.053
NODE    6 CPU TIME =    165527.510
NODE    7 CPU TIME =    165566.004
NODE    8 CPU TIME =    165378.552
NODE    9 CPU TIME =    165584.927
NODE   10 CPU TIME =    165438.387
NODE   11 CPU TIME =    165468.607
NODE   12 CPU TIME =    165314.809
NODE   13 CPU TIME =    165483.728
NODE   14 CPU TIME =    165438.222
NODE   15 CPU TIME =    165471.439
NODE   16 CPU TIME =    165252.916
NODE   17 CPU TIME =    165476.289
NODE   18 CPU TIME =    165439.967
NODE   19 CPU TIME =    165481.041
NODE   20 CPU TIME =    165286.816
NODE   21 CPU TIME =    165469.722
NODE   22 CPU TIME =    165428.655
NODE   23 CPU TIME =    165480.249
    TOTAL CPU TIME =   3970961.369
trying normal rsh (/usr/bin/rsh)
exec: No such file or directory
trying normal rsh (/usr/bin/rsh)
exec: No such file or directory
trying normal rsh (/usr/bin/rsh)
exec: No such file or directory
trying normal rsh (/usr/bin/rsh)
exec: No such file or directory
