Loading crystal17/1.0.2/intel/19.0
  Loading requirement: intel/19.0 ompi/4.0.1/intel/19.0
 PROCESS            1  OF           24  WORKING
 PROCESS            2  OF           24  WORKING
 PROCESS            4  OF           24  WORKING
 PROCESS            5  OF           24  WORKING
 PROCESS            6  OF           24  WORKING
 PROCESS            8  OF           24  WORKING
 PROCESS            9  OF           24  WORKING
 PROCESS           10  OF           24  WORKING
 PROCESS           11  OF           24  WORKING
 PROCESS           12  OF           24  WORKING
 PROCESS           13  OF           24  WORKING
 PROCESS           14  OF           24  WORKING
 PROCESS           15  OF           24  WORKING
 PROCESS           16  OF           24  WORKING
 PROCESS           17  OF           24  WORKING
 PROCESS           18  OF           24  WORKING
 PROCESS           19  OF           24  WORKING
 PROCESS           20  OF           24  WORKING
 PROCESS           21  OF           24  WORKING
 PROCESS           22  OF           24  WORKING
 PROCESS           23  OF           24  WORKING
 PROCESS            0  OF           24  WORKING
 PROCESS            3  OF           24  WORKING
 PROCESS            7  OF           24  WORKING

         
 *******************************************************************************
 *                                                                             *
 *                               CRYSTAL17                                     *
 *                      public : 1.0.2 - March 1st, 2018                       *
 *                       HTTP://WWW.CRYSTAL.UNITO.IT                           *
 *                                                                             *
 *                              MAIN AUTHORS                                   *
 *                                                                             *
 *  R. DOVESI(1,11), V.R. SAUNDERS(2), C. ROETTI(1,11), R. ORLANDO(1,11),      *
 *  C.M. ZICOVICH-WILSON(1,3), F. PASCALE(4), B. CIVALLERI(1,11),              *
 *  K. DOLL(5), N.M. HARRISON(2,6), I.J. BUSH(7), Ph. D'ARCO(8),               *
 *  M. LLUNELL(9), M. CAUSA'(10), Y. NOEL(8), L. MASCHIO(1,11), A. ERBA(1,11)  *
 *  M. RE'RAT(14), S. CASASSA(1,11)                                            *
 *                                                                             *
 *        CONTRIBUTIONS TO THE CODE HAVE ALSO BEEN GIVEN BY                    *
 *                                                                             *
 *  M. FERRABONE(1,11), M. DE LA PIERRE(1,11), M. FERRERO(1,11),               *
 *  J. BAIMA(1,11), E. ALBANESE(1,11), M.F. PEINTINGER(12), R. BAST(13),       *
 *  B. KIRTMAN(15), V. LACIVITA(1,11), R. DEMICHELIS(1,16)                     *
 *  G. BRANDEBURG(17), S. SALUSTRO(1,11), G. SANSONE(1,11)                     *
 *  M.T. RUGGIERO(18)                                                          *
 *                                                                             *
 * (1) THEORETICAL CHEMISTRY GROUP - UNIVERSITA' DI TORINO - TORINO (ITALY)    *
 * (2) COMPUTATIONAL SCIENCE & ENGINEERING DEPARTMENT - STFC DARESBURY (UK)    *
 * (3) UNIVERSIDAD AUTONOMA DEL ESTADO DE MORELOS - CUERNAVACA (MEXICO)        *
 * (4) UNIVERSITE' DE LORRAINE - NANCY (FRANCE)                                *
 * (5) UNIVERSITAET STUTTGART- STUTTGART (GERMANY)                             *
 * (6) IMPERIAL COLLEGE - LONDON (UK)                                          *
 * (7) OXFORD E-RESEARCH CENTRE - OXFORD (UK)                                  *
 * (8) UPMC - SORBONNE UNIVERSITES - PARIS (FRANCE)                            *
 * (9) UNIVERSIDAD DE BARCELONA - BARCELONA (SPAIN)                            *
 *(10) UNIVERSITA' DI NAPOLI "FEDERICO II" - NAPOLI (ITALY)                    *
 *(11) NIS - NANOSTRUCTURED INTERFACES AND SURFACES - TORINO (ITALY)           *
 *(12) MPI FUER CHEMISCHE ENERGIEKONVERSION - MUELHEIM AN DER RUHR (GERMANY)   *
 *(13) UNIVERSITY OF TROMSO - TROMSO (NORWAY)                                  *
 *(14) UNIVERSITE' DE PAU ET DES PAYS DE L'ADOUR - PAU (FRANCE)                *
 *(15) UNIVERSITY OF CALIFORNIA SANTA BARBARA - SANTA BARBARA (USA)            *
 *(16) CURTIN UNIVERSITY - PERTH (AUSTRALIA)                                   *
 *(17) UNIVERSITY COLLEGE LONDON - LONDON (UK)                                 *
 *(18) CAMBRIDGE UNIVERSITY - CAMBRIDGE (UK)                                   *
 *                                                                             *
 *******************************************************************************
 EEEEEEEEEE STARTING  DATE 11 12 2023 TIME 09:15:54.8
 Z:\home\sanoj\Downloads\tmp_p\newconn.mol                                       

 CRYSTAL CALCULATION
 (INPUT ACCORDING TO THE INTERNATIONAL TABLES FOR X-RAY CRYSTALLOGRAPHY)
 CRYSTAL FAMILY                       :  TETRAGONAL  
 CRYSTAL CLASS  (GROTH - 1921)        :  TETRAGONAL DISPHENOIDAL              

 SPACE GROUP (NONCENTROSYMMETRIC)     :  I -4            

 LATTICE PARAMETERS  (ANGSTROMS AND DEGREES) - CONVENTIONAL CELL
        A           B           C        ALPHA        BETA       GAMMA
    11.43862    11.43862    11.74241    90.00000    90.00000    90.00000


 NUMBER OF IRREDUCIBLE ATOMS IN THE CONVENTIONAL CELL:   17

 INPUT COORDINATES

 ATOM AT. N.              COORDINATES
   1   1     9.846000000000E-02  7.839700000000E-01  3.715700000000E-01
   2   1     4.679900000000E-01  8.540400000000E-01  4.191200000000E-01
   3   6     2.802000000000E-01  8.376900000000E-01  3.917000000000E-01
   4   6     2.599900000000E-01 -3.774000000000E-02  3.851700000000E-01
   5   6     1.894300000000E-01  7.567400000000E-01  3.796000000000E-01
   6   6     3.367000000000E-01  6.058500000000E-01  3.719200000000E-01
   7   6     3.950500000000E-01  7.953100000000E-01  4.009500000000E-01
   8   6     7.813100000000E-01  3.605300000000E-01  3.740000000000E-01
   9   7     3.428400000000E-01  3.630000000000E-02  3.435800000000E-01
  10   7     2.939600000000E-01  1.469400000000E-01  3.469800000000E-01
  11   7     1.613300000000E-01  2.314000000000E-02  4.121000000000E-01
  12   7     1.861200000000E-01  1.389700000000E-01  3.859500000000E-01
  13   7     4.222600000000E-01  6.823300000000E-01  3.879600000000E-01
  14  17     1.125800000000E-01  5.345800000000E-01  3.665800000000E-01
  15  17     3.689800000000E-01  4.605300000000E-01  3.455500000000E-01
  16  30     0.000000000000E+00  5.000000000000E-01  7.500000000000E-01
  17  30     0.000000000000E+00  0.000000000000E+00  5.000000000000E-01

 *******************************************************************************

 << INFORMATION >>: FROM NOW ON, ALL COORDINATES REFER TO THE PRIMITIVE CELL

 *******************************************************************************

 LATTICE PARAMETERS  (ANGSTROMS AND DEGREES) - PRIMITIVE CELL
       A          B          C        ALPHA      BETA     GAMMA        VOLUME
    9.99460    9.99460    9.99460   110.18686 110.18686 108.04923    768.200008

 COORDINATES OF THE EQUIVALENT ATOMS (FRACTIONAL UNITS)

 N. ATOM EQUIV AT. N.          X                  Y                  Z

   1   1   1    1 H     1.55540000000E-01  4.70030000000E-01 -1.17570000000E-01
   2   1   2    1 H    -4.12400000000E-01  2.73110000000E-01  1.17570000000E-01
   3   1   3    1 H    -4.70030000000E-01  4.12400000000E-01 -3.14490000000E-01
   4   1   4    1 H    -2.73110000000E-01 -1.55540000000E-01  3.14490000000E-01

   5   2   1    1 H     2.73160000000E-01 -1.12890000000E-01  3.22030000000E-01
   6   2   2    1 H    -4.34920000000E-01 -4.88700000000E-02 -3.22030000000E-01
   7   2   3    1 H     1.12890000000E-01  4.34920000000E-01  3.86050000000E-01
   8   2   4    1 H     4.88700000000E-02 -2.73160000000E-01 -3.86050000000E-01

   9   3   1    6 C     2.29390000000E-01 -3.28100000000E-01  1.17890000000E-01
  10   3   2    6 C    -4.45990000000E-01  1.11500000000E-01 -1.17890000000E-01
  11   3   3    6 C     3.28100000000E-01  4.45990000000E-01 -4.42510000000E-01
  12   3   4    6 C    -1.11500000000E-01 -2.29390000000E-01  4.42510000000E-01

  13   4   1    6 C     3.47430000000E-01 -3.54840000000E-01  2.22250000000E-01
  14   4   2    6 C     4.22910000000E-01  1.25180000000E-01 -2.22250000000E-01
  15   4   3    6 C     3.54840000000E-01 -4.22910000000E-01 -2.97730000000E-01
  16   4   4    6 C    -1.25180000000E-01 -3.47430000000E-01  2.97730000000E-01

  17   5   1    6 C     1.36340000000E-01 -4.30970000000E-01 -5.38300000000E-02
  18   5   2    6 C    -3.77140000000E-01  1.90170000000E-01  5.38300000000E-02
  19   5   3    6 C     4.30970000000E-01  3.77140000000E-01 -4.32690000000E-01
  20   5   4    6 C    -1.90170000000E-01 -1.36340000000E-01  4.32690000000E-01

  21   6   1    6 C    -2.22300000000E-02 -2.91380000000E-01 -5.74500000000E-02
  22   6   2    6 C    -2.33930000000E-01  3.52200000000E-02  5.74500000000E-02
  23   6   3    6 C     2.91380000000E-01  2.33930000000E-01  2.69150000000E-01
  24   6   4    6 C    -3.52200000000E-02  2.22300000000E-02 -2.69150000000E-01

  25   7   1    6 C     1.96260000000E-01 -2.04000000000E-01  1.90360000000E-01
  26   7   2    6 C    -3.94360000000E-01  5.90000000000E-03 -1.90360000000E-01
  27   7   3    6 C     2.04000000000E-01  3.94360000000E-01  4.00260000000E-01
  28   7   4    6 C    -5.90000000000E-03 -1.96260000000E-01 -4.00260000000E-01

  29   8   1    6 C    -2.65470000000E-01  1.55310000000E-01  1.41840000000E-01
  30   8   2    6 C     1.34700000000E-02 -4.07310000000E-01 -1.41840000000E-01
  31   8   3    6 C    -1.55310000000E-01 -1.34700000000E-02 -4.20780000000E-01
  32   8   4    6 C     4.07310000000E-01  2.65470000000E-01  4.20780000000E-01

  33   9   1    7 N     3.79880000000E-01 -3.13580000000E-01  3.79140000000E-01
  34   9   2    7 N     3.07280000000E-01  7.40000000000E-04 -3.79140000000E-01
  35   9   3    7 N     3.13580000000E-01 -3.07280000000E-01 -3.06540000000E-01
  36   9   4    7 N    -7.40000000000E-04 -3.79880000000E-01  3.06540000000E-01

  37  10   1    7 N     4.93920000000E-01 -3.59060000000E-01  4.40900000000E-01
  38  10   2    7 N     2.00040000000E-01  5.30200000000E-02 -4.40900000000E-01
  39  10   3    7 N     3.59060000000E-01 -2.00040000000E-01 -1.47020000000E-01
  40  10   4    7 N    -5.30200000000E-02 -4.93920000000E-01  1.47020000000E-01

  41  11   1    7 N     4.35240000000E-01 -4.26570000000E-01  1.84470000000E-01
  42  11   2    7 N     3.88960000000E-01  2.50770000000E-01 -1.84470000000E-01
  43  11   3    7 N     4.26570000000E-01 -3.88960000000E-01 -1.38190000000E-01
  44  11   4    7 N    -2.50770000000E-01 -4.35240000000E-01  1.38190000000E-01

  45  12   1    7 N    -4.75080000000E-01 -4.27930000000E-01  3.25090000000E-01
  46  12   2    7 N     2.46980000000E-01  1.99830000000E-01 -3.25090000000E-01
  47  12   3    7 N     4.27930000000E-01 -2.46980000000E-01 -4.71500000000E-02
  48  12   4    7 N    -1.99830000000E-01  4.75080000000E-01  4.71500000000E-02

  49  13   1    7 N     7.02900000000E-02 -1.89780000000E-01  1.04590000000E-01
  50  13   2    7 N    -2.94370000000E-01 -3.43000000000E-02 -1.04590000000E-01
  51  13   3    7 N     1.89780000000E-01  2.94370000000E-01  2.60070000000E-01
  52  13   4    7 N     3.43000000000E-02 -7.02900000000E-02 -2.60070000000E-01

  53  14   1   17 CL   -9.88400000000E-02  4.79160000000E-01 -3.52840000000E-01
  54  14   2   17 CL   -1.68000000000E-01  2.54000000000E-01  3.52840000000E-01
  55  14   3   17 CL   -4.79160000000E-01  1.68000000000E-01  4.22000000000E-01
  56  14   4   17 CL   -2.54000000000E-01  9.88400000000E-02 -4.22000000000E-01

  57  15   1   17 CL   -1.93920000000E-01 -2.85470000000E-01 -1.70490000000E-01
  58  15   2   17 CL   -1.14980000000E-01 -2.34300000000E-02  1.70490000000E-01
  59  15   3   17 CL    2.85470000000E-01  1.14980000000E-01  9.15500000000E-02
  60  15   4   17 CL    2.34300000000E-02  1.93920000000E-01 -9.15500000000E-02

  61  16   1   30 ZN    2.50000000000E-01 -2.50000000000E-01 -5.00000000000E-01

  62  17   1   30 ZN   -5.00000000000E-01 -5.00000000000E-01  0.00000000000E+00

 NUMBER OF SYMMETRY OPERATORS         :    4
 *******************************************************************************
 * GEOMETRY EDITING - INPUT COORDINATES ARE GIVEN IN ANGSTROM         
 *******************************************************************************

 GEOMETRY NOW FULLY CONSISTENT WITH THE GROUP

 GCALCO - MAX INDICES DIRECT LATTICE VECTOR    14    14    15
 NO.OF VECTORS CREATED 6999 STARS  491 RMAX   205.45930 BOHR

 GEOMETRY FOR WAVE FUNCTION - DIMENSIONALITY OF THE SYSTEM    3
 (NON PERIODIC DIRECTION: LATTICE PARAMETER FORMALLY SET TO 500)
 *******************************************************************************
 LATTICE PARAMETERS (ANGSTROMS AND DEGREES) - BOHR = 0.5291772083 ANGSTROM
 PRIMITIVE CELL - CENTRING CODE 6/0 VOLUME=   768.200008 - DENSITY  2.126 g/cm^3
         A              B              C           ALPHA      BETA       GAMMA 
     9.99460009     9.99460009     9.99460009   110.186861 110.186861 108.049230
 *******************************************************************************
 ATOMS IN THE ASYMMETRIC UNIT   17 - ATOMS IN THE UNIT CELL:   62
     ATOM                 X/A                 Y/B                 Z/C    
 *******************************************************************************
      1 T   1 H     1.555400000000E-01  4.700300000000E-01 -1.175700000000E-01
      2 F   1 H    -4.124000000000E-01  2.731100000000E-01  1.175700000000E-01
      3 F   1 H    -4.700300000000E-01  4.124000000000E-01 -3.144900000000E-01
      4 F   1 H    -2.731100000000E-01 -1.555400000000E-01  3.144900000000E-01
      5 T   1 H     2.731600000000E-01 -1.128900000000E-01  3.220300000000E-01
      6 F   1 H    -4.349200000000E-01 -4.887000000000E-02 -3.220300000000E-01
      7 F   1 H     1.128900000000E-01  4.349200000000E-01  3.860500000000E-01
      8 F   1 H     4.887000000000E-02 -2.731600000000E-01 -3.860500000000E-01
      9 T   6 C     2.293900000000E-01 -3.281000000000E-01  1.178900000000E-01
     10 F   6 C    -4.459900000000E-01  1.115000000000E-01 -1.178900000000E-01
     11 F   6 C     3.281000000000E-01  4.459900000000E-01 -4.425100000000E-01
     12 F   6 C    -1.115000000000E-01 -2.293900000000E-01  4.425100000000E-01
     13 T   6 C     3.474300000000E-01 -3.548400000000E-01  2.222500000000E-01
     14 F   6 C     4.229100000000E-01  1.251800000000E-01 -2.222500000000E-01
     15 F   6 C     3.548400000000E-01 -4.229100000000E-01 -2.977300000000E-01
     16 F   6 C    -1.251800000000E-01 -3.474300000000E-01  2.977300000000E-01
     17 T   6 C     1.363400000000E-01 -4.309700000000E-01 -5.383000000000E-02
     18 F   6 C    -3.771400000000E-01  1.901700000000E-01  5.383000000000E-02
     19 F   6 C     4.309700000000E-01  3.771400000000E-01 -4.326900000000E-01
     20 F   6 C    -1.901700000000E-01 -1.363400000000E-01  4.326900000000E-01
     21 T   6 C    -2.223000000000E-02 -2.913800000000E-01 -5.745000000000E-02
     22 F   6 C    -2.339300000000E-01  3.522000000000E-02  5.745000000000E-02
     23 F   6 C     2.913800000000E-01  2.339300000000E-01  2.691500000000E-01
     24 F   6 C    -3.522000000000E-02  2.223000000000E-02 -2.691500000000E-01
     25 T   6 C     1.962600000000E-01 -2.040000000000E-01  1.903600000000E-01
     26 F   6 C    -3.943600000000E-01  5.900000000000E-03 -1.903600000000E-01
     27 F   6 C     2.040000000000E-01  3.943600000000E-01  4.002600000000E-01
     28 F   6 C    -5.900000000000E-03 -1.962600000000E-01 -4.002600000000E-01
     29 T   6 C    -2.654700000000E-01  1.553100000000E-01  1.418400000000E-01
     30 F   6 C     1.347000000000E-02 -4.073100000000E-01 -1.418400000000E-01
     31 F   6 C    -1.553100000000E-01 -1.347000000000E-02 -4.207800000000E-01
     32 F   6 C     4.073100000000E-01  2.654700000000E-01  4.207800000000E-01
     33 T   7 N     3.798800000000E-01 -3.135800000000E-01  3.791400000000E-01
     34 F   7 N     3.072800000000E-01  7.400000000000E-04 -3.791400000000E-01
     35 F   7 N     3.135800000000E-01 -3.072800000000E-01 -3.065400000000E-01
     36 F   7 N    -7.399999999999E-04 -3.798800000000E-01  3.065400000000E-01
     37 T   7 N     4.939200000000E-01 -3.590600000000E-01  4.409000000000E-01
     38 F   7 N     2.000400000000E-01  5.302000000000E-02 -4.409000000000E-01
     39 F   7 N     3.590600000000E-01 -2.000400000000E-01 -1.470200000000E-01
     40 F   7 N    -5.302000000000E-02 -4.939200000000E-01  1.470200000000E-01
     41 T   7 N     4.352400000000E-01 -4.265700000000E-01  1.844700000000E-01
     42 F   7 N     3.889600000000E-01  2.507700000000E-01 -1.844700000000E-01
     43 F   7 N     4.265700000000E-01 -3.889600000000E-01 -1.381900000000E-01
     44 F   7 N    -2.507700000000E-01 -4.352400000000E-01  1.381900000000E-01
     45 T   7 N    -4.750800000000E-01 -4.279300000000E-01  3.250900000000E-01
     46 F   7 N     2.469800000000E-01  1.998300000000E-01 -3.250900000000E-01
     47 F   7 N     4.279300000000E-01 -2.469800000000E-01 -4.715000000000E-02
     48 F   7 N    -1.998300000000E-01  4.750800000000E-01  4.715000000000E-02
     49 T   7 N     7.029000000000E-02 -1.897800000000E-01  1.045900000000E-01
     50 F   7 N    -2.943700000000E-01 -3.430000000000E-02 -1.045900000000E-01
     51 F   7 N     1.897800000000E-01  2.943700000000E-01  2.600700000000E-01
     52 F   7 N     3.430000000000E-02 -7.029000000000E-02 -2.600700000000E-01
     53 T  17 CL   -9.884000000000E-02  4.791600000000E-01 -3.528400000000E-01
     54 F  17 CL   -1.680000000000E-01  2.540000000000E-01  3.528400000000E-01
     55 F  17 CL   -4.791600000000E-01  1.680000000000E-01  4.220000000000E-01
     56 F  17 CL   -2.540000000000E-01  9.884000000000E-02 -4.220000000000E-01
     57 T  17 CL   -1.939200000000E-01 -2.854700000000E-01 -1.704900000000E-01
     58 F  17 CL   -1.149800000000E-01 -2.343000000000E-02  1.704900000000E-01
     59 F  17 CL    2.854700000000E-01  1.149800000000E-01  9.155000000000E-02
     60 F  17 CL    2.343000000000E-02  1.939200000000E-01 -9.155000000000E-02
     61 T  30 ZN    2.500000000000E-01 -2.500000000000E-01  5.000000000000E-01
     62 T  30 ZN   -5.000000000000E-01  5.000000000000E-01  0.000000000000E+00

 TRANSFORMATION MATRIX PRIMITIVE-CRYSTALLOGRAPHIC CELL
  0.0000  1.0000  1.0000  1.0000  0.0000  1.0000  1.0000  1.0000  0.0000

 *******************************************************************************
 CRYSTALLOGRAPHIC CELL (VOLUME=       1536.40001630)
         A              B              C           ALPHA      BETA       GAMMA 
    11.43861808    11.43861808    11.74240847    90.000000  90.000000  90.000000

 COORDINATES IN THE CRYSTALLOGRAPHIC CELL
     ATOM                 X/A                 Y/B                 Z/C    
 *******************************************************************************
      1 T   1 H     9.846000000000E-02 -2.160300000000E-01  3.715700000000E-01
      2 F   1 H    -9.846000000000E-02  2.160300000000E-01  3.715700000000E-01
      3 F   1 H    -2.160300000000E-01 -9.846000000000E-02 -3.715700000000E-01
      4 F   1 H     2.160300000000E-01  9.846000000000E-02 -3.715700000000E-01
      5 T   1 H    -3.201000000000E-02  3.540400000000E-01 -8.088000000000E-02
      6 F   1 H     3.201000000000E-02 -3.540400000000E-01 -8.088000000000E-02
      7 F   1 H     3.540400000000E-01  3.201000000000E-02  8.088000000000E-02
      8 F   1 H    -3.540400000000E-01 -3.201000000000E-02  8.088000000000E-02
      9 T   6 C    -2.198000000000E-01  3.376900000000E-01 -1.083000000000E-01
     10 F   6 C     2.198000000000E-01 -3.376900000000E-01 -1.083000000000E-01
     11 F   6 C     3.376900000000E-01  2.198000000000E-01  1.083000000000E-01
     12 F   6 C    -3.376900000000E-01 -2.198000000000E-01  1.083000000000E-01
     13 T   6 C     2.599900000000E-01 -3.774000000000E-02  3.851700000000E-01
     14 F   6 C    -2.599900000000E-01  3.774000000000E-02  3.851700000000E-01
     15 F   6 C    -3.774000000000E-02 -2.599900000000E-01 -3.851700000000E-01
     16 F   6 C     3.774000000000E-02  2.599900000000E-01 -3.851700000000E-01
     17 T   6 C    -3.105700000000E-01  2.567400000000E-01 -1.204000000000E-01
     18 F   6 C     3.105700000000E-01 -2.567400000000E-01 -1.204000000000E-01
     19 F   6 C     2.567400000000E-01  3.105700000000E-01  1.204000000000E-01
     20 F   6 C    -2.567400000000E-01 -3.105700000000E-01  1.204000000000E-01
     21 T   6 C    -1.633000000000E-01  1.058500000000E-01 -1.280800000000E-01
     22 F   6 C     1.633000000000E-01 -1.058500000000E-01 -1.280800000000E-01
     23 F   6 C     1.058500000000E-01  1.633000000000E-01  1.280800000000E-01
     24 F   6 C    -1.058500000000E-01 -1.633000000000E-01  1.280800000000E-01
     25 T   6 C    -1.049500000000E-01  2.953100000000E-01 -9.905000000000E-02
     26 F   6 C     1.049500000000E-01 -2.953100000000E-01 -9.905000000000E-02
     27 F   6 C     2.953100000000E-01  1.049500000000E-01  9.905000000000E-02
     28 F   6 C    -2.953100000000E-01 -1.049500000000E-01  9.905000000000E-02
     29 T   6 C     2.813100000000E-01 -1.394700000000E-01 -1.260000000000E-01
     30 F   6 C    -2.813100000000E-01  1.394700000000E-01 -1.260000000000E-01
     31 F   6 C    -1.394700000000E-01 -2.813100000000E-01  1.260000000000E-01
     32 F   6 C     1.394700000000E-01  2.813100000000E-01  1.260000000000E-01
     33 T   7 N     3.428400000000E-01  3.630000000000E-02  3.435800000000E-01
     34 F   7 N    -3.428400000000E-01 -3.630000000000E-02  3.435800000000E-01
     35 F   7 N     3.630000000000E-02 -3.428400000000E-01 -3.435800000000E-01
     36 F   7 N    -3.630000000000E-02  3.428400000000E-01 -3.435800000000E-01
     37 T   7 N    -2.060400000000E-01 -3.530600000000E-01 -1.530200000000E-01
     38 F   7 N     2.060400000000E-01  3.530600000000E-01 -1.530200000000E-01
     39 F   7 N    -3.530600000000E-01  2.060400000000E-01  1.530200000000E-01
     40 F   7 N     3.530600000000E-01 -2.060400000000E-01  1.530200000000E-01
     41 T   7 N     1.613300000000E-01  2.314000000000E-02  4.121000000000E-01
     42 F   7 N    -1.613300000000E-01 -2.314000000000E-02  4.121000000000E-01
     43 F   7 N     2.314000000000E-02 -1.613300000000E-01 -4.121000000000E-01
     44 F   7 N    -2.314000000000E-02  1.613300000000E-01 -4.121000000000E-01
     45 T   7 N     1.861200000000E-01  1.389700000000E-01  3.859500000000E-01
     46 F   7 N    -1.861200000000E-01 -1.389700000000E-01  3.859500000000E-01
     47 F   7 N     1.389700000000E-01 -1.861200000000E-01 -3.859500000000E-01
     48 F   7 N    -1.389700000000E-01  1.861200000000E-01 -3.859500000000E-01
     49 T   7 N    -7.774000000000E-02  1.823300000000E-01 -1.120400000000E-01
     50 F   7 N     7.774000000000E-02 -1.823300000000E-01 -1.120400000000E-01
     51 F   7 N     1.823300000000E-01  7.774000000000E-02  1.120400000000E-01
     52 F   7 N    -1.823300000000E-01 -7.774000000000E-02  1.120400000000E-01
     53 T  17 CL   -3.874200000000E-01  3.458000000000E-02 -1.334200000000E-01
     54 F  17 CL    3.874200000000E-01 -3.458000000000E-02 -1.334200000000E-01
     55 F  17 CL    3.458000000000E-02  3.874200000000E-01  1.334200000000E-01
     56 F  17 CL   -3.458000000000E-02 -3.874200000000E-01  1.334200000000E-01
     57 T  17 CL   -1.310200000000E-01 -3.947000000000E-02 -1.544500000000E-01
     58 F  17 CL    1.310200000000E-01  3.947000000000E-02 -1.544500000000E-01
     59 F  17 CL   -3.947000000000E-02  1.310200000000E-01  1.544500000000E-01
     60 F  17 CL    3.947000000000E-02 -1.310200000000E-01  1.544500000000E-01
     61 T  30 ZN   -5.000000000000E-01 -4.108920966977E-17  2.500000000000E-01
     62 T  30 ZN    0.000000000000E+00  0.000000000000E+00  5.000000000000E-01

 T = ATOM BELONGING TO THE ASYMMETRIC UNIT

 ****    4 SYMMOPS - TRANSLATORS IN FRACTIONAL UNITS
 **** MATRICES AND TRANSLATORS IN THE CRYSTALLOGRAPHIC REFERENCE FRAME
   V INV                    ROTATION MATRICES                   TRANSLATORS
   1   1  1.00  0.00  0.00  0.00  1.00  0.00  0.00  0.00  1.00  0.00  0.00  0.00
   2   2  0.00  1.00 -1.00  1.00  0.00 -1.00  0.00  0.00 -1.00  0.00  0.00  0.00
   3   4  0.00 -1.00  0.00  0.00 -1.00  1.00  1.00 -1.00  0.00  0.00  0.00  0.00
   4   3 -1.00  0.00  1.00 -1.00  0.00  0.00 -1.00  1.00  0.00  0.00  0.00  0.00

 DIRECT LATTICE VECTORS CARTESIAN COMPONENTS (ANGSTROM)
          X                    Y                    Z
  -0.571930903985E+01   0.571930903985E+01   0.587120423560E+01
   0.571930903985E+01  -0.571930903985E+01   0.587120423560E+01
   0.571930903985E+01   0.571930903985E+01  -0.587120423560E+01


 CARTESIAN COORDINATES - PRIMITIVE CELL
 *******************************************************************************
 *      ATOM          X(ANGSTROM)         Y(ANGSTROM)         Z(ANGSTROM)
 *******************************************************************************
    1     1 H     1.126246336127E+00 -2.471084663758E+00  4.363126715644E+00
    2     1 H    -1.126246336127E+00  2.471084663758E+00  4.363126715644E+00
    3     1 H    -2.471084663758E+00 -1.126246336127E+00 -4.363126715644E+00
    4     1 H     2.471084663758E+00  1.126246336127E+00 -4.363126715644E+00
    5     1 H    -3.661501647312E-01  4.049728344937E+00 -9.497259971507E-01
    6     1 H     3.661501647312E-01 -4.049728344937E+00 -9.497259971507E-01
    7     1 H     4.049728344937E+00  3.661501647312E-01  9.497259971507E-01
    8     1 H    -4.049728344937E+00 -3.661501647312E-01  9.497259971507E-01
    9     6 C    -2.514208253918E+00  3.862706939334E+00 -1.271702837431E+00
   10     6 C     2.514208253918E+00 -3.862706939334E+00 -1.271702837431E+00
   11     6 C     3.862706939334E+00  2.514208253918E+00  1.271702837431E+00
   12     6 C    -3.862706939334E+00 -2.514208253918E+00  1.271702837431E+00
   13     6 C     2.973926314541E+00 -4.316934463279E-01  4.522823470852E+00
   14     6 C    -2.973926314541E+00  4.316934463279E-01  4.522823470852E+00
   15     6 C    -4.316934463279E-01 -2.973926314541E+00 -4.522823470852E+00
   16     6 C     4.316934463279E-01  2.973926314541E+00 -4.522823470852E+00
   17     6 C    -3.552491617012E+00  2.936750805782E+00 -1.413785979932E+00
   18     6 C     3.552491617012E+00 -2.936750805782E+00 -1.413785979932E+00
   19     6 C     2.936750805782E+00  3.552491617012E+00  1.413785979932E+00
   20     6 C    -2.936750805782E+00 -3.552491617012E+00  1.413785979932E+00
   21     6 C    -1.867926332415E+00  1.210777723736E+00 -1.503967676991E+00
   22     6 C     1.867926332415E+00 -1.210777723736E+00 -1.503967676991E+00
   23     6 C     1.210777723736E+00  1.867926332415E+00  1.503967676991E+00
   24     6 C    -1.210777723736E+00 -1.867926332415E+00  1.503967676991E+00
   25     6 C    -1.200482967465E+00  3.377938305116E+00 -1.163085559072E+00
   26     6 C     1.200482967465E+00 -3.377938305116E+00 -1.163085559072E+00
   27     6 C     3.377938305116E+00  1.200482967465E+00  1.163085559072E+00
   28     6 C    -3.377938305116E+00 -1.200482967465E+00  1.163085559072E+00
   29     6 C     3.217797652000E+00 -1.595344063576E+00 -1.479543467371E+00
   30     6 C    -3.217797652000E+00  1.595344063576E+00 -1.479543467371E+00
   31     6 C    -1.595344063576E+00 -3.217797652000E+00  1.479543467371E+00
   32     6 C     1.595344063576E+00  3.217797652000E+00  1.479543467371E+00
   33     7 N     3.921615822444E+00  4.152218362931E-01  4.034456702535E+00
   34     7 N    -3.921615822444E+00 -4.152218362931E-01  4.034456702535E+00
   35     7 N     4.152218362931E-01 -3.921615822444E+00 -4.034456702535E+00
   36     7 N    -4.152218362931E-01  3.921615822444E+00 -4.034456702535E+00
   37     7 N    -2.356812869141E+00 -4.038518499219E+00 -1.796823344263E+00
   38     7 N     2.356812869141E+00  4.038518499219E+00 -1.796823344263E+00
   39     7 N    -4.038518499219E+00  2.356812869141E+00  1.796823344263E+00
   40     7 N     4.038518499219E+00 -2.356812869141E+00  1.796823344263E+00
   41     7 N     1.845392254798E+00  2.646896223643E-01  4.839046530982E+00
   42     7 N    -1.845392254798E+00 -2.646896223643E-01  4.839046530982E+00
   43     7 N     2.646896223643E-01 -1.845392254798E+00 -4.839046530982E+00
   44     7 N    -2.646896223643E-01  1.845392254798E+00 -4.839046530982E+00
   45     7 N     2.128955596994E+00  1.589624754536E+00  4.531982549460E+00
   46     7 N    -2.128955596994E+00 -1.589624754536E+00  4.531982549460E+00
   47     7 N     1.589624754536E+00 -2.128955596994E+00 -4.531982549460E+00
   48     7 N    -1.589624754536E+00  2.128955596994E+00 -4.531982549460E+00
   49     7 N    -8.892381695159E-01  2.085603234472E+00 -1.315619445113E+00
   50     7 N     8.892381695159E-01 -2.085603234472E+00 -1.315619445113E+00
   51     7 N     2.085603234472E+00  8.892381695159E-01  1.315619445113E+00
   52     7 N    -2.085603234472E+00 -8.892381695159E-01  1.315619445113E+00
   53    17 CL   -4.431549416437E+00  3.955474131960E-01 -1.566672138228E+00
   54    17 CL    4.431549416437E+00 -3.955474131960E-01 -1.566672138228E+00
   55    17 CL    3.955474131960E-01  4.431549416437E+00  1.566672138228E+00
   56    17 CL   -3.955474131960E-01 -4.431549416437E+00  1.566672138228E+00
   57    17 CL   -1.498687740802E+00 -4.514822556058E-01 -1.813614988377E+00
   58    17 CL    1.498687740802E+00  4.514822556058E-01 -1.813614988377E+00
   59    17 CL   -4.514822556058E-01  1.498687740802E+00  1.813614988377E+00
   60    17 CL    4.514822556058E-01 -1.498687740802E+00  1.813614988377E+00
   61    30 ZN    5.719309039850E+00 -4.700037766092E-16 -8.806806353400E+00
   62    30 ZN    0.000000000000E+00  0.000000000000E+00  5.871204235600E+00

 *******************************************************************************
 STARTING BASIS SET HANDLING 
 *******************************************************************************

 Loading internal basis set: POB-DZVPP           

 Please cite in your publication:
 Peintinger, M. F., Oliveira, D. V. and Bredow, T. (2013), Generally applicable 
 solid-state Gaussian basis sets, in preparation                                
                                                                                
                    

 *******************************************************************************
 LOCAL ATOMIC FUNCTIONS BASIS SET
 *******************************************************************************
   ATOM   X(AU)   Y(AU)   Z(AU)  N. TYPE  EXPONENT  S COEF   P COEF   D/F/G COEF
 *******************************************************************************
   1 H    2.128  -4.670   8.245
                                  1 S  
                                         2.263E+01 1.441E-02 0.000E+00 0.000E+00
                                         3.236E+00 1.072E-01 0.000E+00 0.000E+00
                                         7.304E-01 3.846E-01 0.000E+00 0.000E+00
                                  2 S  
                                         1.417E-01 1.000E+00 0.000E+00 0.000E+00
                           3-     5 P  
                                         3.944E-01 0.000E+00 1.000E+00 0.000E+00
                           6-     8 P  
                                         1.006E-01 0.000E+00 1.000E+00 0.000E+00
   2 H   -2.128   4.670   8.245
   3 H   -4.670  -2.128  -8.245
   4 H    4.670   2.128  -8.245
   5 H   -0.692   7.653  -1.795
   6 H    0.692  -7.653  -1.795
   7 H    7.653   0.692   1.795
   8 H   -7.653  -0.692   1.795
   9 C   -4.751   7.299  -2.403
                                 65 S  
                                         1.238E+03 5.457E-03 0.000E+00 0.000E+00
                                         1.863E+02 4.064E-02 0.000E+00 0.000E+00
                                         4.225E+01 1.803E-01 0.000E+00 0.000E+00
                                         1.168E+01 4.632E-01 0.000E+00 0.000E+00
                                         3.593E+00 4.409E-01 0.000E+00 0.000E+00
                                 66 S  
                                         5.281E+00 1.000E+00 0.000E+00 0.000E+00
                                 67 S  
                                         4.447E-01 1.000E+00 0.000E+00 0.000E+00
                          68-    70 P  
                                         9.468E+00 0.000E+00 3.839E-02 0.000E+00
                                         2.010E+00 0.000E+00 2.112E-01 0.000E+00
                                         5.477E-01 0.000E+00 5.133E-01 0.000E+00
                          71-    73 P  
                                         1.604E-01 0.000E+00 1.000E+00 0.000E+00
                          74-    78 D  
                                         6.070E-01 0.000E+00 0.000E+00 1.000E+00
                          79-    83 D  
                                         2.939E-01 0.000E+00 0.000E+00 1.000E+00
  10 C    4.751  -7.299  -2.403
  11 C    7.299   4.751   2.403
  12 C   -7.299  -4.751   2.403
  13 C    5.620  -0.816   8.547
  14 C   -5.620   0.816   8.547
  15 C   -0.816  -5.620  -8.547
  16 C    0.816   5.620  -8.547
  17 C   -6.713   5.550  -2.672
  18 C    6.713  -5.550  -2.672
  19 C    5.550   6.713   2.672
  20 C   -5.550  -6.713   2.672
  21 C   -3.530   2.288  -2.842
  22 C    3.530  -2.288  -2.842
  23 C    2.288   3.530   2.842
  24 C   -2.288  -3.530   2.842
  25 C   -2.269   6.383  -2.198
  26 C    2.269  -6.383  -2.198
  27 C    6.383   2.269   2.198
  28 C   -6.383  -2.269   2.198
  29 C    6.081  -3.015  -2.796
  30 C   -6.081   3.015  -2.796
  31 C   -3.015  -6.081   2.796
  32 C    3.015   6.081   2.796
  33 N    7.411   0.785   7.624
                                521 S  
                                         1.713E+03-5.393E-03 0.000E+00 0.000E+00
                                         2.576E+02-4.022E-02 0.000E+00 0.000E+00
                                         5.846E+01-1.793E-01 0.000E+00 0.000E+00
                                         1.620E+01-4.638E-01 0.000E+00 0.000E+00
                                         5.005E+00-4.417E-01 0.000E+00 0.000E+00
                                522 S  
                                         6.217E-01 1.000E+00 0.000E+00 0.000E+00
                                523 S  
                                         2.921E-01 1.000E+00 0.000E+00 0.000E+00
                         524-   526 P  
                                         1.357E+01 0.000E+00-4.007E-02 0.000E+00
                                         2.926E+00 0.000E+00-2.181E-01 0.000E+00
                                         7.993E-01 0.000E+00-5.129E-01 0.000E+00
                         527-   529 P  
                                         2.244E-01 0.000E+00 1.000E+00 0.000E+00
                         530-   534 D  
                                         3.118E-01 0.000E+00 0.000E+00 1.000E+00
  34 N   -7.411  -0.785   7.624
  35 N    0.785  -7.411  -7.624
  36 N   -0.785   7.411  -7.624
  37 N   -4.454  -7.632  -3.396
  38 N    4.454   7.632  -3.396
  39 N   -7.632   4.454   3.396
  40 N    7.632  -4.454   3.396
  41 N    3.487   0.500   9.144
  42 N   -3.487  -0.500   9.144
  43 N    0.500  -3.487  -9.144
  44 N   -0.500   3.487  -9.144
  45 N    4.023   3.004   8.564
  46 N   -4.023  -3.004   8.564
  47 N    3.004  -4.023  -8.564
  48 N   -3.004   4.023  -8.564
  49 N   -1.680   3.941  -2.486
  50 N    1.680  -3.941  -2.486
  51 N    3.941   1.680   2.486
  52 N   -3.941  -1.680   2.486
  53 CL  -8.374   0.747  -2.961
                                801 S  
                                         1.045E+04 1.971E-03 0.000E+00 0.000E+00
                                         1.572E+03 1.475E-02 0.000E+00 0.000E+00
                                         3.571E+02 6.668E-02 0.000E+00 0.000E+00
                                         1.003E+02 1.723E-01 0.000E+00 0.000E+00
                                         3.081E+01 1.588E-01 0.000E+00 0.000E+00
                                802 S  
                                         5.192E+01-1.001E-01 0.000E+00 0.000E+00
                                         5.705E+00 6.084E-01 0.000E+00 0.000E+00
                                         2.351E+00 5.435E-01 0.000E+00 0.000E+00
                                803 S  
                                         4.886E-01 1.000E+00 0.000E+00 0.000E+00
                                804 S  
                                         1.984E-01 1.000E+00 0.000E+00 0.000E+00
                         805-   807 P  
                                         3.077E+02 0.000E+00-8.780E-03 0.000E+00
                                         7.210E+01 0.000E+00-6.356E-02 0.000E+00
                                         2.253E+01 0.000E+00-2.402E-01 0.000E+00
                                         7.899E+00 0.000E+00-4.780E-01 0.000E+00
                                         2.877E+00 0.000E+00-3.852E-01 0.000E+00
                         808-   810 P  
                                         9.483E-01 0.000E+00 1.000E+00 0.000E+00
                         811-   813 P  
                                         2.521E-01 0.000E+00 1.000E+00 0.000E+00
                         814-   818 D  
                                         9.722E-01 0.000E+00 0.000E+00 1.000E+00
                         819-   823 D  
                                         2.060E-01 0.000E+00 0.000E+00 1.000E+00
  54 CL   8.374  -0.747  -2.961
  55 CL   0.747   8.374   2.961
  56 CL  -0.747  -8.374   2.961
  57 CL  -2.832  -0.853  -3.427
  58 CL   2.832   0.853  -3.427
  59 CL  -0.853   2.832   3.427
  60 CL   0.853  -2.832   3.427
  61 ZN  10.808  -0.000 -16.642
                                985 S  
                                         8.200E+04 1.421E-03 0.000E+00 0.000E+00
                                         1.231E+04 1.089E-02 0.000E+00 0.000E+00
                                         2.801E+03 5.406E-02 0.000E+00 0.000E+00
                                         7.910E+02 1.885E-01 0.000E+00 0.000E+00
                                         2.576E+02 3.835E-01 0.000E+00 0.000E+00
                                         8.881E+01 2.972E-01 0.000E+00 0.000E+00
                                986 S  
                                         1.719E+02-1.105E-01 0.000E+00 0.000E+00
                                         2.030E+01 6.461E-01 0.000E+00 0.000E+00
                                         8.346E+00 4.422E-01 0.000E+00 0.000E+00
                                987 S  
                                         1.485E+01-2.271E-01 0.000E+00 0.000E+00
                                         2.450E+00 7.243E-01 0.000E+00 0.000E+00
                                         9.985E-01 4.484E-01 0.000E+00 0.000E+00
                                988 S  
                                         1.493E+00 1.000E+00 0.000E+00 0.000E+00
                                989 S  
                                         1.830E-01 1.000E+00 0.000E+00 0.000E+00
                         990-   992 P  
                                         1.072E+03 0.000E+00 9.277E-03 0.000E+00
                                         2.527E+02 0.000E+00 6.954E-02 0.000E+00
                                         8.010E+01 0.000E+00 2.716E-01 0.000E+00
                                         2.890E+01 0.000E+00 5.340E-01 0.000E+00
                                         1.077E+01 0.000E+00 3.450E-01 0.000E+00
                         993-   995 P  
                                         5.645E+00 0.000E+00 3.413E-01 0.000E+00
                                         2.168E+00 0.000E+00 5.639E-01 0.000E+00
                                         8.054E-01 0.000E+00 2.368E-01 0.000E+00
                         996-   998 P  
                                         2.721E-01 0.000E+00 1.000E+00 0.000E+00
                         999-  1003 D  
                                         5.609E+01 0.000E+00 0.000E+00 2.959E-02
                                         1.575E+01 0.000E+00 0.000E+00 1.587E-01
                                         5.312E+00 0.000E+00 0.000E+00 3.798E-01
                                         1.774E+00 0.000E+00 0.000E+00 4.690E-01
                        1004-  1008 D  
                                         5.073E-01 0.000E+00 0.000E+00 1.000E+00
                        1009-  1015 F  
                                         2.814E+00 0.000E+00 0.000E+00 1.000E+00
                        1016-  1022 F  
                                         1.300E+00 0.000E+00 0.000E+00 1.000E+00
  62 ZN   0.000   0.000  11.095

 *******************************************************************************
 FINISHED BASIS SET HANDLING 
 *******************************************************************************

 INFORMATION **** SET_MPP **** PCRYSTAL CALCULATION
 INFORMATION **** READM2 **** NEW DEFAULT: FOCK/KS MATRIX MIXING SET TO 30 %
 INFORMATION **** READM2 **** NEW DEFAULT: FULL DIRECT SCF MODE
 INFORMATION **** READM2 **** NEW DEFAULT: COULOMB BIPOLAR BUFFER SET TO 32 Mb
 INFORMATION **** READM2 **** NEW DEFAULT: EXCHANGE BIPOLAR BUFFER SET TO 32 Mb

 *******************************************************************************
 NEW DEFAULT: DFT INTEGRATION GRID INCREASED TO XLGRID
 NEW DEFAULT: DIIS ACCELERATOR ACTIVE
 USE KEYWORD NODIIS TO TURN IT OFF
 *******************************************************************************

 INFORMATION **** DFTD3_INPUT **** PERFORM DISPERSION CORRECTION DFT-D3(BJ) IN THE BECKE-JOHNSON DAMPING SCHEME

 PLEASE CITE:
 (1) DFT-D3 Reference
  S. Grimme, J. Antony, S. Ehrlich, and H. Krieg, J. Chem. Phys. 132 (2010), 154104
 (2) BJ-Damping Reference
  S. Grimme, S. Ehrlich, and L. Goerigk, J. Comput. Chem. 32 (2011), 1456-1465
 (3) General DFT-D Review
  S. Grimme, A. Hansen, J. G. Brandenburg, and C. Bannwarth,
  Chem. Rev. 116 (2016), 5105-5154

 INFORMATION **** TOLINTEG **** COULOMB AND EXCHANGE SERIES TOLERANCES MODIFIED
 INFORMATION **** BIPOSIZE **** COULOMB BIPOLAR BUFFER SET TO   100000000
 INFORMATION **** MAXCYCLE **** MAX NUMBER OF SCF CYCLES SET TO          50
 *******************************************************************************
 N. OF ATOMS PER CELL        62  COULOMB OVERLAP TOL         (T1) 10**  -12
 NUMBER OF SHELLS           416  COULOMB PENETRATION TOL     (T2) 10**  -12
 NUMBER OF AO              1060  EXCHANGE OVERLAP TOL        (T3) 10**   20
 N. OF ELECTRONS PER CELL   488  EXCHANGE PSEUDO OVP (F(G))  (T4) 10**   20
 CORE ELECTRONS PER CELL    204  EXCHANGE PSEUDO OVP (P(G))  (T5) 10**   20
 N. OF SYMMETRY OPERATORS     4  POLE ORDER IN MONO ZONE                  4
 *******************************************************************************
 TYPE OF CALCULATION :  RESTRICTED CLOSED SHELL
 KOHN-SHAM HAMILTONIAN

 (EXCHANGE)[CORRELATION] FUNCTIONAL:(PERDEW-BURKE-ERNZERHOF)[PERDEW-BURKE-ERNZERHOF]


 CAPPA:IS1  3;IS2  3;IS3  3; K PTS MONK NET   6; SYMMOPS:K SPACE   8;G SPACE   4

 *******************************************************************************
 MAX NUMBER OF SCF CYCLES      50  CONVERGENCE ON DELTAP        10**-16
 WEIGHT OF F(I) IN F(I+1)      30% CONVERGENCE ON ENERGY        10**- 6
 SHRINK. FACT.(MONKH.)    3  3  3  NUMBER OF K POINTS IN THE IBZ      6
 SHRINKING FACTOR(GILAT NET)    3  NUMBER OF K POINTS(GILAT NET)      6
 *******************************************************************************
 *** K POINTS COORDINATES (OBLIQUE COORDINATES IN UNITS OF IS =  3)
   1-R(  0  0  0)   2-C(  1  0  0)   3-C(  1  1  0)   4-C(  2  1  0)
   5-C(  2  1  1)   6-C(  2  2  1)

 DIRECT LATTICE VECTORS COMPON. (A.U.)     RECIP. LATTICE VECTORS COMPON. (A.U.) 
        X            Y            Z              X            Y            Z
  -10.8079278   10.8079278   11.0949681      0.0000000    0.2906748    0.2831547
   10.8079278  -10.8079278   11.0949681      0.2906748    0.0000000    0.2831547
   10.8079278   10.8079278  -11.0949681      0.2906748    0.2906748    0.0000000

 DISK SPACE FOR EIGENVECTORS (FTN 10)    12359600 REALS

 SYMMETRY ADAPTION OF THE BLOCH FUNCTIONS ENABLED
 TTTTTTTTTTTTTTTTTTTTTTTTTTTTTT gordsh1     TELAPSE        4.60 TCPU        0.08

 MATRIX SIZE: P(G) 1828800, F(G)  915130, P(G) IRR  231281, F(G) IRR  231281
 MAX G-VECTOR INDEX FOR 1- AND 2-ELECTRON INTEGRALS  59

 TTTTTTTTTTTTTTTTTTTTTTTTTTTTTT INPUT       TELAPSE        5.40 TCPU        0.88

 NEIGHBORS OF THE NON-EQUIVALENT ATOMS

 N = NUMBER OF NEIGHBORS AT DISTANCE R
    ATOM  N     R/ANG      R/AU   NEIGHBORS (ATOM LABELS AND CELL INDICES)
   1 H    1     1.0903     2.0603   17 C    0 1 0
   1 H    1     2.1504     4.0637   30 C    0 1 0
   1 H    1     2.1806     4.1208    9 C    0 1 0
   1 H    1     2.7544     5.2050   43 N    1 1 0
   1 H    1     2.7565     5.2091   13 C    0 0 0
   1 H    1     2.8108     5.3117   60 CL   0 0 0

   5 H    1     1.0922     2.0640   25 C    0 0 0
   5 H    1     2.0653     3.9028   49 N    0 0 0
   5 H    1     2.1801     4.1198    9 C    0 0 0
   5 H    1     2.6202     4.9514   61 ZN   1 0 0
   5 H    1     2.6538     5.0149   34 N    0 0 1
   5 H    1     2.6567     5.0205   55 CL   0 0 0

   9 C    1     1.3984     2.6427   17 C    0 0 0
   9 C    1     1.4045     2.6542   25 C    0 0 0
   9 C    1     1.4456     2.7317   13 C    0-1 0
   9 C    1     2.1801     4.1198    5 H    0 0 0
   9 C    1     2.1806     4.1208    1 H    0-1 0
   9 C    1     2.3831     4.5034   30 C    0 0 0

  13 C    1     1.3616     2.5730   33 N    0 0 0
  13 C    1     1.3633     2.5762   41 N    0 0 0
  13 C    1     1.4456     2.7317    9 C    0 1 0
  13 C    1     2.1908     4.1401   45 N    0 0 0
  13 C    1     2.1942     4.1465   37 N    1 1 1
  13 C    1     2.4633     4.6550   25 C    0 1 0

  17 C    1     1.0903     2.0603    1 H    0-1 0
  17 C    1     1.3841     2.6156   30 C    0 0 0
  17 C    1     1.3984     2.6427    9 C    0 0 0
  17 C    1     2.4061     4.5469   25 C    0 0 0
  17 C    1     2.4135     4.5608   21 C    0 0 0
  17 C    1     2.4864     4.6986   13 C    0-1 0

  21 C    1     1.3261     2.5060   49 N    0 0 0
  21 C    1     1.4038     2.6528   30 C    0 0 0
  21 C    1     1.7307     3.2706   57 CL   0 0 0
  21 C    1     2.2931     4.3333   25 C    0 0 0
  21 C    1     2.4135     4.5608   17 C    0 0 0
  21 C    1     2.6909     5.0850   53 CL   0 0 0

  25 C    1     1.0922     2.0640    5 H    0 0 0
  25 C    1     1.3380     2.5285   49 N    0 0 0
  25 C    1     1.4045     2.6542    9 C    0 0 0
  25 C    1     2.2931     4.3333   21 C    0 0 0
  25 C    1     2.4061     4.5469   17 C    0 0 0
  25 C    1     2.4633     4.6550   13 C    0-1 0

  29 C    1     1.3841     2.6156   18 C    0 0 0
  29 C    1     1.4038     2.6528   22 C    0 0 0
  29 C    1     1.7089     3.2293   54 CL   0 0 0
  29 C    1     2.1504     4.0637    2 H   -1 0 0
  29 C    1     2.3831     4.5034   10 C    0 0 0
  29 C    1     2.3852     4.5075   50 N    0 0 0

  33 N    1     1.3616     2.5730   13 C    0 0 0
  33 N    1     1.3842     2.6157   37 N    1 1 1
  33 N    1     2.1475     4.0581   61 ZN   1 1 0
  33 N    1     2.2001     4.1576   45 N    0 0 0
  33 N    1     2.2318     4.2174   41 N    0 0 0
  33 N    1     2.4482     4.6265    9 C    0 1 0

  37 N    1     1.3188     2.4922   45 N   -1-1-1
  37 N    1     1.3842     2.6157   33 N   -1-1-1
  37 N    1     2.1942     4.1465   13 C   -1-1-1
  37 N    1     2.2117     4.1795   41 N   -1-1-1
  37 N    1     2.8517     5.3889    6 H    0 0 0
  37 N    1     2.9507     5.5760   27 C   -1-1-1

  41 N    1     1.3633     2.5762   13 C    0 0 0
  41 N    1     1.3893     2.6254   45 N    0 0 0
  41 N    1     2.1309     4.0269   62 ZN   0 0 0
  41 N    1     2.2117     4.1795   37 N    1 1 1
  41 N    1     2.2318     4.2174   33 N    0 0 0
  41 N    1     2.5310     4.7829    9 C    0 1 0

  45 N    1     1.3188     2.4922   37 N    1 1 1
  45 N    1     1.3893     2.6254   41 N    0 0 0
  45 N    1     2.1908     4.1401   13 C    0 0 0
  45 N    1     2.2001     4.1576   33 N    0 0 0
  45 N    1     2.8878     5.4572   20 C    1 1 1
  45 N    1     2.9050     5.4896    4 H    1 1 0

  49 N    1     1.3261     2.5060   21 C    0 0 0
  49 N    1     1.3380     2.5285   25 C    0 0 0
  49 N    1     2.0653     3.9028    5 H    0 0 0
  49 N    1     2.3852     4.5075   30 C    0 0 0
  49 N    1     2.4084     4.5513    9 C    0 0 0
  49 N    1     2.6564     5.0198   57 CL   0 0 0

  53 CL   1     1.7089     3.2293   30 C    0 0 0
  53 CL   1     2.6567     5.0205    8 H    0 0 0
  53 CL   1     2.6909     5.0850   21 C    0 0 0
  53 CL   1     2.6933     5.0896   17 C    0 0 0
  53 CL   1     2.6943     5.0914   54 CL   0-1-1
  53 CL   1     2.8578     5.4005    1 H    0-1 0

  57 CL   1     1.7307     3.2706   21 C    0 0 0
  57 CL   1     2.6564     5.0198   49 N    0 0 0
  57 CL   1     2.6938     5.0905   30 C    0 0 0
  57 CL   1     2.8108     5.3117    3 H    0 0 0
  57 CL   1     2.9361     5.5484   50 N    0 0 0
  57 CL   1     3.0627     5.7877   53 CL   0 0 0

  61 ZN   4     2.1475     4.0581   33 N   -1-1 0   34 N   -1 0 1   35 N    0 0 1
                                    36 N   -1 0 0
  61 ZN   4     2.6202     4.9514    5 H   -1 0 0    6 H    0 0 1    7 H   -1-1 0
                                     8 H   -1 0 1
  61 ZN   4     3.1107     5.8784   37 N    0 0 1   38 N   -1 0 0   39 N   -1 0 1
                                    40 N   -1-1 0
  61 ZN   4     3.1725     5.9952   25 C   -1 0 0   26 C    0 0 1   27 C   -1-1 0
                                    28 C   -1 0 1
  61 ZN   4     3.2004     6.0479   13 C   -1-1 0   14 C   -1 0 1   15 C    0 0 1
                                    16 C   -1 0 0
  61 ZN   4     3.5407     6.6910    9 C   -1 0 0   10 C    0 0 1   11 C   -1-1 0
                                    12 C   -1 0 1

  62 ZN   4     2.1309     4.0269   41 N    0 0 0   42 N    0 0 0   43 N    1 1 0
                                    44 N    1 1 0
  62 ZN   4     2.9754     5.6226   45 N    0 0 0   46 N    0 0 0   47 N    1 1 0
                                    48 N    1 1 0
  62 ZN   4     3.1063     5.8700    1 H    0 0 0    2 H    0 0 0    3 H    1 1 0
                                     4 H    1 1 0
  62 ZN   4     3.2937     6.2243   13 C    0 0 0   14 C    0 0 0   15 C    1 1 0
                                    16 C    1 1 0
  62 ZN   4     3.7995     7.1801   17 C    0 1 0   18 C    1 0 0   19 C    0 0-1
                                    20 C    1 1 1
  62 ZN   4     3.9162     7.4006    9 C    0 1 0   10 C    1 0 0   11 C    0 0-1
                                    12 C    1 1 1


 SYMMETRY ALLOWED INTERNAL DEGREE(S) OF FREEDOM:  45
 TTTTTTTTTTTTTTTTTTTTTTTTTTTTTT SYMM        TELAPSE        5.42 TCPU        0.89
 TTTTTTTTTTTTTTTTTTTTTTTTTTTTTT INT_SCREEN  TELAPSE        5.43 TCPU        0.90
 INFORMATION **** EXCBUF **** EXCH. BIPO BUFFER: WORDS USED =           0

 DFT PARAMETERS

     ATOM       ELECTRONS   NET CHARGE   R(ANGSTROM)
   1   1  H       1.0000      0.0000     1.11000000
   9   6  C       6.0000      0.0000     0.77000000
  33   7  N       7.0000      0.0000     0.74000000
  53  17  CL     17.0000      0.0000     0.99000000
  61  30  ZN     30.0000      0.0000     1.37000000

 SIZE OF GRID=     468978
 TTTTTTTTTTTTTTTTTTTTTTTTTTTTTT MAKE_GRID2  TELAPSE        6.28 TCPU        1.75
 BECKE WEIGHT FUNCTION
 RADSAFE =     2.00
 TOLERANCES - DENSITY:10**- 6; POTENTIAL:10**- 9; GRID WGT:10**-14

 RADIAL INTEGRATION  - INTERVALS (POINTS,UPPER LIMIT):            1( 75,  4.0*R)

 ANGULAR INTEGRATION - INTERVALS (ACCURACY LEVEL [N. POINTS] UPPER LIMIT):
  1(  4[  86]   0.2)  2(  8[ 194]   0.5)  3( 12[ 350]   0.9)  4( 16[ 974]   3.5)
  5( 12[ 350]9999.0)
 TTTTTTTTTTTTTTTTTTTTTTTTTTTTTT INT_CALC    TELAPSE        6.33 TCPU        1.79
 EEEEEEEEEE INT_CALC TERMINATION  DATE 11 12 2023 TIME 09:16:01.1

 *******************************************************************************
 Z:\home\sanoj\Downloads\tmp_p\newconn.mol                                       
 CRYSTAL - SCF - TYPE OF CALCULATION :  RESTRICTED CLOSED SHELL
 *******************************************************************************

 CAPPA:IS1  3;IS2  3;IS3  3; K PTS MONK NET   6; SYMMOPS:K SPACE   8;G SPACE   4

 TTTTTTTTTTTTTTTTTTTTTTTTTTTTTT SDIK        TELAPSE        6.57 TCPU        2.04

 AAAAAAAAAAAAAAAAAAAAAAAAAAAAAAAAAAAAAAAAAAAAAAAAAAAAAAAAAAAAAAAAAAAAAAAAAAAAAAA
         ATOMIC WAVEFUNCTION(S)


 NUCLEAR CHARGE  1.0  SYMMETRY SPECIES            S
 N. ELECTRONS    1.0  NUMBER OF PRIMITIVE GTOS    4
                      NUMBER OF CONTRACTED GTOS   2
                      NUMBER OF CLOSED SHELLS     0
                      OPEN SHELL OCCUPATION       1

  ZNUC SCFIT  TOTAL HF ENERGY   KINETIC ENERGY   VIRIAL THEOREM ACCURACY
   1.0   1   -4.946643675E-01  4.917913167E-01 -2.005842012E+00  9.4E-17

 NUCLEAR CHARGE  6.0  SYMMETRY SPECIES            S    P
 N. ELECTRONS    6.0  NUMBER OF PRIMITIVE GTOS    7    4
                      NUMBER OF CONTRACTED GTOS   3    2
                      NUMBER OF CLOSED SHELLS     2    0
                      OPEN SHELL OCCUPATION       0    2

  ZNUC SCFIT  TOTAL HF ENERGY   KINETIC ENERGY   VIRIAL THEOREM ACCURACY
   6.0   6   -3.750912652E+01  3.905246519E+01 -1.960480378E+00  3.7E-06

 NUCLEAR CHARGE  7.0  SYMMETRY SPECIES            S    P
 N. ELECTRONS    7.0  NUMBER OF PRIMITIVE GTOS    7    4
                      NUMBER OF CONTRACTED GTOS   3    2
                      NUMBER OF CLOSED SHELLS     2    0
                      OPEN SHELL OCCUPATION       0    3

  ZNUC SCFIT  TOTAL HF ENERGY   KINETIC ENERGY   VIRIAL THEOREM ACCURACY
   7.0   9   -5.432196661E+01  5.425066284E+01 -2.001314339E+00  1.2E-06

 NUCLEAR CHARGE 17.0  SYMMETRY SPECIES            S    P
 N. ELECTRONS   17.0  NUMBER OF PRIMITIVE GTOS   10    7
                      NUMBER OF CONTRACTED GTOS   4    3
                      NUMBER OF CLOSED SHELLS     3    1
                      OPEN SHELL OCCUPATION       0    5

  ZNUC SCFIT  TOTAL HF ENERGY   KINETIC ENERGY   VIRIAL THEOREM ACCURACY
  17.0   9   -4.593005957E+02  4.593991532E+02 -1.999785464E+00  2.3E-06

 NUCLEAR CHARGE 30.0  SYMMETRY SPECIES            S    P    D
 N. ELECTRONS   30.0  NUMBER OF PRIMITIVE GTOS   14    9    5
                      NUMBER OF CONTRACTED GTOS   5    3    2
                      NUMBER OF CLOSED SHELLS     4    2    1
                      OPEN SHELL OCCUPATION       0    0    0

  ZNUC SCFIT  TOTAL HF ENERGY   KINETIC ENERGY   VIRIAL THEOREM ACCURACY
  30.0  10   -1.777404290E+03  1.777325716E+03 -2.000044209E+00  2.5E-06

 AAAAAAAAAAAAAAAAAAAAAAAAAAAAAAAAAAAAAAAAAAAAAAAAAAAAAAAAAAAAAAAAAAAAAAAAAAAAAAA

 TOTAL ATOMIC CHARGES:
   1.0000000   1.0000000   1.0000000   1.0000000   1.0000000   1.0000000
   1.0000000   1.0000000   6.0000000   6.0000000   6.0000000   6.0000000
   6.0000000   6.0000000   6.0000000   6.0000000   6.0000000   6.0000000
   6.0000000   6.0000000   6.0000000   6.0000000   6.0000000   6.0000000
   6.0000000   6.0000000   6.0000000   6.0000000   6.0000000   6.0000000
   6.0000000   6.0000000   7.0000000   7.0000000   7.0000000   7.0000000
   7.0000000   7.0000000   7.0000000   7.0000000   7.0000000   7.0000000
   7.0000000   7.0000000   7.0000000   7.0000000   7.0000000   7.0000000
   7.0000000   7.0000000   7.0000000   7.0000000  17.0000000  17.0000000
  17.0000000  17.0000000  17.0000000  17.0000000  17.0000000  17.0000000
  30.0000000  30.0000000
 TTTTTTTTTTTTTTTTTTTTTTTTTTTTTT MOQGAD      TELAPSE        8.32 TCPU        3.77
 TTTTTTTTTTTTTTTTTTTTTTTTTTTTTT SHELLXN     TELAPSE       84.40 TCPU       71.42
 TTTTTTTTTTTTTTTTTTTTTTTTTTTTTT MONMO3      TELAPSE       90.84 TCPU       77.84
 NUMERICALLY INTEGRATED DENSITY    487.9999194449
 TTTTTTTTTTTTTTTTTTTTTTTTTTTTTT NUMDFT      TELAPSE       93.14 TCPU       80.13
 CYC   0 ETOT(AU) -9.251414466568E+03 DETOT -9.25E+03 tst  0.00E+00 PX  1.00E+00
 TTTTTTTTTTTTTTTTTTTTTTTTTTTTTT DIIS        TELAPSE       93.23 TCPU       80.22
 TTTTTTTTTTTTTTTTTTTTTTTTTTTTTT FDIK        TELAPSE      136.89 TCPU      117.70
 INSULATING STATE
 TOP OF VALENCE BANDS -    BAND    244; K    1; EIG -1.3474355E-01 AU
 BOTTOM OF VIRTUAL BANDS - BAND    245; K    6; EIG -1.0112705E-01 AU
 INDIRECT ENERGY BAND GAP:   0.9148 eV
 BOTTOM OF VIRTUAL BANDS - BAND    245; K    1; EIG -9.6031928E-02 AU
 TTTTTTTTTTTTTTTTTTTTTTTTTTTTTT PDIG        TELAPSE      137.59 TCPU      118.41
 TOTAL ATOMIC CHARGES:
   1.2625534   1.2625534   1.2625534   1.2625534   1.3927495   1.3927495
   1.3927495   1.3927495   6.0399164   6.0399164   6.0399164   6.0399164
   5.4571643   5.4571643   5.4571643   5.4571643   6.2772125   6.2772125
   6.2772125   6.2772125   5.1420475   5.1420475   5.1420475   5.1420475
   5.8514736   5.8514736   5.8514736   5.8514736   5.4497809   5.4497809
   5.4497809   5.4497809   7.4133802   7.4133802   7.4133802   7.4133802
   7.1730247   7.1730247   7.1730247   7.1730247   7.3870202   7.3870202
   7.3870202   7.3870202   7.1694542   7.1694542   7.1694542   7.1694542
   7.5664901   7.5664901   7.5664901   7.5664901  17.2632686  17.2632686
  17.2632686  17.2632686  17.2592058  17.2592058  17.2592058  17.2592058
  27.7055828  27.8754501
 TTTTTTTTTTTTTTTTTTTTTTTTTTTTTT MOQGAD      TELAPSE      137.64 TCPU      118.46
 TTTTTTTTTTTTTTTTTTTTTTTTTTTTTT SHELLXN     TELAPSE      217.56 TCPU      198.07
 TTTTTTTTTTTTTTTTTTTTTTTTTTTTTT MONMO3      TELAPSE      222.15 TCPU      202.65
 NUMERICALLY INTEGRATED DENSITY    487.9999004017
 TTTTTTTTTTTTTTTTTTTTTTTTTTTTTT NUMDFT      TELAPSE      228.47 TCPU      208.96
 CYC   1 ETOT(AU) -9.245978810715E+03 DETOT  5.44E+00 tst  0.00E+00 PX  1.00E+00
 TTTTTTTTTTTTTTTTTTTTTTTTTTTTTT DIIS        TELAPSE      228.65 TCPU      209.13
 DIIS TEST: 0.10465E+02 AT SCF   CYCLE   1 - MIX   30 %
 TTTTTTTTTTTTTTTTTTTTTTTTTTTTTT FDIK        TELAPSE      244.08 TCPU      222.41
 INSULATING STATE
 TOP OF VALENCE BANDS -    BAND    244; K    1; EIG -1.6785868E-01 AU
 BOTTOM OF VIRTUAL BANDS - BAND    245; K    6; EIG -1.3372301E-01 AU
 INDIRECT ENERGY BAND GAP:   0.9289 eV
 BOTTOM OF VIRTUAL BANDS - BAND    245; K    1; EIG -1.3351856E-01 AU
 TTTTTTTTTTTTTTTTTTTTTTTTTTTTTT PDIG        TELAPSE      244.79 TCPU      223.11
 TOTAL ATOMIC CHARGES:
   1.2482101   1.2482101   1.2482101   1.2482101   1.4000866   1.4000866
   1.4000866   1.4000866   6.0315303   6.0315303   6.0315303   6.0315303
   6.2022713   6.2022713   6.2022713   6.2022713   6.1375788   6.1375788
   6.1375788   6.1375788   6.1626391   6.1626391   6.1626391   6.1626391
   6.1505060   6.1505060   6.1505060   6.1505060   5.8733274   5.8733274
   5.8733274   5.8733274   6.9240116   6.9240116   6.9240116   6.9240116
   6.8817784   6.8817784   6.8817784   6.8817784   6.8762007   6.8762007
   6.8762007   6.8762007   6.9127323   6.9127323   6.9127323   6.9127323
   6.1895428   6.1895428   6.1895428   6.1895428  17.1384376  17.1384376
  17.1384376  17.1384376  17.0452854  17.0452854  17.0452854  17.0452854
  29.7593751  29.5440716
 TTTTTTTTTTTTTTTTTTTTTTTTTTTTTT MOQGAD      TELAPSE      244.84 TCPU      223.16
 TTTTTTTTTTTTTTTTTTTTTTTTTTTTTT SHELLXN     TELAPSE      326.51 TCPU      302.52
 TTTTTTTTTTTTTTTTTTTTTTTTTTTTTT MONMO3      TELAPSE      331.39 TCPU      307.40
 NUMERICALLY INTEGRATED DENSITY    487.9998877107
 TTTTTTTTTTTTTTTTTTTTTTTTTTTTTT NUMDFT      TELAPSE      337.74 TCPU      313.73
 CYC   2 ETOT(AU) -9.245183691306E+03 DETOT  7.95E-01 tst  5.03E-02 PX  8.60E-01
 TTTTTTTTTTTTTTTTTTTTTTTTTTTTTT DIIS        TELAPSE      337.93 TCPU      313.91
 DIIS TEST: 0.13682E+02 AT SCF   CYCLE   2 - DIIS ACTIVE - HISTORY:     2 CYCLES
 TTTTTTTTTTTTTTTTTTTTTTTTTTTTTT FDIK        TELAPSE      353.63 TCPU      327.45
 INSULATING STATE
 TOP OF VALENCE BANDS -    BAND    244; K    5; EIG -2.3567177E-01 AU
 TOP OF VALENCE BANDS -    BAND    244; K    1; EIG -2.3786854E-01 AU
 BOTTOM OF VIRTUAL BANDS - BAND    245; K    6; EIG -1.2700234E-01 AU
 INDIRECT ENERGY BAND GAP:   2.9570 eV
 BOTTOM OF VIRTUAL BANDS - BAND    245; K    1; EIG -1.2160682E-01 AU
 TTTTTTTTTTTTTTTTTTTTTTTTTTTTTT PDIG        TELAPSE      354.34 TCPU      328.16
 TOTAL ATOMIC CHARGES:
   1.2076090   1.2076090   1.2076090   1.2076090   1.3130280   1.3130280
   1.3130280   1.3130280   5.9182251   5.9182251   5.9182251   5.9182251
   5.7318533   5.7318533   5.7318533   5.7318533   6.0984539   6.0984539
   6.0984539   6.0984539   5.5493607   5.5493607   5.5493607   5.5493607
   5.9867866   5.9867866   5.9867866   5.9867866   5.5175579   5.5175579
   5.5175579   5.5175579   7.1428466   7.1428466   7.1428466   7.1428466
   7.1320861   7.1320861   7.1320861   7.1320861   7.1297227   7.1297227
   7.1297227   7.1297227   7.0871281   7.0871281   7.0871281   7.0871281
   7.4202692   7.4202692   7.4202692   7.4202692  17.1722882  17.1722882
  17.1722882  17.1722882  17.1221263  17.1221263  17.1221263  17.1221263
  28.9386596  28.9439725
 TTTTTTTTTTTTTTTTTTTTTTTTTTTTTT MOQGAD      TELAPSE      354.39 TCPU      328.20
 TTTTTTTTTTTTTTTTTTTTTTTTTTTTTT SHELLXN     TELAPSE      436.01 TCPU      407.54
 TTTTTTTTTTTTTTTTTTTTTTTTTTTTTT MONMO3      TELAPSE      440.54 TCPU      412.05
 NUMERICALLY INTEGRATED DENSITY    487.9999019946
 TTTTTTTTTTTTTTTTTTTTTTTTTTTTTT NUMDFT      TELAPSE      446.95 TCPU      418.44
 CYC   3 ETOT(AU) -9.247633491539E+03 DETOT -2.45E+00 tst  4.20E-03 PX  6.66E-01
 TTTTTTTTTTTTTTTTTTTTTTTTTTTTTT DIIS        TELAPSE      447.11 TCPU      418.60
 DIIS TEST: 0.15223E+01 AT SCF   CYCLE   3 - DIIS ACTIVE - HISTORY:     3 CYCLES
 TTTTTTTTTTTTTTTTTTTTTTTTTTTTTT FDIK        TELAPSE      460.50 TCPU      429.84
 INSULATING STATE
 TOP OF VALENCE BANDS -    BAND    244; K    1; EIG -2.2412291E-01 AU
 BOTTOM OF VIRTUAL BANDS - BAND    245; K    6; EIG -1.2839472E-01 AU
 INDIRECT ENERGY BAND GAP:   2.6049 eV
 BOTTOM OF VIRTUAL BANDS - BAND    245; K    1; EIG -1.2325293E-01 AU
 TTTTTTTTTTTTTTTTTTTTTTTTTTTTTT PDIG        TELAPSE      461.19 TCPU      430.53
 TOTAL ATOMIC CHARGES:
   1.1966878   1.1966878   1.1966878   1.1966878   1.3386120   1.3386120
   1.3386120   1.3386120   6.0585312   6.0585312   6.0585312   6.0585312
   5.7545912   5.7545912   5.7545912   5.7545912   6.3146445   6.3146445
   6.3146445   6.3146445   5.5141313   5.5141313   5.5141313   5.5141313
   5.9549577   5.9549577   5.9549577   5.9549577   5.6657536   5.6657536
   5.6657536   5.6657536   7.2141430   7.2141430   7.2141430   7.2141430
   7.0456091   7.0456091   7.0456091   7.0456091   7.1984020   7.1984020
   7.1984020   7.1984020   7.1052779   7.1052779   7.1052779   7.1052779
   6.9356140   6.9356140   6.9356140   6.9356140  17.2188912  17.2188912
  17.2188912  17.2188912  17.1430003  17.1430003  17.1430003  17.1430003
  28.6545901  28.7100228
 TTTTTTTTTTTTTTTTTTTTTTTTTTTTTT MOQGAD      TELAPSE      461.24 TCPU      430.58
 TTTTTTTTTTTTTTTTTTTTTTTTTTTTTT SHELLXN     TELAPSE      543.45 TCPU      510.39
 TTTTTTTTTTTTTTTTTTTTTTTTTTTTTT MONMO3      TELAPSE      547.53 TCPU      514.43
 NUMERICALLY INTEGRATED DENSITY    487.9998988583
 TTTTTTTTTTTTTTTTTTTTTTTTTTTTTT NUMDFT      TELAPSE      553.89 TCPU      520.77
 CYC   4 ETOT(AU) -9.247698121095E+03 DETOT -6.46E-02 tst  1.17E-03 PX  1.39E-01
 TTTTTTTTTTTTTTTTTTTTTTTTTTTTTT DIIS        TELAPSE      554.06 TCPU      520.94
 DIIS TEST: 0.99898E+00 AT SCF   CYCLE   4 - DIIS ACTIVE - HISTORY:     4 CYCLES
 TTTTTTTTTTTTTTTTTTTTTTTTTTTTTT FDIK        TELAPSE      567.91 TCPU      532.63
 INSULATING STATE
 TOP OF VALENCE BANDS -    BAND    244; K    5; EIG -2.4294500E-01 AU
 TOP OF VALENCE BANDS -    BAND    244; K    1; EIG -2.4429864E-01 AU
 BOTTOM OF VIRTUAL BANDS - BAND    245; K    6; EIG -1.2783048E-01 AU
 INDIRECT ENERGY BAND GAP:   3.1324 eV
 BOTTOM OF VIRTUAL BANDS - BAND    245; K    1; EIG -1.2273604E-01 AU
 TTTTTTTTTTTTTTTTTTTTTTTTTTTTTT PDIG        TELAPSE      568.62 TCPU      533.33
 TOTAL ATOMIC CHARGES:
   1.2012292   1.2012292   1.2012292   1.2012292   1.3326672   1.3326672
   1.3326672   1.3326672   5.9957575   5.9957575   5.9957575   5.9957575
   5.7754988   5.7754988   5.7754988   5.7754988   6.1861668   6.1861668
   6.1861668   6.1861668   5.6241488   5.6241488   5.6241488   5.6241488
   6.0058447   6.0058447   6.0058447   6.0058447   5.6265934   5.6265934
   5.6265934   5.6265934   7.2056933   7.2056933   7.2056933   7.2056933
   7.0952201   7.0952201   7.0952201   7.0952201   7.1125700   7.1125700
   7.1125700   7.1125700   7.0476320   7.0476320   7.0476320   7.0476320
   7.0913016   7.0913016   7.0913016   7.0913016  17.1896479  17.1896479
  17.1896479  17.1896479  17.1378390  17.1378390  17.1378390  17.1378390
  28.7388132  28.7499456
 TTTTTTTTTTTTTTTTTTTTTTTTTTTTTT MOQGAD      TELAPSE      568.67 TCPU      533.38
 TTTTTTTTTTTTTTTTTTTTTTTTTTTTTT SHELLXN     TELAPSE      650.90 TCPU      613.12
 TTTTTTTTTTTTTTTTTTTTTTTTTTTTTT MONMO3      TELAPSE      654.88 TCPU      617.08
 NUMERICALLY INTEGRATED DENSITY    487.9998989394
 TTTTTTTTTTTTTTTTTTTTTTTTTTTTTT NUMDFT      TELAPSE      661.28 TCPU      623.46
 CYC   5 ETOT(AU) -9.247839022952E+03 DETOT -1.41E-01 tst  4.65E-04 PX  9.67E-02
 TTTTTTTTTTTTTTTTTTTTTTTTTTTTTT DIIS        TELAPSE      661.46 TCPU      623.62
 DIIS TEST: 0.92402E-01 AT SCF   CYCLE   5 - DIIS ACTIVE - HISTORY:     5 CYCLES
 TTTTTTTTTTTTTTTTTTTTTTTTTTTTTT FDIK        TELAPSE      675.56 TCPU      635.57
 INSULATING STATE
 TOP OF VALENCE BANDS -    BAND    244; K    5; EIG -2.4006626E-01 AU
 TOP OF VALENCE BANDS -    BAND    244; K    1; EIG -2.4140622E-01 AU
 BOTTOM OF VIRTUAL BANDS - BAND    245; K    6; EIG -1.2779958E-01 AU
 INDIRECT ENERGY BAND GAP:   3.0549 eV
 BOTTOM OF VIRTUAL BANDS - BAND    245; K    1; EIG -1.2284579E-01 AU
 TTTTTTTTTTTTTTTTTTTTTTTTTTTTTT PDIG        TELAPSE      676.26 TCPU      636.27
 TOTAL ATOMIC CHARGES:
   1.2067254   1.2067254   1.2067254   1.2067254   1.3322484   1.3322484
   1.3322484   1.3322484   6.0094721   6.0094721   6.0094721   6.0094721
   5.7778628   5.7778628   5.7778628   5.7778628   6.2095840   6.2095840
   6.2095840   6.2095840   5.5744205   5.5744205   5.5744205   5.5744205
   5.9826073   5.9826073   5.9826073   5.9826073   5.6070984   5.6070984
   5.6070984   5.6070984   7.1486074   7.1486074   7.1486074   7.1486074
   7.0502539   7.0502539   7.0502539   7.0502539   7.1718974   7.1718974
   7.1718974   7.1718974   7.0965173   7.0965173   7.0965173   7.0965173
   7.1077746   7.1077746   7.1077746   7.1077746  17.1971784  17.1971784
  17.1971784  17.1971784  17.1394388  17.1394388  17.1394388  17.1394388
  28.7681797  28.7850739
 TTTTTTTTTTTTTTTTTTTTTTTTTTTTTT MOQGAD      TELAPSE      676.31 TCPU      636.31
 TTTTTTTTTTTTTTTTTTTTTTTTTTTTTT SHELLXN     TELAPSE      758.40 TCPU      716.09
 TTTTTTTTTTTTTTTTTTTTTTTTTTTTTT MONMO3      TELAPSE      762.65 TCPU      720.33
 NUMERICALLY INTEGRATED DENSITY    487.9998982489
 TTTTTTTTTTTTTTTTTTTTTTTTTTTTTT NUMDFT      TELAPSE      769.00 TCPU      726.66
 CYC   6 ETOT(AU) -9.247848865830E+03 DETOT -9.84E-03 tst  6.55E-05 PX  2.82E-02
 TTTTTTTTTTTTTTTTTTTTTTTTTTTTTT DIIS        TELAPSE      769.18 TCPU      726.84
 DIIS TEST: 0.33999E-01 AT SCF   CYCLE   6 - DIIS ACTIVE - HISTORY:     6 CYCLES
 TTTTTTTTTTTTTTTTTTTTTTTTTTTTTT FDIK        TELAPSE      781.13 TCPU      737.37
 INSULATING STATE
 TOP OF VALENCE BANDS -    BAND    244; K    5; EIG -2.3961605E-01 AU
 TOP OF VALENCE BANDS -    BAND    244; K    1; EIG -2.4046277E-01 AU
 BOTTOM OF VIRTUAL BANDS - BAND    245; K    6; EIG -1.2792492E-01 AU
 INDIRECT ENERGY BAND GAP:   3.0393 eV
 BOTTOM OF VIRTUAL BANDS - BAND    245; K    1; EIG -1.2276234E-01 AU
 TTTTTTTTTTTTTTTTTTTTTTTTTTTTTT PDIG        TELAPSE      781.84 TCPU      738.07
 TOTAL ATOMIC CHARGES:
   1.2049871   1.2049871   1.2049871   1.2049871   1.3341558   1.3341558
   1.3341558   1.3341558   6.0042546   6.0042546   6.0042546   6.0042546
   5.7785268   5.7785268   5.7785268   5.7785268   6.2064064   6.2064064
   6.2064064   6.2064064   5.5730766   5.5730766   5.5730766   5.5730766
   5.9897264   5.9897264   5.9897264   5.9897264   5.6161197   5.6161197
   5.6161197   5.6161197   7.1908821   7.1908821   7.1908821   7.1908821
   7.0898487   7.0898487   7.0898487   7.0898487   7.1309735   7.1309735
   7.1309735   7.1309735   7.0627566   7.0627566   7.0627566   7.0627566
   7.0987469   7.0987469   7.0987469   7.0987469  17.1954561  17.1954561
  17.1954561  17.1954561  17.1323316  17.1323316  17.1323316  17.1323316
  28.7739627  28.7930417
 TTTTTTTTTTTTTTTTTTTTTTTTTTTTTT MOQGAD      TELAPSE      781.89 TCPU      738.12
 TTTTTTTTTTTTTTTTTTTTTTTTTTTTTT SHELLXN     TELAPSE      863.70 TCPU      817.61
 TTTTTTTTTTTTTTTTTTTTTTTTTTTTTT MONMO3      TELAPSE      868.31 TCPU      822.20
 NUMERICALLY INTEGRATED DENSITY    487.9998990949
 TTTTTTTTTTTTTTTTTTTTTTTTTTTTTT NUMDFT      TELAPSE      874.67 TCPU      828.53
 CYC   7 ETOT(AU) -9.247851842278E+03 DETOT -2.98E-03 tst  3.55E-05 PX  1.43E-02
 TTTTTTTTTTTTTTTTTTTTTTTTTTTTTT DIIS        TELAPSE      874.84 TCPU      828.71
 DIIS TEST: 0.12272E-01 AT SCF   CYCLE   7 - DIIS ACTIVE - HISTORY:     7 CYCLES
 TTTTTTTTTTTTTTTTTTTTTTTTTTTTTT FDIK        TELAPSE      888.89 TCPU      840.37
 INSULATING STATE
 TOP OF VALENCE BANDS -    BAND    244; K    5; EIG -2.4022818E-01 AU
 TOP OF VALENCE BANDS -    BAND    244; K    1; EIG -2.4124976E-01 AU
 BOTTOM OF VIRTUAL BANDS - BAND    245; K    6; EIG -1.2800623E-01 AU
 INDIRECT ENERGY BAND GAP:   3.0537 eV
 BOTTOM OF VIRTUAL BANDS - BAND    245; K    1; EIG -1.2296077E-01 AU
 TTTTTTTTTTTTTTTTTTTTTTTTTTTTTT PDIG        TELAPSE      889.58 TCPU      841.06
 TOTAL ATOMIC CHARGES:
   1.2051932   1.2051932   1.2051932   1.2051932   1.3317142   1.3317142
   1.3317142   1.3317142   5.9954929   5.9954929   5.9954929   5.9954929
   5.7793016   5.7793016   5.7793016   5.7793016   6.1996504   6.1996504
   6.1996504   6.1996504   5.5976203   5.5976203   5.5976203   5.5976203
   5.9876943   5.9876943   5.9876943   5.9876943   5.6206179   5.6206179
   5.6206179   5.6206179   7.1708083   7.1708083   7.1708083   7.1708083
   7.0706321   7.0706321   7.0706321   7.0706321   7.1465758   7.1465758
   7.1465758   7.1465758   7.0795261   7.0795261   7.0795261   7.0795261
   7.0984614   7.0984614   7.0984614   7.0984614  17.1919920  17.1919920
  17.1919920  17.1919920  17.1329950  17.1329950  17.1329950  17.1329950
  28.7739148  28.7929828
 TTTTTTTTTTTTTTTTTTTTTTTTTTTTTT MOQGAD      TELAPSE      889.63 TCPU      841.11
 TTTTTTTTTTTTTTTTTTTTTTTTTTTTTT SHELLXN     TELAPSE      971.98 TCPU      920.98
 TTTTTTTTTTTTTTTTTTTTTTTTTTTTTT MONMO3      TELAPSE      976.36 TCPU      925.35
 NUMERICALLY INTEGRATED DENSITY    487.9998987597
 TTTTTTTTTTTTTTTTTTTTTTTTTTTTTT NUMDFT      TELAPSE      982.79 TCPU      931.75
 CYC   8 ETOT(AU) -9.247853358347E+03 DETOT -1.52E-03 tst  8.47E-06 PX  8.34E-03
 TTTTTTTTTTTTTTTTTTTTTTTTTTTTTT DIIS        TELAPSE      982.97 TCPU      931.93
 DIIS TEST: 0.26568E-02 AT SCF   CYCLE   8 - DIIS ACTIVE - HISTORY:     8 CYCLES
 TTTTTTTTTTTTTTTTTTTTTTTTTTTTTT FDIK        TELAPSE      995.11 TCPU      941.93
 INSULATING STATE
 TOP OF VALENCE BANDS -    BAND    244; K    5; EIG -2.4025739E-01 AU
 TOP OF VALENCE BANDS -    BAND    244; K    1; EIG -2.4132188E-01 AU
 BOTTOM OF VIRTUAL BANDS - BAND    245; K    6; EIG -1.2805236E-01 AU
 INDIRECT ENERGY BAND GAP:   3.0533 eV
 BOTTOM OF VIRTUAL BANDS - BAND    245; K    1; EIG -1.2296673E-01 AU
 TTTTTTTTTTTTTTTTTTTTTTTTTTTTTT PDIG        TELAPSE      995.82 TCPU      942.63
 TOTAL ATOMIC CHARGES:
   1.2046564   1.2046564   1.2046564   1.2046564   1.3310830   1.3310830
   1.3310830   1.3310830   6.0039959   6.0039959   6.0039959   6.0039959
   5.7794556   5.7794556   5.7794556   5.7794556   6.2009793   6.2009793
   6.2009793   6.2009793   5.5851784   5.5851784   5.5851784   5.5851784
   5.9933985   5.9933985   5.9933985   5.9933985   5.6117136   5.6117136
   5.6117136   5.6117136   7.1749253   7.1749253   7.1749253   7.1749253
   7.0712198   7.0712198   7.0712198   7.0712198   7.1456619   7.1456619
   7.1456619   7.1456619   7.0718028   7.0718028   7.0718028   7.0718028
   7.1010457   7.1010457   7.1010457   7.1010457  17.1951135  17.1951135
  17.1951135  17.1951135  17.1362962  17.1362962  17.1362962  17.1362962
  28.7791615  28.7947349
 TTTTTTTTTTTTTTTTTTTTTTTTTTTTTT MOQGAD      TELAPSE      995.87 TCPU      942.68
 TTTTTTTTTTTTTTTTTTTTTTTTTTTTTT SHELLXN     TELAPSE     1078.03 TCPU     1022.44
 TTTTTTTTTTTTTTTTTTTTTTTTTTTTTT MONMO3      TELAPSE     1081.68 TCPU     1026.09
 NUMERICALLY INTEGRATED DENSITY    487.9998986355
 TTTTTTTTTTTTTTTTTTTTTTTTTTTTTT NUMDFT      TELAPSE     1088.03 TCPU     1032.43
 CYC   9 ETOT(AU) -9.247853651990E+03 DETOT -2.94E-04 tst  1.68E-06 PX  3.47E-03
 TTTTTTTTTTTTTTTTTTTTTTTTTTTTTT DIIS        TELAPSE     1088.22 TCPU     1032.61
 DIIS TEST: 0.63142E-03 AT SCF   CYCLE   9 - DIIS ACTIVE - HISTORY:     9 CYCLES
 TTTTTTTTTTTTTTTTTTTTTTTTTTTTTT FDIK        TELAPSE     1101.90 TCPU     1044.16
 INSULATING STATE
 TOP OF VALENCE BANDS -    BAND    244; K    5; EIG -2.4022196E-01 AU
 TOP OF VALENCE BANDS -    BAND    244; K    1; EIG -2.4126704E-01 AU
 BOTTOM OF VIRTUAL BANDS - BAND    245; K    6; EIG -1.2794173E-01 AU
 INDIRECT ENERGY BAND GAP:   3.0553 eV
 BOTTOM OF VIRTUAL BANDS - BAND    245; K    1; EIG -1.2285946E-01 AU
 TTTTTTTTTTTTTTTTTTTTTTTTTTTTTT PDIG        TELAPSE     1102.60 TCPU     1044.86
 TOTAL ATOMIC CHARGES:
   1.2044365   1.2044365   1.2044365   1.2044365   1.3315419   1.3315419
   1.3315419   1.3315419   6.0007252   6.0007252   6.0007252   6.0007252
   5.7772418   5.7772418   5.7772418   5.7772418   6.2025589   6.2025589
   6.2025589   6.2025589   5.5863507   5.5863507   5.5863507   5.5863507
   5.9883658   5.9883658   5.9883658   5.9883658   5.6167905   5.6167905
   5.6167905   5.6167905   7.1742852   7.1742852   7.1742852   7.1742852
   7.0753872   7.0753872   7.0753872   7.0753872   7.1431444   7.1431444
   7.1431444   7.1431444   7.0747274   7.0747274   7.0747274   7.0747274
   7.1015684   7.1015684   7.1015684   7.1015684  17.1944341  17.1944341
  17.1944341  17.1944341  17.1351297  17.1351297  17.1351297  17.1351297
  28.7779637  28.7952854
 TTTTTTTTTTTTTTTTTTTTTTTTTTTTTT MOQGAD      TELAPSE     1102.65 TCPU     1044.91
 TTTTTTTTTTTTTTTTTTTTTTTTTTTTTT SHELLXN     TELAPSE     1183.84 TCPU     1124.70
 TTTTTTTTTTTTTTTTTTTTTTTTTTTTTT MONMO3      TELAPSE     1188.03 TCPU     1128.88
 NUMERICALLY INTEGRATED DENSITY    487.9998988306
 TTTTTTTTTTTTTTTTTTTTTTTTTTTTTT NUMDFT      TELAPSE     1194.37 TCPU     1135.20
 CYC  10 ETOT(AU) -9.247853732220E+03 DETOT -8.02E-05 tst  4.26E-07 PX  1.84E-03
 TTTTTTTTTTTTTTTTTTTTTTTTTTTTTT DIIS        TELAPSE     1194.59 TCPU     1135.42
 DIIS TEST: 0.12317E-03 AT SCF   CYCLE  10 - DIIS ACTIVE - HISTORY:    10 CYCLES
 TTTTTTTTTTTTTTTTTTTTTTTTTTTTTT FDIK        TELAPSE     1208.08 TCPU     1146.79
 INSULATING STATE
 TOP OF VALENCE BANDS -    BAND    244; K    5; EIG -2.4017823E-01 AU
 TOP OF VALENCE BANDS -    BAND    244; K    1; EIG -2.4121294E-01 AU
 BOTTOM OF VIRTUAL BANDS - BAND    245; K    6; EIG -1.2806087E-01 AU
 INDIRECT ENERGY BAND GAP:   3.0509 eV
 BOTTOM OF VIRTUAL BANDS - BAND    245; K    1; EIG -1.2298273E-01 AU
 TTTTTTTTTTTTTTTTTTTTTTTTTTTTTT PDIG        TELAPSE     1208.79 TCPU     1147.50
 TOTAL ATOMIC CHARGES:
   1.2047699   1.2047699   1.2047699   1.2047699   1.3315535   1.3315535
   1.3315535   1.3315535   6.0006101   6.0006101   6.0006101   6.0006101
   5.7790351   5.7790351   5.7790351   5.7790351   6.2012882   6.2012882
   6.2012882   6.2012882   5.5877677   5.5877677   5.5877677   5.5877677
   5.9900830   5.9900830   5.9900830   5.9900830   5.6156370   5.6156370
   5.6156370   5.6156370   7.1753445   7.1753445   7.1753445   7.1753445
   7.0731969   7.0731969   7.0731969   7.0731969   7.1447422   7.1447422
   7.1447422   7.1447422   7.0742302   7.0742302   7.0742302   7.0742302
   7.1006786   7.1006786   7.1006786   7.1006786  17.1939983  17.1939983
  17.1939983  17.1939983  17.1344175  17.1344175  17.1344175  17.1344175
  28.7767604  28.7938293
 TTTTTTTTTTTTTTTTTTTTTTTTTTTTTT MOQGAD      TELAPSE     1208.84 TCPU     1147.55
 TTTTTTTTTTTTTTTTTTTTTTTTTTTTTT SHELLXN     TELAPSE     1290.75 TCPU     1227.04
 TTTTTTTTTTTTTTTTTTTTTTTTTTTTTT MONMO3      TELAPSE     1295.12 TCPU     1231.39
 NUMERICALLY INTEGRATED DENSITY    487.9998987839
 TTTTTTTTTTTTTTTTTTTTTTTTTTTTTT NUMDFT      TELAPSE     1301.45 TCPU     1237.71
 CYC  11 ETOT(AU) -9.247853746920E+03 DETOT -1.47E-05 tst  5.82E-08 PX  9.56E-04
 TTTTTTTTTTTTTTTTTTTTTTTTTTTTTT DIIS        TELAPSE     1301.65 TCPU     1237.90
 DIIS TEST: 0.24169E-04 AT SCF   CYCLE  11 - DIIS ACTIVE - HISTORY:    11 CYCLES
 TTTTTTTTTTTTTTTTTTTTTTTTTTTTTT FDIK        TELAPSE     1314.68 TCPU     1248.80
 INSULATING STATE
 TOP OF VALENCE BANDS -    BAND    244; K    5; EIG -2.4019664E-01 AU
 TOP OF VALENCE BANDS -    BAND    244; K    1; EIG -2.4123125E-01 AU
 BOTTOM OF VIRTUAL BANDS - BAND    245; K    6; EIG -1.2798498E-01 AU
 INDIRECT ENERGY BAND GAP:   3.0534 eV
 BOTTOM OF VIRTUAL BANDS - BAND    245; K    1; EIG -1.2290659E-01 AU
 TTTTTTTTTTTTTTTTTTTTTTTTTTTTTT PDIG        TELAPSE     1315.37 TCPU     1249.49
 TOTAL ATOMIC CHARGES:
   1.2046699   1.2046699   1.2046699   1.2046699   1.3314694   1.3314694
   1.3314694   1.3314694   6.0010305   6.0010305   6.0010305   6.0010305
   5.7787507   5.7787507   5.7787507   5.7787507   6.2018732   6.2018732
   6.2018732   6.2018732   5.5871371   5.5871371   5.5871371   5.5871371
   5.9902315   5.9902315   5.9902315   5.9902315   5.6155856   5.6155856
   5.6155856   5.6155856   7.1738114   7.1738114   7.1738114   7.1738114
   7.0745022   7.0745022   7.0745022   7.0745022   7.1436305   7.1436305
   7.1436305   7.1436305   7.0743712   7.0743712   7.0743712   7.0743712
   7.1006861   7.1006861   7.1006861   7.1006861  17.1943420  17.1943420
  17.1943420  17.1943420  17.1348486  17.1348486  17.1348486  17.1348486
  28.7775688  28.7946716
 TTTTTTTTTTTTTTTTTTTTTTTTTTTTTT MOQGAD      TELAPSE     1315.42 TCPU     1249.54
 TTTTTTTTTTTTTTTTTTTTTTTTTTTTTT SHELLXN     TELAPSE     1397.46 TCPU     1329.12
 TTTTTTTTTTTTTTTTTTTTTTTTTTTTTT MONMO3      TELAPSE     1402.14 TCPU     1333.79
 NUMERICALLY INTEGRATED DENSITY    487.9998987758
 TTTTTTTTTTTTTTTTTTTTTTTTTTTTTT NUMDFT      TELAPSE     1408.45 TCPU     1340.08
 CYC  12 ETOT(AU) -9.247853748840E+03 DETOT -1.92E-06 tst  2.52E-08 PX  4.19E-04
 TTTTTTTTTTTTTTTTTTTTTTTTTTTTTT DIIS        TELAPSE     1408.63 TCPU     1340.27
 DIIS TEST: 0.10688E-04 AT SCF   CYCLE  12 - DIIS ACTIVE - HISTORY:    12 CYCLES
 TTTTTTTTTTTTTTTTTTTTTTTTTTTTTT FDIK        TELAPSE     1422.49 TCPU     1351.78
 INSULATING STATE
 TOP OF VALENCE BANDS -    BAND    244; K    5; EIG -2.4019481E-01 AU
 TOP OF VALENCE BANDS -    BAND    244; K    1; EIG -2.4123523E-01 AU
 BOTTOM OF VIRTUAL BANDS - BAND    245; K    6; EIG -1.2800257E-01 AU
 INDIRECT ENERGY BAND GAP:   3.0529 eV
 BOTTOM OF VIRTUAL BANDS - BAND    245; K    1; EIG -1.2292012E-01 AU
 TTTTTTTTTTTTTTTTTTTTTTTTTTTTTT PDIG        TELAPSE     1423.19 TCPU     1352.48
 TOTAL ATOMIC CHARGES:
   1.2046787   1.2046787   1.2046787   1.2046787   1.3315214   1.3315214
   1.3315214   1.3315214   6.0009789   6.0009789   6.0009789   6.0009789
   5.7782480   5.7782480   5.7782480   5.7782480   6.2016776   6.2016776
   6.2016776   6.2016776   5.5871057   5.5871057   5.5871057   5.5871057
   5.9896727   5.9896727   5.9896727   5.9896727   5.6158330   5.6158330
   5.6158330   5.6158330   7.1751369   7.1751369   7.1751369   7.1751369
   7.0735448   7.0735448   7.0735448   7.0735448   7.1443795   7.1443795
   7.1443795   7.1443795   7.0740930   7.0740930   7.0740930   7.0740930
   7.1009339   7.1009339   7.1009339   7.1009339  17.1943074  17.1943074
  17.1943074  17.1943074  17.1348835  17.1348835  17.1348835  17.1348835
  28.7774145  28.7946057
[...]
 DIIS TEST: 0.73669E+04 AT CPHF  CYCLE   2 - DIIS ACTIVE - HISTORY:     2 CYCLES
 CYCLE   2   ALPHA 1244.000293  EPSILON    4.015501  DELTA    1.4202E+03
 TTTTTTTTTTTTTTTTTTTTTTTTTTTTTT MOQGAD      TELAPSE   136548.68 TCPU   135622.23
 TTTTTTTTTTTTTTTTTTTTTTTTTTTTTT CP_MONMON   TELAPSE   136579.37 TCPU   135652.85
 DIIS TEST: 0.22197E+03 AT CPHF  CYCLE   3 - DIIS ACTIVE - HISTORY:     3 CYCLES
 CYCLE   3   ALPHA 1370.801477  EPSILON    4.322871  DELTA    1.2680E+02
 TTTTTTTTTTTTTTTTTTTTTTTTTTTTTT MOQGAD      TELAPSE   138088.85 TCPU   137152.91
 TTTTTTTTTTTTTTTTTTTTTTTTTTTTTT CP_MONMON   TELAPSE   138119.70 TCPU   137183.64
 DIIS TEST: 0.20281E+02 AT CPHF  CYCLE   4 - DIIS ACTIVE - HISTORY:     4 CYCLES
 CYCLE   4   ALPHA 1396.449759  EPSILON    4.385044  DELTA    2.5648E+01
 TTTTTTTTTTTTTTTTTTTTTTTTTTTTTT MOQGAD      TELAPSE   139622.52 TCPU   138675.16
 TTTTTTTTTTTTTTTTTTTTTTTTTTTTTT CP_MONMON   TELAPSE   139653.39 TCPU   138705.89
 DIIS TEST: 0.29014E+01 AT CPHF  CYCLE   5 - DIIS ACTIVE - HISTORY:     5 CYCLES
 CYCLE   5   ALPHA 1406.753641  EPSILON    4.410021  DELTA    1.0304E+01
 TTTTTTTTTTTTTTTTTTTTTTTTTTTTTT MOQGAD      TELAPSE   141152.87 TCPU   140199.53
 TTTTTTTTTTTTTTTTTTTTTTTTTTTTTT CP_MONMON   TELAPSE   141183.44 TCPU   140230.03
 DIIS TEST: 0.54641E+00 AT CPHF  CYCLE   6 - DIIS ACTIVE - HISTORY:     6 CYCLES
 CYCLE   6   ALPHA 1410.739881  EPSILON    4.419683  DELTA    3.9862E+00
 TTTTTTTTTTTTTTTTTTTTTTTTTTTTTT MOQGAD      TELAPSE   142685.38 TCPU   141722.68
 TTTTTTTTTTTTTTTTTTTTTTTTTTTTTT CP_MONMON   TELAPSE   142716.23 TCPU   141753.45
 DIIS TEST: 0.58412E-01 AT CPHF  CYCLE   7 - DIIS ACTIVE - HISTORY:     7 CYCLES
 CYCLE   7   ALPHA 1411.817602  EPSILON    4.422296  DELTA    1.0777E+00
 TTTTTTTTTTTTTTTTTTTTTTTTTTTTTT MOQGAD      TELAPSE   144221.39 TCPU   143251.95
 TTTTTTTTTTTTTTTTTTTTTTTTTTTTTT CP_MONMON   TELAPSE   144252.23 TCPU   143282.72
 DIIS TEST: 0.73155E-02 AT CPHF  CYCLE   8 - DIIS ACTIVE - HISTORY:     8 CYCLES
 CYCLE   8   ALPHA 1412.299656  EPSILON    4.423464  DELTA    4.8205E-01
 TTTTTTTTTTTTTTTTTTTTTTTTTTTTTT MOQGAD      TELAPSE   145751.00 TCPU   144774.40
 TTTTTTTTTTTTTTTTTTTTTTTTTTTTTT CP_MONMON   TELAPSE   145781.60 TCPU   144804.88
 DIIS TEST: 0.10359E-02 AT CPHF  CYCLE   9 - DIIS ACTIVE - HISTORY:     9 CYCLES
 CYCLE   9   ALPHA 1412.299659  EPSILON    4.423464  DELTA    2.7917E-06
 TTTTTTTTTTTTTTTTTTTTTTTTTTTTTT CP_SC       TELAPSE   145907.43 TCPU   144924.96

 *******************************************************************************

 ELECTRIC FIELD APPLIED ALONG CARTESIAN DIRECTION Z

 *******************************************************************************
 THE NUMBER OF SYMMETRY OPERATORS HAS BEEN REDUCED FROM  4 TO  1

 NEW GRID IN RECIPROCAL SPACE
 *******************************************************************************
 POINTS IN THE IBZ                  14 SHRINKING FACTORS               3  3  3
 *******************************************************************************
 *** K POINTS COORDINATES (OBLIQUE COORDINATES IN UNITS OF SHRINK FAC. )
   1-R(  0  0  0)   2-C(  1  0  0)   3-C(  0  1  2)   4-C(  2  0  1)
   5-C(  0  2  0)   6-C(  1  1  0)   7-C(  1  1  1)   8-C(  1  0  1)
   9-C(  0  1  1)  10-C(  2  1  0)  11-C(  0  0  2)  12-C(  2  1  1)
  13-C(  2  1  2)  14-C(  2  2  1)

 GCALCO - MAX INDICES DIRECT LATTICE VECTOR    14    14    15
 NO.OF VECTORS CREATED 6999 STARS  491 RMAX   205.45930 BOHR
 TTTTTTTTTTTTTTTTTTTTTTTTTTTTTT gordsh1     TELAPSE   145958.86 TCPU   144975.89

 MATRIX SIZE: P(G) 1828800, F(G)  915130, P(G) IRR  916832, F(G) IRR  916832
 MAX G-VECTOR INDEX FOR 1- AND 2-ELECTRON INTEGRALS  59

 TTTTTTTTTTTTTTTTTTTTTTTTTTTTTT INPUT       TELAPSE   145992.83 TCPU   145009.57
 TTTTTTTTTTTTTTTTTTTTTTTTTTTTTT SYMM        TELAPSE   145992.83 TCPU   145009.57

 ***** NEW REFERENCE GEOMETRY *****
 TTTTTTTTTTTTTTTTTTTTTTTTTTTTTT INT_SCREEN  TELAPSE   145992.85 TCPU   145009.59
 INFORMATION **** EXCBUF **** EXCH. BIPO BUFFER: WORDS USED =           0

 DFT PARAMETERS

     ATOM       ELECTRONS   NET CHARGE   R(ANGSTROM)
   1   1  H       1.0000      0.0000     1.11000000
   9   6  C       6.0000      0.0000     0.77000000
  33   7  N       7.0000      0.0000     0.74000000
  53  17  CL     17.0000      0.0000     0.99000000
  61  30  ZN     30.0000      0.0000     1.37000000

 SIZE OF GRID=    1875682
 TTTTTTTTTTTTTTTTTTTTTTTTTTTTTT MAKE_GRID2  TELAPSE   145995.16 TCPU   145011.90
 BECKE WEIGHT FUNCTION
 RADSAFE =     2.00
 TOLERANCES - DENSITY:10**- 6; POTENTIAL:10**- 9; GRID WGT:10**-14

 RADIAL INTEGRATION  - INTERVALS (POINTS,UPPER LIMIT):            1( 75,  4.0*R)

 ANGULAR INTEGRATION - INTERVALS (ACCURACY LEVEL [N. POINTS] UPPER LIMIT):
  1(  4[  86]   0.2)  2(  8[ 194]   0.5)  3( 12[ 350]   0.9)  4( 16[ 974]   3.5)
  5( 12[ 350]9999.0)
 TTTTTTTTTTTTTTTTTTTTTTTTTTTTTT INT_CALC    TELAPSE   145995.27 TCPU   145012.00
 CYCLE   0   ALPHA  756.204072  EPSILON    2.833065  DELTA    7.5620E+02
 TTTTTTTTTTTTTTTTTTTTTTTTTTTTTT MOQGAD      TELAPSE   147493.41 TCPU   146504.77
 TTTTTTTTTTTTTTTTTTTTTTTTTTTTTT CP_MONMON   TELAPSE   147524.18 TCPU   146535.47
 DIIS TEST: 0.91961E+02 AT CPHF  CYCLE   1 - MIX    0 %
 CYCLE   1   ALPHA  371.829087  EPSILON    1.901327  DELTA   -3.8437E+02
 TTTTTTTTTTTTTTTTTTTTTTTTTTTTTT MOQGAD      TELAPSE   149047.31 TCPU   148049.46
 TTTTTTTTTTTTTTTTTTTTTTTTTTTTTT CP_MONMON   TELAPSE   149078.39 TCPU   148080.44
 DIIS TEST: 0.77237E+03 AT CPHF  CYCLE   2 - DIIS ACTIVE - HISTORY:     2 CYCLES
 CYCLE   2   ALPHA  543.115991  EPSILON    2.316532  DELTA    1.7129E+02
 TTTTTTTTTTTTTTTTTTTTTTTTTTTTTT MOQGAD      TELAPSE   150588.29 TCPU   149584.92
 TTTTTTTTTTTTTTTTTTTTTTTTTTTTTT CP_MONMON   TELAPSE   150619.38 TCPU   149615.90
 DIIS TEST: 0.43682E+02 AT CPHF  CYCLE   3 - DIIS ACTIVE - HISTORY:     3 CYCLES
 CYCLE   3   ALPHA  589.844417  EPSILON    2.429804  DELTA    4.6728E+01
 TTTTTTTTTTTTTTTTTTTTTTTTTTTTTT MOQGAD      TELAPSE   152135.17 TCPU   151123.50
 TTTTTTTTTTTTTTTTTTTTTTTTTTTTTT CP_MONMON   TELAPSE   152166.11 TCPU   151154.35
 DIIS TEST: 0.52601E+01 AT CPHF  CYCLE   4 - DIIS ACTIVE - HISTORY:     4 CYCLES
 CYCLE   4   ALPHA  591.406687  EPSILON    2.433591  DELTA    1.5623E+00
 TTTTTTTTTTTTTTTTTTTTTTTTTTTTTT MOQGAD      TELAPSE   153687.49 TCPU   152664.43
 TTTTTTTTTTTTTTTTTTTTTTTTTTTTTT CP_MONMON   TELAPSE   153718.53 TCPU   152695.40
 DIIS TEST: 0.19457E+00 AT CPHF  CYCLE   5 - DIIS ACTIVE - HISTORY:     5 CYCLES
 CYCLE   5   ALPHA  591.862985  EPSILON    2.434697  DELTA    4.5630E-01
 TTTTTTTTTTTTTTTTTTTTTTTTTTTTTT MOQGAD      TELAPSE   155236.58 TCPU   154203.83
 TTTTTTTTTTTTTTTTTTTTTTTTTTTTTT CP_MONMON   TELAPSE   155267.39 TCPU   154234.56
 DIIS TEST: 0.28133E-01 AT CPHF  CYCLE   6 - DIIS ACTIVE - HISTORY:     6 CYCLES
 CYCLE   6   ALPHA  592.161379  EPSILON    2.435420  DELTA    2.9839E-01
 TTTTTTTTTTTTTTTTTTTTTTTTTTTTTT MOQGAD      TELAPSE   156785.85 TCPU   155746.23
 TTTTTTTTTTTTTTTTTTTTTTTTTTTTTT CP_MONMON   TELAPSE   156816.89 TCPU   155777.20
 DIIS TEST: 0.67766E-02 AT CPHF  CYCLE   7 - DIIS ACTIVE - HISTORY:     7 CYCLES
 CYCLE   7   ALPHA  592.218601  EPSILON    2.435559  DELTA    5.7222E-02
 TTTTTTTTTTTTTTTTTTTTTTTTTTTTTT MOQGAD      TELAPSE   158340.59 TCPU   157293.38
 TTTTTTTTTTTTTTTTTTTTTTTTTTTTTT CP_MONMON   TELAPSE   158371.55 TCPU   157324.20
 DIIS TEST: 0.78877E-03 AT CPHF  CYCLE   8 - DIIS ACTIVE - HISTORY:     8 CYCLES
 CYCLE   8   ALPHA  592.216061  EPSILON    2.435553  DELTA   -2.5398E-03
 TTTTTTTTTTTTTTTTTTTTTTTTTTTTTT MOQGAD      TELAPSE   159890.47 TCPU   158833.11
 TTTTTTTTTTTTTTTTTTTTTTTTTTTTTT CP_MONMON   TELAPSE   159921.31 TCPU   158863.84
 DIIS TEST: 0.11946E-03 AT CPHF  CYCLE   9 - DIIS ACTIVE - HISTORY:     9 CYCLES
 CYCLE   9   ALPHA  592.203410  EPSILON    2.435522  DELTA   -1.2650E-02
 TTTTTTTTTTTTTTTTTTTTTTTTTTTTTT MOQGAD      TELAPSE   161436.98 TCPU   160369.50
 TTTTTTTTTTTTTTTTTTTTTTTTTTTTTT CP_MONMON   TELAPSE   161467.75 TCPU   160400.14
 DIIS TEST: 0.29057E-04 AT CPHF  CYCLE  10 - DIIS ACTIVE - HISTORY:    10 CYCLES
 CYCLE  10   ALPHA  592.200742  EPSILON    2.435516  DELTA   -2.6688E-03
 TTTTTTTTTTTTTTTTTTTTTTTTTTTTTT MOQGAD      TELAPSE   162983.19 TCPU   161908.20
 TTTTTTTTTTTTTTTTTTTTTTTTTTTTTT CP_MONMON   TELAPSE   163014.12 TCPU   161939.05
 DIIS TEST: 0.44589E-05 AT CPHF  CYCLE  11 - DIIS ACTIVE - HISTORY:    11 CYCLES
 CYCLE  11   ALPHA  592.197541  EPSILON    2.435508  DELTA   -3.2009E-03
 TTTTTTTTTTTTTTTTTTTTTTTTTTTTTT MOQGAD      TELAPSE   164527.91 TCPU   163446.98
 TTTTTTTTTTTTTTTTTTTTTTTTTTTTTT CP_MONMON   TELAPSE   164558.96 TCPU   163477.96
 DIIS TEST: 0.26498E-06 AT CPHF  CYCLE  12 - DIIS ACTIVE - HISTORY:    12 CYCLES
 CYCLE  12   ALPHA  592.197333  EPSILON    2.435507  DELTA   -2.0716E-04
 TTTTTTTTTTTTTTTTTTTTTTTTTTTTTT CP_SC       TELAPSE   164670.41 TCPU   163587.54

 *******************************************************************************

 POLARIZABILITY (ALPHA), DIELECTRIC (EPSILON) AND FIRST-ORDER ELECTRIC
 SUSCEPTIBILITY (CHI(1)) TENSORS (INDEPENDENT COMPONENTS)

  FR.(eV) COMP.   ALPHA(Re,Im)           EPSILON(Re,Im)                CHI(1)
  2.331   XX    1412.2995       0.0000       4.4235       0.0000       3.4235
  2.331   XY      -0.0015       0.0000      -0.0000       0.0000      -0.0000
  2.331   XZ      -0.0000       0.0000      -0.0000       0.0000      -0.0000
  2.331   YY    1412.2997       0.0000       4.4235       0.0000       3.4235
  2.331   YZ      -0.0000       0.0000      -0.0000       0.0000      -0.0000
  2.331   ZZ     592.1973       0.0000       2.4355       0.0000       1.4355

 DIELECTRIC TENSOR

 TENSOR IN PRINCIPAL AXES SYSTEM
 AA  4.423460E+00 BB  4.423468E+00 CC  2.435507E+00

 REFRACTIVE INDICES 
 AA  1.560611E+00 BB  2.103202E+00 CC  2.103204E+00

 OPTICALLY ANISOTROPIC - UNIAXIAL CRYSTAL

 BIREFRINGENCE =  0.5426 (NEGATIVE) - OBLATE OPTICAL ELLIPSOID

 EPSILON=N**2=1+CHI(1)=1+ALPHA*4*PI/V,   4*PI/V=   0.00242 BOHR**(-3)
 ALPHA IN BOHR**3; EPSILON AND CHI(1) ARE DIMENSIONLESS.
 *******************************************************************************


  Pockels Effect beta(-omega;omega,0) with omega=   1.1653 eV


 SIZE OF GRID=    1875682
 TTTTTTTTTTTTTTTTTTTTTTTTTTTTTT MAKE_GRID2  TELAPSE   165191.29 TCPU   164104.61
 BECKE WEIGHT FUNCTION
 RADSAFE =     2.00
 TOLERANCES - DENSITY:10**- 6; POTENTIAL:10**- 9; GRID WGT:10**-14

 RADIAL INTEGRATION  - INTERVALS (POINTS,UPPER LIMIT):            1( 75,  4.0*R)

 ANGULAR INTEGRATION - INTERVALS (ACCURACY LEVEL [N. POINTS] UPPER LIMIT):
  1(  4[  86]   0.2)  2(  8[ 194]   0.5)  3( 12[ 350]   0.9)  4( 16[ 974]   3.5)
  5( 12[ 350]9999.0)

 SIZE OF GRID=    1875682
 TTTTTTTTTTTTTTTTTTTTTTTTTTTTTT MAKE_GRID2  TELAPSE   165194.92 TCPU   164107.35
 BECKE WEIGHT FUNCTION
 RADSAFE =     2.00
 TOLERANCES - DENSITY:10**- 6; POTENTIAL:10**- 9; GRID WGT:10**-14

 RADIAL INTEGRATION  - INTERVALS (POINTS,UPPER LIMIT):            1( 75,  4.0*R)

 ANGULAR INTEGRATION - INTERVALS (ACCURACY LEVEL [N. POINTS] UPPER LIMIT):
  1(  4[  86]   0.2)  2(  8[ 194]   0.5)  3( 12[ 350]   0.9)  4( 16[ 974]   3.5)
  5( 12[ 350]9999.0)
 *******************************************************************************

 DC-POCKELS AND SECOND ELECTRIC SUSCEPTIBILITY (CHI(2))
 TENSORS (INDEPENDENT COMPONENTS)

BETA                                         CHI(2)       d(MKS)       d(cgs)
 *******************************************************************************

     XXX          0.7079E-03   0.8580E-06   0.8342E-06   0.1990E-07
     XXY         -0.2580E-03  -0.3127E-06  -0.3040E-06  -0.7253E-08
     XXZ         -0.8778E+02  -0.1064E+00  -0.1034E+00  -0.2468E-02
     XYX         -0.2718E-03  -0.3294E-06  -0.3203E-06  -0.7642E-08
     XYY          0.2763E-05   0.3349E-08   0.3256E-08   0.7768E-10
     XYZ         -0.4388E+03  -0.5318E+00  -0.5171E+00  -0.1234E-01
     XZX         -0.9414E+02  -0.1141E+00  -0.1109E+00  -0.2647E-02
     XZY         -0.4322E+03  -0.5238E+00  -0.5093E+00  -0.1215E-01
     XZZ          0.3820E-03   0.4630E-06   0.4502E-06   0.1074E-07
     YXX         -0.1854E-03  -0.2247E-06  -0.2185E-06  -0.5213E-08
     YXY          0.1127E-03   0.1366E-06   0.1328E-06   0.3169E-08
     YXZ         -0.4388E+03  -0.5318E+00  -0.5171E+00  -0.1234E-01
     YYX         -0.1689E-03  -0.2047E-06  -0.1990E-06  -0.4748E-08
     YYY          0.1006E-03   0.1220E-06   0.1186E-06   0.2830E-08
     YYZ          0.8776E+02   0.1064E+00   0.1034E+00   0.2468E-02
     YZX         -0.4322E+03  -0.5238E+00  -0.5093E+00  -0.1215E-01
     YZY          0.9413E+02   0.1141E+00   0.1109E+00   0.2646E-02
     YZZ          0.1727E-03   0.2093E-06   0.2035E-06   0.4856E-08
     ZXX         -0.9384E+02  -0.1137E+00  -0.1106E+00  -0.2638E-02
     ZXY         -0.4329E+03  -0.5247E+00  -0.5102E+00  -0.1217E-01
     ZXZ          0.3595E-03   0.4358E-06   0.4237E-06   0.1011E-07
     ZYX         -0.4329E+03  -0.5247E+00  -0.5102E+00  -0.1217E-01
     ZYY          0.9383E+02   0.1137E+00   0.1106E+00   0.2638E-02
     ZYZ          0.1686E-03   0.2043E-06   0.1987E-06   0.4739E-08
     ZZX          0.1249E-03   0.1514E-06   0.1472E-06   0.3512E-08
     ZZY          0.6196E-04   0.7510E-07   0.7302E-07   0.1742E-08
     ZZZ          0.8098E-03   0.9815E-06   0.9544E-06   0.2277E-07
 *******************************************************************************
 CHI(2) = BETA*2PI/V

 BETA AND CHI(2) IN A.U.:    [BETA] = M**(-1/2) L**(7/2) T
                             [CHI(2)] = 1/F
                             (L=LENGTH, M=MASS, T=TIME, F=FIELD INTENSITY)

 ELECTRIC SUSCEPTIBILITY IN THE SECOND HARMONIC GENERATION (SHG) CONVENTION IS:
                   d(A.U.)= 1/2 CHI(2)
                   d(MKS) = d(A.U.)/0.514220632 pm/V
                   d(CGS) = d(A.U.)/(4PI*1.7152535)  10**(-7) esu

 FIELD INTENSITY: 1 A.U. = 0.514220632*10**(11) V/m = 1.7152535*10**7 esu
 BEWARE:                CHI(2)=P/(E0*F**2)   (MKS)
                        CHI(2)=P/F**2        (CGS)
 WHERE P IS THE POLARIZATION VECTOR AND F IS THE APPLIED ELECTRIC FIELD.
 CONSISTENCY IS  PRESERVED BY MULTIPLYING THE CGS VALUE TIMES THE PERMITTIVITY
 OF THE VACUUM, E0 (CONVERSION FACTORS FROM www.physics.nist.gov/constants).
 IN PARENTHESIS: BETA BEFORE SYMMETRIZATION.

  SHG Effect beta(-2omega;omega,omega) with omega=   1.1653 eV


 SIZE OF GRID=    1875682
 TTTTTTTTTTTTTTTTTTTTTTTTTTTTTT MAKE_GRID2  TELAPSE   165631.54 TCPU   164542.04
 BECKE WEIGHT FUNCTION
 RADSAFE =     2.00
 TOLERANCES - DENSITY:10**- 6; POTENTIAL:10**- 9; GRID WGT:10**-14

 RADIAL INTEGRATION  - INTERVALS (POINTS,UPPER LIMIT):            1( 75,  4.0*R)

 ANGULAR INTEGRATION - INTERVALS (ACCURACY LEVEL [N. POINTS] UPPER LIMIT):
  1(  4[  86]   0.2)  2(  8[ 194]   0.5)  3( 12[ 350]   0.9)  4( 16[ 974]   3.5)
  5( 12[ 350]9999.0)

 SIZE OF GRID=    1875682
 TTTTTTTTTTTTTTTTTTTTTTTTTTTTTT MAKE_GRID2  TELAPSE   165634.19 TCPU   164544.69
 BECKE WEIGHT FUNCTION
 RADSAFE =     2.00
 TOLERANCES - DENSITY:10**- 6; POTENTIAL:10**- 9; GRID WGT:10**-14

 RADIAL INTEGRATION  - INTERVALS (POINTS,UPPER LIMIT):            1( 75,  4.0*R)

 ANGULAR INTEGRATION - INTERVALS (ACCURACY LEVEL [N. POINTS] UPPER LIMIT):
  1(  4[  86]   0.2)  2(  8[ 194]   0.5)  3( 12[ 350]   0.9)  4( 16[ 974]   3.5)
  5( 12[ 350]9999.0)
 *******************************************************************************

 SECOND HARMONIC GENERATION (SHG)  AND SECOND ELECTRIC SUSCEPTIBILITY (CHI(2))
 TENSORS (INDEPENDENT COMPONENTS)

BETA                                         CHI(2)       d(MKS)       d(cgs)
 *******************************************************************************

     XXX          0.1902E-02   0.2305E-05   0.2241E-05   0.5347E-07
     XXY         -0.1020E-03  -0.1236E-06  -0.1202E-06  -0.2867E-08
     XXZ         -0.9555E+02  -0.1158E+00  -0.1126E+00  -0.2686E-02
     XYX         -0.1020E-03  -0.1236E-06  -0.1202E-06  -0.2867E-08
     XYY         -0.2504E-03  -0.3035E-06  -0.2951E-06  -0.7041E-08
     XYZ         -0.5644E+03  -0.6841E+00  -0.6652E+00  -0.1587E-01
     XZX         -0.9555E+02  -0.1158E+00  -0.1126E+00  -0.2686E-02
     XZY         -0.5644E+03  -0.6841E+00  -0.6652E+00  -0.1587E-01
     XZZ          0.4243E-03   0.5142E-06   0.5000E-06   0.1193E-07
     YXX         -0.5329E-03  -0.6459E-06  -0.6280E-06  -0.1498E-07
     YXY          0.2116E-03   0.2565E-06   0.2494E-06   0.5950E-08
     YXZ         -0.5644E+03  -0.6841E+00  -0.6651E+00  -0.1587E-01
     YYX          0.2116E-03   0.2565E-06   0.2494E-06   0.5950E-08
     YYY         -0.4423E-03  -0.5361E-06  -0.5213E-06  -0.1244E-07
     YYZ          0.9554E+02   0.1158E+00   0.1126E+00   0.2686E-02
     YZX         -0.5644E+03  -0.6841E+00  -0.6651E+00  -0.1587E-01
     YZY          0.9554E+02   0.1158E+00   0.1126E+00   0.2686E-02
     YZZ          0.2186E-03   0.2649E-06   0.2576E-06   0.6145E-08
     ZXX         -0.1299E+03  -0.1574E+00  -0.1531E+00  -0.3652E-02
     ZXY         -0.6299E+03  -0.7635E+00  -0.7424E+00  -0.1771E-01
     ZXZ          0.2894E-03   0.3508E-06   0.3411E-06   0.8137E-08
     ZYX         -0.6299E+03  -0.7635E+00  -0.7424E+00  -0.1771E-01
     ZYY          0.1299E+03   0.1574E+00   0.1530E+00   0.3651E-02
     ZYZ          0.2481E-03   0.3007E-06   0.2924E-06   0.6975E-08
     ZZX          0.2894E-03   0.3508E-06   0.3411E-06   0.8137E-08
     ZZY          0.2481E-03   0.3007E-06   0.2924E-06   0.6975E-08
     ZZZ          0.2966E-03   0.3595E-06   0.3496E-06   0.8340E-08
 *******************************************************************************
 CHI(2) = BETA*2PI/V

 BETA AND CHI(2) IN A.U.:    [BETA] = M**(-1/2) L**(7/2) T
                             [CHI(2)] = 1/F
                             (L=LENGTH, M=MASS, T=TIME, F=FIELD INTENSITY)

 ELECTRIC SUSCEPTIBILITY IN THE SECOND HARMONIC GENERATION (SHG) CONVENTION IS:
                   d(A.U.)= 1/2 CHI(2)
                   d(MKS) = d(A.U.)/0.514220632 pm/V
                   d(CGS) = d(A.U.)/(4PI*1.7152535)  10**(-7) esu

 FIELD INTENSITY: 1 A.U. = 0.514220632*10**(11) V/m = 1.7152535*10**7 esu
 BEWARE:                CHI(2)=P/(E0*F**2)   (MKS)
                        CHI(2)=P/F**2        (CGS)
 WHERE P IS THE POLARIZATION VECTOR AND F IS THE APPLIED ELECTRIC FIELD.
 CONSISTENCY IS  PRESERVED BY MULTIPLYING THE CGS VALUE TIMES THE PERMITTIVITY
 OF THE VACUUM, E0 (CONVERSION FACTORS FROM www.physics.nist.gov/constants).
 IN PARENTHESIS: BETA BEFORE SYMMETRIZATION.

 *******************************************************************************


 GCALCO - MAX INDICES DIRECT LATTICE VECTOR    14    14    15
 NO.OF VECTORS CREATED 6999 STARS  491 RMAX   205.45930 BOHR

 CAPPA:IS1  3;IS2  3;IS3  3; K PTS MONK NET   6; SYMMOPS:K SPACE   8;G SPACE   4

 TTTTTTTTTTTTTTTTTTTTTTTTTTTTTT END         TELAPSE   165634.57 TCPU   164545.06
 EEEEEEEEEE TERMINATION  DATE 13 12 2023 TIME 07:16:29.3
NODE    0 CPU TIME =    164545.056
NODE    1 CPU TIME =    164868.227
NODE    2 CPU TIME =    164862.737
NODE    3 CPU TIME =    164825.098
NODE    4 CPU TIME =    164730.354
NODE    5 CPU TIME =    164835.010
NODE    6 CPU TIME =    164832.662
NODE    7 CPU TIME =    164804.568
NODE    8 CPU TIME =    164738.318
NODE    9 CPU TIME =    164831.521
NODE   10 CPU TIME =    164750.407
NODE   11 CPU TIME =    164747.838
NODE   12 CPU TIME =    164626.800
NODE   13 CPU TIME =    164704.293
NODE   14 CPU TIME =    164732.115
NODE   15 CPU TIME =    164746.509
NODE   16 CPU TIME =    164566.549
NODE   17 CPU TIME =    164719.775
NODE   18 CPU TIME =    164742.881
NODE   19 CPU TIME =    164749.641
NODE   20 CPU TIME =    164561.068
NODE   21 CPU TIME =    164700.063
NODE   22 CPU TIME =    164752.158
NODE   23 CPU TIME =    164731.199
    TOTAL CPU TIME =   3953704.851
trying normal rsh (/usr/bin/rsh)
exec: No such file or directory
trying normal rsh (/usr/bin/rsh)
exec: No such file or directory
trying normal rsh (/usr/bin/rsh)
exec: No such file or directory
trying normal rsh (/usr/bin/rsh)
exec: No such file or directory
