Loading crystal17/1.0.2/intel/19.0
  Loading requirement: intel/19.0 ompi/4.0.1/intel/19.0
 PROCESS            6  OF           24  WORKING
 PROCESS           14  OF           24  WORKING
 PROCESS           18  OF           24  WORKING
 PROCESS           22  OF           24  WORKING
 PROCESS            2  OF           24  WORKING
 PROCESS            7  OF           24  WORKING
 PROCESS           11  OF           24  WORKING
 PROCESS           10  OF           24  WORKING
 PROCESS            0  OF           24  WORKING
 PROCESS            8  OF           24  WORKING
 PROCESS            1  OF           24  WORKING
 PROCESS            3  OF           24  WORKING
 PROCESS            4  OF           24  WORKING
 PROCESS           23  OF           24  WORKING
 PROCESS            9  OF           24  WORKING
 PROCESS           13  OF           24  WORKING
 PROCESS           15  OF           24  WORKING
 PROCESS           20  OF           24  WORKING
 PROCESS           21  OF           24  WORKING
 PROCESS            5  OF           24  WORKING
 PROCESS           12  OF           24  WORKING
 PROCESS           16  OF           24  WORKING
 PROCESS           17  OF           24  WORKING
 PROCESS           19  OF           24  WORKING

         
 *******************************************************************************
 *                                                                             *
 *                               CRYSTAL17                                     *
 *                      public : 1.0.2 - March 1st, 2018                       *
 *                       HTTP://WWW.CRYSTAL.UNITO.IT                           *
 *                                                                             *
 *                              MAIN AUTHORS                                   *
 *                                                                             *
 *  R. DOVESI(1,11), V.R. SAUNDERS(2), C. ROETTI(1,11), R. ORLANDO(1,11),      *
 *  C.M. ZICOVICH-WILSON(1,3), F. PASCALE(4), B. CIVALLERI(1,11),              *
 *  K. DOLL(5), N.M. HARRISON(2,6), I.J. BUSH(7), Ph. D'ARCO(8),               *
 *  M. LLUNELL(9), M. CAUSA'(10), Y. NOEL(8), L. MASCHIO(1,11), A. ERBA(1,11)  *
 *  M. RE'RAT(14), S. CASASSA(1,11)                                            *
 *                                                                             *
 *        CONTRIBUTIONS TO THE CODE HAVE ALSO BEEN GIVEN BY                    *
 *                                                                             *
 *  M. FERRABONE(1,11), M. DE LA PIERRE(1,11), M. FERRERO(1,11),               *
 *  J. BAIMA(1,11), E. ALBANESE(1,11), M.F. PEINTINGER(12), R. BAST(13),       *
 *  B. KIRTMAN(15), V. LACIVITA(1,11), R. DEMICHELIS(1,16)                     *
 *  G. BRANDEBURG(17), S. SALUSTRO(1,11), G. SANSONE(1,11)                     *
 *  M.T. RUGGIERO(18)                                                          *
 *                                                                             *
 * (1) THEORETICAL CHEMISTRY GROUP - UNIVERSITA' DI TORINO - TORINO (ITALY)    *
 * (2) COMPUTATIONAL SCIENCE & ENGINEERING DEPARTMENT - STFC DARESBURY (UK)    *
 * (3) UNIVERSIDAD AUTONOMA DEL ESTADO DE MORELOS - CUERNAVACA (MEXICO)        *
 * (4) UNIVERSITE' DE LORRAINE - NANCY (FRANCE)                                *
 * (5) UNIVERSITAET STUTTGART- STUTTGART (GERMANY)                             *
 * (6) IMPERIAL COLLEGE - LONDON (UK)                                          *
 * (7) OXFORD E-RESEARCH CENTRE - OXFORD (UK)                                  *
 * (8) UPMC - SORBONNE UNIVERSITES - PARIS (FRANCE)                            *
 * (9) UNIVERSIDAD DE BARCELONA - BARCELONA (SPAIN)                            *
 *(10) UNIVERSITA' DI NAPOLI "FEDERICO II" - NAPOLI (ITALY)                    *
 *(11) NIS - NANOSTRUCTURED INTERFACES AND SURFACES - TORINO (ITALY)           *
 *(12) MPI FUER CHEMISCHE ENERGIEKONVERSION - MUELHEIM AN DER RUHR (GERMANY)   *
 *(13) UNIVERSITY OF TROMSO - TROMSO (NORWAY)                                  *
 *(14) UNIVERSITE' DE PAU ET DES PAYS DE L'ADOUR - PAU (FRANCE)                *
 *(15) UNIVERSITY OF CALIFORNIA SANTA BARBARA - SANTA BARBARA (USA)            *
 *(16) CURTIN UNIVERSITY - PERTH (AUSTRALIA)                                   *
 *(17) UNIVERSITY COLLEGE LONDON - LONDON (UK)                                 *
 *(18) CAMBRIDGE UNIVERSITY - CAMBRIDGE (UK)                                   *
 *                                                                             *
 *******************************************************************************
 EEEEEEEEEE STARTING  DATE 12 12 2023 TIME 00:47:28.2
 Z:\home\sanoj\Downloads\tmp_p\newconn.mol                                       

 CRYSTAL CALCULATION
 (INPUT ACCORDING TO THE INTERNATIONAL TABLES FOR X-RAY CRYSTALLOGRAPHY)
 CRYSTAL FAMILY                       :  TETRAGONAL  
 CRYSTAL CLASS  (GROTH - 1921)        :  TETRAGONAL DISPHENOIDAL              

 SPACE GROUP (NONCENTROSYMMETRIC)     :  I -4            

 LATTICE PARAMETERS  (ANGSTROMS AND DEGREES) - CONVENTIONAL CELL
        A           B           C        ALPHA        BETA       GAMMA
    11.64676    11.64676    13.14269    90.00000    90.00000    90.00000


 NUMBER OF IRREDUCIBLE ATOMS IN THE CONVENTIONAL CELL:   17

 INPUT COORDINATES

 ATOM AT. N.              COORDINATES
   1   6     2.638900000000E-01  8.168100000000E-01  3.851900000000E-01
   2   6     2.403900000000E-01 -6.022000000000E-02  3.735400000000E-01
   3   6     1.804100000000E-01  7.292200000000E-01  3.741900000000E-01
   4   6     3.301700000000E-01  5.857800000000E-01  3.770300000000E-01
   5   6     3.768800000000E-01  7.749000000000E-01  3.974800000000E-01
   6   6     7.860500000000E-01  3.864600000000E-01  3.665300000000E-01
   7   7     3.148200000000E-01  9.980000000000E-03  3.228200000000E-01
   8   7     2.685700000000E-01  1.181300000000E-01  3.268700000000E-01
   9   7     1.488100000000E-01  2.780000000000E-03  4.073000000000E-01
  10   7     1.702500000000E-01  1.141000000000E-01  3.771400000000E-01
  11   7     4.079700000000E-01  6.661200000000E-01  3.945600000000E-01
  12  17     3.662000000000E-02  7.634500000000E-01  3.704900000000E-01
  13  17     4.930900000000E-01  8.662900000000E-01  4.182500000000E-01
  14  17     1.198300000000E-01  5.049200000000E-01  3.461300000000E-01
  15  17     3.729400000000E-01  4.445800000000E-01  3.689000000000E-01
  16  30     0.000000000000E+00  5.000000000000E-01  7.500000000000E-01
  17  30     0.000000000000E+00  0.000000000000E+00  5.000000000000E-01

 *******************************************************************************

 << INFORMATION >>: FROM NOW ON, ALL COORDINATES REFER TO THE PRIMITIVE CELL

 *******************************************************************************

 LATTICE PARAMETERS  (ANGSTROMS AND DEGREES) - PRIMITIVE CELL
       A          B          C        ALPHA      BETA     GAMMA        VOLUME
   10.53594   10.53594   10.53594   112.89296 112.89296 102.82526    891.383141

 COORDINATES OF THE EQUIVALENT ATOMS (FRACTIONAL UNITS)

 N. ATOM EQUIV AT. N.          X                  Y                  Z

   1   1   1    6 C     2.02000000000E-01 -3.50920000000E-01  8.07000000000E-02
   2   1   2    6 C    -4.31620000000E-01  1.21300000000E-01 -8.07000000000E-02
   3   1   3    6 C     3.50920000000E-01  4.31620000000E-01 -4.47080000000E-01
   4   1   4    6 C    -1.21300000000E-01 -2.02000000000E-01  4.47080000000E-01

   5   2   1    6 C     3.13320000000E-01 -3.86070000000E-01  1.80170000000E-01
   6   2   2    6 C     4.33760000000E-01  1.33150000000E-01 -1.80170000000E-01
   7   2   3    6 C     3.86070000000E-01 -4.33760000000E-01 -3.00610000000E-01
   8   2   4    6 C    -1.33150000000E-01 -3.13320000000E-01  3.00610000000E-01

   9   3   1    6 C     1.03410000000E-01 -4.45400000000E-01 -9.03700000000E-02
  10   3   2    6 C    -3.55030000000E-01  1.93780000000E-01  9.03700000000E-02
  11   3   3    6 C     4.45400000000E-01  3.55030000000E-01 -4.51190000000E-01
  12   3   4    6 C    -1.93780000000E-01 -1.03410000000E-01  4.51190000000E-01

  13   4   1    6 C    -3.71900000000E-02 -2.92800000000E-01 -8.40500000000E-02
  14   4   2    6 C    -2.08750000000E-01  4.68600000000E-02  8.40500000000E-02
  15   4   3    6 C     2.92800000000E-01  2.08750000000E-01  2.55610000000E-01
  16   4   4    6 C    -4.68600000000E-02  3.71900000000E-02 -2.55610000000E-01

  17   5   1    6 C     1.72380000000E-01 -2.25640000000E-01  1.51780000000E-01
  18   5   2    6 C    -3.77420000000E-01  2.06000000000E-02 -1.51780000000E-01
  19   5   3    6 C     2.25640000000E-01  3.77420000000E-01  3.98020000000E-01
  20   5   4    6 C    -2.06000000000E-02 -1.72380000000E-01 -3.98020000000E-01

  21   6   1    6 C    -2.47010000000E-01  1.52580000000E-01  1.72510000000E-01
  22   6   2    6 C    -1.99300000000E-02 -4.19520000000E-01 -1.72510000000E-01
  23   6   3    6 C    -1.52580000000E-01  1.99300000000E-02 -3.99590000000E-01
  24   6   4    6 C     4.19520000000E-01  2.47010000000E-01  3.99590000000E-01

  25   7   1    7 N     3.32800000000E-01 -3.62360000000E-01  3.24800000000E-01
  26   7   2    7 N     3.12840000000E-01  8.00000000000E-03 -3.24800000000E-01
  27   7   3    7 N     3.62360000000E-01 -3.12840000000E-01 -3.04840000000E-01
  28   7   4    7 N    -8.00000000000E-03 -3.32800000000E-01  3.04840000000E-01

  29   8   1    7 N     4.45000000000E-01 -4.04560000000E-01  3.86700000000E-01
  30   8   2    7 N     2.08740000000E-01  5.83000000000E-02 -3.86700000000E-01
  31   8   3    7 N     4.04560000000E-01 -2.08740000000E-01 -1.50440000000E-01
  32   8   4    7 N    -5.83000000000E-02 -4.45000000000E-01  1.50440000000E-01

  33   9   1    7 N     4.10080000000E-01 -4.43890000000E-01  1.51590000000E-01
  34   9   2    7 N     4.04520000000E-01  2.58490000000E-01 -1.51590000000E-01
  35   9   3    7 N     4.43890000000E-01 -4.04520000000E-01 -1.46030000000E-01
  36   9   4    7 N    -2.58490000000E-01 -4.10080000000E-01  1.46030000000E-01

  37  10   1    7 N     4.91240000000E-01 -4.52610000000E-01  2.84350000000E-01
  38  10   2    7 N     2.63040000000E-01  2.06890000000E-01 -2.84350000000E-01
  39  10   3    7 N     4.52610000000E-01 -2.63040000000E-01 -5.61500000000E-02
  40  10   4    7 N    -2.06890000000E-01 -4.91240000000E-01  5.61500000000E-02

  41  11   1    7 N     6.06800000000E-02 -1.97470000000E-01  7.40900000000E-02
  42  11   2    7 N    -2.71560000000E-01 -1.34100000000E-02 -7.40900000000E-02
  43  11   3    7 N     1.97470000000E-01  2.71560000000E-01  2.58150000000E-01
  44  11   4    7 N     1.34100000000E-02 -6.06800000000E-02 -2.58150000000E-01

  45  12   1   17 CL    1.33940000000E-01  4.07110000000E-01 -1.99930000000E-01
  46  12   2   17 CL   -3.92960000000E-01  3.33870000000E-01  1.99930000000E-01
  47  12   3   17 CL   -4.07110000000E-01  3.92960000000E-01 -2.73170000000E-01
  48  12   4   17 CL   -3.33870000000E-01 -1.33940000000E-01  2.73170000000E-01

  49  13   1   17 CL    2.84540000000E-01 -8.86600000000E-02  3.59380000000E-01
  50  13   2   17 CL   -4.48040000000E-01 -7.48400000000E-02 -3.59380000000E-01
  51  13   3   17 CL    8.86600000000E-02  4.48040000000E-01  3.73200000000E-01
  52  13   4   17 CL    7.48400000000E-02 -2.84540000000E-01 -3.73200000000E-01

  53  14   1   17 CL   -1.48950000000E-01  4.65960000000E-01 -3.75250000000E-01
  54  14   2   17 CL   -1.58790000000E-01  2.26300000000E-01  3.75250000000E-01
  55  14   3   17 CL   -4.65960000000E-01  1.58790000000E-01  3.85090000000E-01
  56  14   4   17 CL   -2.26300000000E-01  1.48950000000E-01 -3.85090000000E-01

  57  15   1   17 CL   -1.86520000000E-01 -2.58160000000E-01 -1.82480000000E-01
  58  15   2   17 CL   -7.56800000000E-02 -4.04000000000E-03  1.82480000000E-01
  59  15   3   17 CL    2.58160000000E-01  7.56800000000E-02  7.16400000000E-02
  60  15   4   17 CL    4.04000000000E-03  1.86520000000E-01 -7.16400000000E-02

  61  16   1   30 ZN    2.50000000000E-01 -2.50000000000E-01 -5.00000000000E-01

  62  17   1   30 ZN   -5.00000000000E-01 -5.00000000000E-01  0.00000000000E+00

 NUMBER OF SYMMETRY OPERATORS         :    4
 *******************************************************************************
 * GEOMETRY EDITING - INPUT COORDINATES ARE GIVEN IN ANGSTROM         
 *******************************************************************************

 GEOMETRY NOW FULLY CONSISTENT WITH THE GROUP

 GCALCO - MAX INDICES DIRECT LATTICE VECTOR    14    14    15
 NO.OF VECTORS CREATED 6999 STARS  486 RMAX   216.08901 BOHR

 GEOMETRY FOR WAVE FUNCTION - DIMENSIONALITY OF THE SYSTEM    3
 (NON PERIODIC DIRECTION: LATTICE PARAMETER FORMALLY SET TO 500)
 *******************************************************************************
 LATTICE PARAMETERS (ANGSTROMS AND DEGREES) - BOHR = 0.5291772083 ANGSTROM
 PRIMITIVE CELL - CENTRING CODE 6/0 VOLUME=   891.383141 - DENSITY  2.339 g/cm^3
         A              B              C           ALPHA      BETA       GAMMA 
    10.53594159    10.53594159    10.53594159   112.892965 112.892965 102.825256
 *******************************************************************************
 ATOMS IN THE ASYMMETRIC UNIT   17 - ATOMS IN THE UNIT CELL:   62
     ATOM                 X/A                 Y/B                 Z/C    
 *******************************************************************************
      1 T   6 C     2.020000000000E-01 -3.509200000000E-01  8.070000000000E-02
      2 F   6 C    -4.316200000000E-01  1.213000000000E-01 -8.070000000000E-02
      3 F   6 C     3.509200000000E-01  4.316200000000E-01 -4.470800000000E-01
      4 F   6 C    -1.213000000000E-01 -2.020000000000E-01  4.470800000000E-01
      5 T   6 C     3.133200000000E-01 -3.860700000000E-01  1.801700000000E-01
      6 F   6 C     4.337600000000E-01  1.331500000000E-01 -1.801700000000E-01
      7 F   6 C     3.860700000000E-01 -4.337600000000E-01 -3.006100000000E-01
      8 F   6 C    -1.331500000000E-01 -3.133200000000E-01  3.006100000000E-01
      9 T   6 C     1.034100000000E-01 -4.454000000000E-01 -9.037000000000E-02
     10 F   6 C    -3.550300000000E-01  1.937800000000E-01  9.037000000000E-02
     11 F   6 C     4.454000000000E-01  3.550300000000E-01 -4.511900000000E-01
     12 F   6 C    -1.937800000000E-01 -1.034100000000E-01  4.511900000000E-01
     13 T   6 C    -3.719000000000E-02 -2.928000000000E-01 -8.405000000000E-02
     14 F   6 C    -2.087500000000E-01  4.686000000000E-02  8.405000000000E-02
     15 F   6 C     2.928000000000E-01  2.087500000000E-01  2.556100000000E-01
     16 F   6 C    -4.686000000000E-02  3.719000000000E-02 -2.556100000000E-01
     17 T   6 C     1.723800000000E-01 -2.256400000000E-01  1.517800000000E-01
     18 F   6 C    -3.774200000000E-01  2.060000000000E-02 -1.517800000000E-01
     19 F   6 C     2.256400000000E-01  3.774200000000E-01  3.980200000000E-01
     20 F   6 C    -2.060000000000E-02 -1.723800000000E-01 -3.980200000000E-01
     21 T   6 C    -2.470100000000E-01  1.525800000000E-01  1.725100000000E-01
     22 F   6 C    -1.993000000000E-02 -4.195200000000E-01 -1.725100000000E-01
     23 F   6 C    -1.525800000000E-01  1.993000000000E-02 -3.995900000000E-01
     24 F   6 C     4.195200000000E-01  2.470100000000E-01  3.995900000000E-01
     25 T   7 N     3.328000000000E-01 -3.623600000000E-01  3.248000000000E-01
     26 F   7 N     3.128400000000E-01  8.000000000000E-03 -3.248000000000E-01
     27 F   7 N     3.623600000000E-01 -3.128400000000E-01 -3.048400000000E-01
     28 F   7 N    -8.000000000000E-03 -3.328000000000E-01  3.048400000000E-01
     29 T   7 N     4.450000000000E-01 -4.045600000000E-01  3.867000000000E-01
     30 F   7 N     2.087400000000E-01  5.830000000000E-02 -3.867000000000E-01
     31 F   7 N     4.045600000000E-01 -2.087400000000E-01 -1.504400000000E-01
     32 F   7 N    -5.830000000000E-02 -4.450000000000E-01  1.504400000000E-01
     33 T   7 N     4.100800000000E-01 -4.438900000000E-01  1.515900000000E-01
     34 F   7 N     4.045200000000E-01  2.584900000000E-01 -1.515900000000E-01
     35 F   7 N     4.438900000000E-01 -4.045200000000E-01 -1.460300000000E-01
     36 F   7 N    -2.584900000000E-01 -4.100800000000E-01  1.460300000000E-01
     37 T   7 N     4.912400000000E-01 -4.526100000000E-01  2.843500000000E-01
     38 F   7 N     2.630400000000E-01  2.068900000000E-01 -2.843500000000E-01
     39 F   7 N     4.526100000000E-01 -2.630400000000E-01 -5.615000000000E-02
     40 F   7 N    -2.068900000000E-01 -4.912400000000E-01  5.615000000000E-02
     41 T   7 N     6.068000000000E-02 -1.974700000000E-01  7.409000000000E-02
     42 F   7 N    -2.715600000000E-01 -1.341000000000E-02 -7.409000000000E-02
     43 F   7 N     1.974700000000E-01  2.715600000000E-01  2.581500000000E-01
     44 F   7 N     1.341000000000E-02 -6.068000000000E-02 -2.581500000000E-01
     45 T  17 CL    1.339400000000E-01  4.071100000000E-01 -1.999300000000E-01
     46 F  17 CL   -3.929600000000E-01  3.338700000000E-01  1.999300000000E-01
     47 F  17 CL   -4.071100000000E-01  3.929600000000E-01 -2.731700000000E-01
     48 F  17 CL   -3.338700000000E-01 -1.339400000000E-01  2.731700000000E-01
     49 T  17 CL    2.845400000000E-01 -8.866000000000E-02  3.593800000000E-01
     50 F  17 CL   -4.480400000000E-01 -7.484000000000E-02 -3.593800000000E-01
     51 F  17 CL    8.866000000000E-02  4.480400000000E-01  3.732000000000E-01
     52 F  17 CL    7.484000000000E-02 -2.845400000000E-01 -3.732000000000E-01
     53 T  17 CL   -1.489500000000E-01  4.659600000000E-01 -3.752500000000E-01
     54 F  17 CL   -1.587900000000E-01  2.263000000000E-01  3.752500000000E-01
     55 F  17 CL   -4.659600000000E-01  1.587900000000E-01  3.850900000000E-01
     56 F  17 CL   -2.263000000000E-01  1.489500000000E-01 -3.850900000000E-01
     57 T  17 CL   -1.865200000000E-01 -2.581600000000E-01 -1.824800000000E-01
     58 F  17 CL   -7.568000000000E-02 -4.040000000000E-03  1.824800000000E-01
     59 F  17 CL    2.581600000000E-01  7.568000000000E-02  7.164000000000E-02
     60 F  17 CL    4.040000000000E-03  1.865200000000E-01 -7.164000000000E-02
     61 T  30 ZN    2.500000000000E-01 -2.500000000000E-01  5.000000000000E-01
     62 T  30 ZN   -5.000000000000E-01  5.000000000000E-01  0.000000000000E+00

 TRANSFORMATION MATRIX PRIMITIVE-CRYSTALLOGRAPHIC CELL
  0.0000  1.0000  1.0000  1.0000  0.0000  1.0000  1.0000  1.0000  0.0000

 *******************************************************************************
 CRYSTALLOGRAPHIC CELL (VOLUME=       1782.76628103)
         A              B              C           ALPHA      BETA       GAMMA 
    11.64675943    11.64675943    13.14268810    90.000000  90.000000  90.000000

 COORDINATES IN THE CRYSTALLOGRAPHIC CELL
     ATOM                 X/A                 Y/B                 Z/C    
 *******************************************************************************
      1 T   6 C    -2.361100000000E-01  3.168100000000E-01 -1.148100000000E-01
      2 F   6 C     2.361100000000E-01 -3.168100000000E-01 -1.148100000000E-01
      3 F   6 C     3.168100000000E-01  2.361100000000E-01  1.148100000000E-01
      4 F   6 C    -3.168100000000E-01 -2.361100000000E-01  1.148100000000E-01
      5 T   6 C     2.403900000000E-01 -6.022000000000E-02  3.735400000000E-01
      6 F   6 C    -2.403900000000E-01  6.022000000000E-02  3.735400000000E-01
      7 F   6 C    -6.022000000000E-02 -2.403900000000E-01 -3.735400000000E-01
      8 F   6 C     6.022000000000E-02  2.403900000000E-01 -3.735400000000E-01
      9 T   6 C    -3.195900000000E-01  2.292200000000E-01 -1.258100000000E-01
     10 F   6 C     3.195900000000E-01 -2.292200000000E-01 -1.258100000000E-01
     11 F   6 C     2.292200000000E-01  3.195900000000E-01  1.258100000000E-01
     12 F   6 C    -2.292200000000E-01 -3.195900000000E-01  1.258100000000E-01
     13 T   6 C    -1.698300000000E-01  8.578000000000E-02 -1.229700000000E-01
     14 F   6 C     1.698300000000E-01 -8.578000000000E-02 -1.229700000000E-01
     15 F   6 C     8.578000000000E-02  1.698300000000E-01  1.229700000000E-01
     16 F   6 C    -8.578000000000E-02 -1.698300000000E-01  1.229700000000E-01
     17 T   6 C    -1.231200000000E-01  2.749000000000E-01 -1.025200000000E-01
     18 F   6 C     1.231200000000E-01 -2.749000000000E-01 -1.025200000000E-01
     19 F   6 C     2.749000000000E-01  1.231200000000E-01  1.025200000000E-01
     20 F   6 C    -2.749000000000E-01 -1.231200000000E-01  1.025200000000E-01
     21 T   6 C     2.860500000000E-01 -1.135400000000E-01 -1.334700000000E-01
     22 F   6 C    -2.860500000000E-01  1.135400000000E-01 -1.334700000000E-01
     23 F   6 C    -1.135400000000E-01 -2.860500000000E-01  1.334700000000E-01
     24 F   6 C     1.135400000000E-01  2.860500000000E-01  1.334700000000E-01
     25 T   7 N     3.148200000000E-01  9.980000000000E-03  3.228200000000E-01
     26 F   7 N    -3.148200000000E-01 -9.980000000000E-03  3.228200000000E-01
     27 F   7 N     9.980000000000E-03 -3.148200000000E-01 -3.228200000000E-01
     28 F   7 N    -9.980000000000E-03  3.148200000000E-01 -3.228200000000E-01
     29 T   7 N     2.685700000000E-01  1.181300000000E-01  3.268700000000E-01
     30 F   7 N    -2.685700000000E-01 -1.181300000000E-01  3.268700000000E-01
     31 F   7 N     1.181300000000E-01 -2.685700000000E-01 -3.268700000000E-01
     32 F   7 N    -1.181300000000E-01  2.685700000000E-01 -3.268700000000E-01
     33 T   7 N     1.488100000000E-01  2.780000000000E-03  4.073000000000E-01
     34 F   7 N    -1.488100000000E-01 -2.780000000000E-03  4.073000000000E-01
     35 F   7 N     2.780000000000E-03 -1.488100000000E-01 -4.073000000000E-01
     36 F   7 N    -2.780000000000E-03  1.488100000000E-01 -4.073000000000E-01
     37 T   7 N     1.702500000000E-01  1.141000000000E-01  3.771400000000E-01
     38 F   7 N    -1.702500000000E-01 -1.141000000000E-01  3.771400000000E-01
     39 F   7 N     1.141000000000E-01 -1.702500000000E-01 -3.771400000000E-01
     40 F   7 N    -1.141000000000E-01  1.702500000000E-01 -3.771400000000E-01
     41 T   7 N    -9.203000000000E-02  1.661200000000E-01 -1.054400000000E-01
     42 F   7 N     9.203000000000E-02 -1.661200000000E-01 -1.054400000000E-01
     43 F   7 N     1.661200000000E-01  9.203000000000E-02  1.054400000000E-01
     44 F   7 N    -1.661200000000E-01 -9.203000000000E-02  1.054400000000E-01
     45 T  17 CL    3.662000000000E-02 -2.365500000000E-01  3.704900000000E-01
     46 F  17 CL   -3.662000000000E-02  2.365500000000E-01  3.704900000000E-01
     47 F  17 CL   -2.365500000000E-01 -3.662000000000E-02 -3.704900000000E-01
     48 F  17 CL    2.365500000000E-01  3.662000000000E-02 -3.704900000000E-01
     49 T  17 CL   -6.910000000000E-03  3.662900000000E-01 -8.175000000000E-02
     50 F  17 CL    6.910000000000E-03 -3.662900000000E-01 -8.175000000000E-02
     51 F  17 CL    3.662900000000E-01  6.910000000000E-03  8.175000000000E-02
     52 F  17 CL   -3.662900000000E-01 -6.910000000000E-03  8.175000000000E-02
     53 T  17 CL   -3.801700000000E-01  4.920000000000E-03 -1.538700000000E-01
     54 F  17 CL    3.801700000000E-01 -4.920000000000E-03 -1.538700000000E-01
     55 F  17 CL    4.920000000000E-03  3.801700000000E-01  1.538700000000E-01
     56 F  17 CL   -4.920000000000E-03 -3.801700000000E-01  1.538700000000E-01
     57 T  17 CL   -1.270600000000E-01 -5.542000000000E-02 -1.311000000000E-01
     58 F  17 CL    1.270600000000E-01  5.542000000000E-02 -1.311000000000E-01
     59 F  17 CL   -5.542000000000E-02  1.270600000000E-01  1.311000000000E-01
     60 F  17 CL    5.542000000000E-02 -1.270600000000E-01  1.311000000000E-01
     61 T  30 ZN   -5.000000000000E-01 -4.035489695329E-17  2.500000000000E-01
     62 T  30 ZN    0.000000000000E+00  0.000000000000E+00  5.000000000000E-01

 T = ATOM BELONGING TO THE ASYMMETRIC UNIT

 ****    4 SYMMOPS - TRANSLATORS IN FRACTIONAL UNITS
 **** MATRICES AND TRANSLATORS IN THE CRYSTALLOGRAPHIC REFERENCE FRAME
   V INV                    ROTATION MATRICES                   TRANSLATORS
   1   1  1.00  0.00  0.00  0.00  1.00  0.00  0.00  0.00  1.00  0.00  0.00  0.00
   2   2  0.00  1.00 -1.00  1.00  0.00 -1.00 -0.00  0.00 -1.00  0.00  0.00  0.00
   3   4 -0.00 -1.00  0.00 -0.00 -1.00  1.00  1.00 -1.00  0.00  0.00  0.00  0.00
   4   3 -1.00 -0.00  1.00 -1.00 -0.00  0.00 -1.00  1.00 -0.00  0.00  0.00  0.00

 DIRECT LATTICE VECTORS CARTESIAN COMPONENTS (ANGSTROM)
          X                    Y                    Z
  -0.582337971465E+01   0.582337971465E+01   0.657134404975E+01
   0.582337971465E+01  -0.582337971465E+01   0.657134404975E+01
   0.582337971465E+01   0.582337971465E+01  -0.657134404975E+01


 CARTESIAN COORDINATES - PRIMITIVE CELL
 *******************************************************************************
 *      ATOM          X(ANGSTROM)         Y(ANGSTROM)         Z(ANGSTROM)
 *******************************************************************************
    1     6 C    -2.749916368852E+00  3.689809854797E+00 -1.508912020704E+00
    2     6 C     2.749916368852E+00 -3.689809854797E+00 -1.508912020704E+00
    3     6 C     3.689809854797E+00  2.749916368852E+00  1.508912020704E+00
    4     6 C    -3.689809854797E+00 -2.749916368852E+00  1.508912020704E+00
    5     6 C     2.799764499209E+00 -7.013678528324E-01  4.909319712687E+00
    6     6 C    -2.799764499209E+00  7.013678528324E-01  4.909319712687E+00
    7     6 C    -7.013678528324E-01 -2.799764499209E+00 -4.909319712687E+00
    8     6 C     7.013678528324E-01  2.799764499209E+00 -4.909319712687E+00
    9     6 C    -3.722187846010E+00  2.669670196384E+00 -1.653481589798E+00
   10     6 C     3.722187846010E+00 -2.669670196384E+00 -1.653481589798E+00
   11     6 C     2.669670196384E+00  3.722187846010E+00  1.653481589798E+00
   12     6 C    -2.669670196384E+00 -3.722187846010E+00  1.653481589798E+00
   13     6 C    -1.977969153878E+00  9.990590238454E-01 -1.616156355596E+00
   14     6 C     1.977969153878E+00 -9.990590238454E-01 -1.616156355596E+00
   15     6 C     9.990590238454E-01  1.977969153878E+00  1.616156355596E+00
   16     6 C    -9.990590238454E-01 -1.977969153878E+00  1.616156355596E+00
   17     6 C    -1.433949020935E+00  3.201694167115E+00 -1.347388383961E+00
   18     6 C     1.433949020935E+00 -3.201694167115E+00 -1.347388383961E+00
   19     6 C     3.201694167115E+00  1.433949020935E+00  1.347388383961E+00
   20     6 C    -3.201694167115E+00 -1.433949020935E+00  1.347388383961E+00
   21     6 C     3.331555534751E+00 -1.322373065603E+00 -1.754154580640E+00
   22     6 C    -3.331555534751E+00  1.322373065603E+00 -1.754154580640E+00
   23     6 C    -1.322373065603E+00 -3.331555534751E+00  1.754154580640E+00
   24     6 C     1.322373065603E+00  3.331555534751E+00  1.754154580640E+00
   25     7 N     3.666632803532E+00  1.162346591044E-01  4.242722572281E+00
   26     7 N    -3.666632803532E+00 -1.162346591044E-01  4.242722572281E+00
   27     7 N     1.162346591044E-01 -3.666632803532E+00 -4.242722572281E+00
   28     7 N    -1.162346591044E-01  3.666632803532E+00 -4.242722572281E+00
   29     7 N     3.127970179927E+00  1.375831691383E+00  4.295950459084E+00
   30     7 N    -3.127970179927E+00 -1.375831691383E+00  4.295950459084E+00
   31     7 N     1.375831691383E+00 -3.127970179927E+00 -4.295950459084E+00
   32     7 N    -1.375831691383E+00  3.127970179927E+00 -4.295950459084E+00
   33     7 N     1.733154270674E+00  3.237799121346E-02  5.353016862926E+00
   34     7 N    -1.733154270674E+00 -3.237799121345E-02  5.353016862926E+00
   35     7 N     3.237799121346E-02 -1.733154270674E+00 -5.353016862926E+00
   36     7 N    -3.237799121345E-02  1.733154270674E+00 -5.353016862926E+00
   37     7 N     1.982860792838E+00  1.328895250883E+00  4.956633389845E+00
   38     7 N    -1.982860792838E+00 -1.328895250883E+00  4.956633389845E+00
   39     7 N     1.328895250883E+00 -1.982860792838E+00 -4.956633389845E+00
   40     7 N    -1.328895250883E+00  1.982860792838E+00 -4.956633389845E+00
   41     7 N    -1.071851270278E+00  1.934759676395E+00 -1.385765033211E+00
   42     7 N     1.071851270278E+00 -1.934759676395E+00 -1.385765033211E+00
   43     7 N     1.934759676395E+00  1.071851270278E+00  1.385765033211E+00
   44     7 N    -1.934759676395E+00 -1.071851270278E+00  1.385765033211E+00
   45    17 CL    4.265043303010E-01 -2.755040943001E+00  4.869234513984E+00
   46    17 CL   -4.265043303010E-01  2.755040943001E+00  4.869234513984E+00
   47    17 CL   -2.755040943001E+00 -4.265043303010E-01 -4.869234513984E+00
   48    17 CL    2.755040943001E+00  4.265043303010E-01 -4.869234513984E+00
   49    17 CL   -8.047910765646E-02  4.266091511358E+00 -1.074414752134E+00
   50    17 CL    8.047910765646E-02 -4.266091511358E+00 -1.074414752134E+00
   51    17 CL    4.266091511358E+00  8.047910765646E-02  1.074414752134E+00
   52    17 CL   -4.266091511358E+00 -8.047910765646E-02  1.074414752134E+00
   53    17 CL   -4.427748532237E+00  5.730205639216E-02 -2.022265417870E+00
   54    17 CL    4.427748532237E+00 -5.730205639216E-02 -2.022265417870E+00
   55    17 CL    5.730205639216E-02  4.427748532237E+00  2.022265417870E+00
   56    17 CL   -5.730205639216E-02 -4.427748532237E+00  2.022265417870E+00
   57    17 CL   -1.479837253087E+00 -6.454634075718E-01 -1.723006409844E+00
   58    17 CL    1.479837253087E+00  6.454634075718E-01 -1.723006409844E+00
   59    17 CL   -6.454634075718E-01  1.479837253087E+00  1.723006409844E+00
   60    17 CL    6.454634075718E-01 -1.479837253087E+00  1.723006409844E+00
   61    30 ZN    5.823379714650E+00 -4.700037766092E-16 -9.857016074625E+00
   62    30 ZN    0.000000000000E+00  0.000000000000E+00  6.571344049750E+00

 *******************************************************************************
 STARTING BASIS SET HANDLING 
 *******************************************************************************

 Loading internal basis set: POB-DZVPP           

 Please cite in your publication:
 Peintinger, M. F., Oliveira, D. V. and Bredow, T. (2013), Generally applicable 
 solid-state Gaussian basis sets, in preparation                                
                                                                                
                    

 *******************************************************************************
 LOCAL ATOMIC FUNCTIONS BASIS SET
 *******************************************************************************
   ATOM   X(AU)   Y(AU)   Z(AU)  N. TYPE  EXPONENT  S COEF   P COEF   D/F/G COEF
 *******************************************************************************
   1 C   -5.197   6.973  -2.851
                                  1 S  
                                         1.238E+03 5.457E-03 0.000E+00 0.000E+00
                                         1.863E+02 4.064E-02 0.000E+00 0.000E+00
                                         4.225E+01 1.803E-01 0.000E+00 0.000E+00
                                         1.168E+01 4.632E-01 0.000E+00 0.000E+00
                                         3.593E+00 4.409E-01 0.000E+00 0.000E+00
                                  2 S  
                                         5.281E+00 1.000E+00 0.000E+00 0.000E+00
                                  3 S  
                                         4.447E-01 1.000E+00 0.000E+00 0.000E+00
                           4-     6 P  
                                         9.468E+00 0.000E+00 3.839E-02 0.000E+00
                                         2.010E+00 0.000E+00 2.112E-01 0.000E+00
                                         5.477E-01 0.000E+00 5.133E-01 0.000E+00
                           7-     9 P  
                                         1.604E-01 0.000E+00 1.000E+00 0.000E+00
                          10-    14 D  
                                         6.070E-01 0.000E+00 0.000E+00 1.000E+00
                          15-    19 D  
                                         2.939E-01 0.000E+00 0.000E+00 1.000E+00
   2 C    5.197  -6.973  -2.851
   3 C    6.973   5.197   2.851
   4 C   -6.973  -5.197   2.851
   5 C    5.291  -1.325   9.277
   6 C   -5.291   1.325   9.277
   7 C   -1.325  -5.291  -9.277
   8 C    1.325   5.291  -9.277
   9 C   -7.034   5.045  -3.125
  10 C    7.034  -5.045  -3.125
  11 C    5.045   7.034   3.125
  12 C   -5.045  -7.034   3.125
  13 C   -3.738   1.888  -3.054
  14 C    3.738  -1.888  -3.054
  15 C    1.888   3.738   3.054
  16 C   -1.888  -3.738   3.054
  17 C   -2.710   6.050  -2.546
  18 C    2.710  -6.050  -2.546
  19 C    6.050   2.710   2.546
  20 C   -6.050  -2.710   2.546
  21 C    6.296  -2.499  -3.315
  22 C   -6.296   2.499  -3.315
  23 C   -2.499  -6.296   3.315
  24 C    2.499   6.296   3.315
  25 N    6.929   0.220   8.018
                                457 S  
                                         1.713E+03-5.393E-03 0.000E+00 0.000E+00
                                         2.576E+02-4.022E-02 0.000E+00 0.000E+00
                                         5.846E+01-1.793E-01 0.000E+00 0.000E+00
                                         1.620E+01-4.638E-01 0.000E+00 0.000E+00
                                         5.005E+00-4.417E-01 0.000E+00 0.000E+00
                                458 S  
                                         6.217E-01 1.000E+00 0.000E+00 0.000E+00
                                459 S  
                                         2.921E-01 1.000E+00 0.000E+00 0.000E+00
                         460-   462 P  
                                         1.357E+01 0.000E+00-4.007E-02 0.000E+00
                                         2.926E+00 0.000E+00-2.181E-01 0.000E+00
                                         7.993E-01 0.000E+00-5.129E-01 0.000E+00
                         463-   465 P  
                                         2.244E-01 0.000E+00 1.000E+00 0.000E+00
                         466-   470 D  
                                         3.118E-01 0.000E+00 0.000E+00 1.000E+00
  26 N   -6.929  -0.220   8.018
  27 N    0.220  -6.929  -8.018
  28 N   -0.220   6.929  -8.018
  29 N    5.911   2.600   8.118
  30 N   -5.911  -2.600   8.118
  31 N    2.600  -5.911  -8.118
  32 N   -2.600   5.911  -8.118
  33 N    3.275   0.061  10.116
  34 N   -3.275  -0.061  10.116
  35 N    0.061  -3.275 -10.116
  36 N   -0.061   3.275 -10.116
  37 N    3.747   2.511   9.367
  38 N   -3.747  -2.511   9.367
  39 N    2.511  -3.747  -9.367
  40 N   -2.511   3.747  -9.367
  41 N   -2.026   3.656  -2.619
  42 N    2.026  -3.656  -2.619
  43 N    3.656   2.026   2.619
  44 N   -3.656  -2.026   2.619
  45 CL   0.806  -5.206   9.202
                                737 S  
                                         1.045E+04 1.971E-03 0.000E+00 0.000E+00
                                         1.572E+03 1.475E-02 0.000E+00 0.000E+00
                                         3.571E+02 6.668E-02 0.000E+00 0.000E+00
                                         1.003E+02 1.723E-01 0.000E+00 0.000E+00
                                         3.081E+01 1.588E-01 0.000E+00 0.000E+00
                                738 S  
                                         5.192E+01-1.001E-01 0.000E+00 0.000E+00
                                         5.705E+00 6.084E-01 0.000E+00 0.000E+00
                                         2.351E+00 5.435E-01 0.000E+00 0.000E+00
                                739 S  
                                         4.886E-01 1.000E+00 0.000E+00 0.000E+00
                                740 S  
                                         1.984E-01 1.000E+00 0.000E+00 0.000E+00
                         741-   743 P  
                                         3.077E+02 0.000E+00-8.780E-03 0.000E+00
                                         7.210E+01 0.000E+00-6.356E-02 0.000E+00
                                         2.253E+01 0.000E+00-2.402E-01 0.000E+00
                                         7.899E+00 0.000E+00-4.780E-01 0.000E+00
                                         2.877E+00 0.000E+00-3.852E-01 0.000E+00
                         744-   746 P  
                                         9.483E-01 0.000E+00 1.000E+00 0.000E+00
                         747-   749 P  
                                         2.521E-01 0.000E+00 1.000E+00 0.000E+00
                         750-   754 D  
                                         9.722E-01 0.000E+00 0.000E+00 1.000E+00
                         755-   759 D  
                                         2.060E-01 0.000E+00 0.000E+00 1.000E+00
  46 CL  -0.806   5.206   9.202
  47 CL  -5.206  -0.806  -9.202
  48 CL   5.206   0.806  -9.202
  49 CL  -0.152   8.062  -2.030
  50 CL   0.152  -8.062  -2.030
  51 CL   8.062   0.152   2.030
  52 CL  -8.062  -0.152   2.030
  53 CL  -8.367   0.108  -3.822
  54 CL   8.367  -0.108  -3.822
  55 CL   0.108   8.367   3.822
  56 CL  -0.108  -8.367   3.822
  57 CL  -2.796  -1.220  -3.256
  58 CL   2.796   1.220  -3.256
  59 CL  -1.220   2.796   3.256
  60 CL   1.220  -2.796   3.256
  61 ZN  11.005  -0.000 -18.627
                               1105 S  
                                         8.200E+04 1.421E-03 0.000E+00 0.000E+00
                                         1.231E+04 1.089E-02 0.000E+00 0.000E+00
                                         2.801E+03 5.406E-02 0.000E+00 0.000E+00
                                         7.910E+02 1.885E-01 0.000E+00 0.000E+00
                                         2.576E+02 3.835E-01 0.000E+00 0.000E+00
                                         8.881E+01 2.972E-01 0.000E+00 0.000E+00
                               1106 S  
                                         1.719E+02-1.105E-01 0.000E+00 0.000E+00
                                         2.030E+01 6.461E-01 0.000E+00 0.000E+00
                                         8.346E+00 4.422E-01 0.000E+00 0.000E+00
                               1107 S  
                                         1.485E+01-2.271E-01 0.000E+00 0.000E+00
                                         2.450E+00 7.243E-01 0.000E+00 0.000E+00
                                         9.985E-01 4.484E-01 0.000E+00 0.000E+00
                               1108 S  
                                         1.493E+00 1.000E+00 0.000E+00 0.000E+00
                               1109 S  
                                         1.830E-01 1.000E+00 0.000E+00 0.000E+00
                        1110-  1112 P  
                                         1.072E+03 0.000E+00 9.277E-03 0.000E+00
                                         2.527E+02 0.000E+00 6.954E-02 0.000E+00
                                         8.010E+01 0.000E+00 2.716E-01 0.000E+00
                                         2.890E+01 0.000E+00 5.340E-01 0.000E+00
                                         1.077E+01 0.000E+00 3.450E-01 0.000E+00
                        1113-  1115 P  
                                         5.645E+00 0.000E+00 3.413E-01 0.000E+00
                                         2.168E+00 0.000E+00 5.639E-01 0.000E+00
                                         8.054E-01 0.000E+00 2.368E-01 0.000E+00
                        1116-  1118 P  
                                         2.721E-01 0.000E+00 1.000E+00 0.000E+00
                        1119-  1123 D  
                                         5.609E+01 0.000E+00 0.000E+00 2.959E-02
                                         1.575E+01 0.000E+00 0.000E+00 1.587E-01
                                         5.312E+00 0.000E+00 0.000E+00 3.798E-01
                                         1.774E+00 0.000E+00 0.000E+00 4.690E-01
                        1124-  1128 D  
                                         5.073E-01 0.000E+00 0.000E+00 1.000E+00
                        1129-  1135 F  
                                         2.814E+00 0.000E+00 0.000E+00 1.000E+00
                        1136-  1142 F  
                                         1.300E+00 0.000E+00 0.000E+00 1.000E+00
  62 ZN   0.000   0.000  12.418

 *******************************************************************************
 FINISHED BASIS SET HANDLING 
 *******************************************************************************

 INFORMATION **** SET_MPP **** PCRYSTAL CALCULATION
 INFORMATION **** READM2 **** NEW DEFAULT: FOCK/KS MATRIX MIXING SET TO 30 %
 INFORMATION **** READM2 **** NEW DEFAULT: FULL DIRECT SCF MODE
 INFORMATION **** READM2 **** NEW DEFAULT: COULOMB BIPOLAR BUFFER SET TO 32 Mb
 INFORMATION **** READM2 **** NEW DEFAULT: EXCHANGE BIPOLAR BUFFER SET TO 32 Mb

 *******************************************************************************
 NEW DEFAULT: DFT INTEGRATION GRID INCREASED TO XLGRID
 NEW DEFAULT: DIIS ACCELERATOR ACTIVE
 USE KEYWORD NODIIS TO TURN IT OFF
 *******************************************************************************

 INFORMATION **** DFTD3_INPUT **** PERFORM DISPERSION CORRECTION DFT-D3(BJ) IN THE BECKE-JOHNSON DAMPING SCHEME

 PLEASE CITE:
 (1) DFT-D3 Reference
  S. Grimme, J. Antony, S. Ehrlich, and H. Krieg, J. Chem. Phys. 132 (2010), 154104
 (2) BJ-Damping Reference
  S. Grimme, S. Ehrlich, and L. Goerigk, J. Comput. Chem. 32 (2011), 1456-1465
 (3) General DFT-D Review
  S. Grimme, A. Hansen, J. G. Brandenburg, and C. Bannwarth,
  Chem. Rev. 116 (2016), 5105-5154

 INFORMATION **** TOLINTEG **** COULOMB AND EXCHANGE SERIES TOLERANCES MODIFIED
 INFORMATION **** BIPOSIZE **** COULOMB BIPOLAR BUFFER SET TO   100000000
 INFORMATION **** MAXCYCLE **** MAX NUMBER OF SCF CYCLES SET TO          50
 *******************************************************************************
 N. OF ATOMS PER CELL        62  COULOMB OVERLAP TOL         (T1) 10**  -12
 NUMBER OF SHELLS           456  COULOMB PENETRATION TOL     (T2) 10**  -12
 NUMBER OF AO              1180  EXCHANGE OVERLAP TOL        (T3) 10**   20
 N. OF ELECTRONS PER CELL   616  EXCHANGE PSEUDO OVP (F(G))  (T4) 10**   20
 CORE ELECTRONS PER CELL    284  EXCHANGE PSEUDO OVP (P(G))  (T5) 10**   20
 N. OF SYMMETRY OPERATORS     4  POLE ORDER IN MONO ZONE                  4
 *******************************************************************************
 TYPE OF CALCULATION :  RESTRICTED CLOSED SHELL
 KOHN-SHAM HAMILTONIAN

 (EXCHANGE)[CORRELATION] FUNCTIONAL:(PERDEW-BURKE-ERNZERHOF)[PERDEW-BURKE-ERNZERHOF]


 CAPPA:IS1  3;IS2  3;IS3  3; K PTS MONK NET   6; SYMMOPS:K SPACE   8;G SPACE   4

 *******************************************************************************
 MAX NUMBER OF SCF CYCLES      50  CONVERGENCE ON DELTAP        10**-16
 WEIGHT OF F(I) IN F(I+1)      30% CONVERGENCE ON ENERGY        10**- 6
 SHRINK. FACT.(MONKH.)    3  3  3  NUMBER OF K POINTS IN THE IBZ      6
 SHRINKING FACTOR(GILAT NET)    3  NUMBER OF K POINTS(GILAT NET)      6
 *******************************************************************************
 *** K POINTS COORDINATES (OBLIQUE COORDINATES IN UNITS OF IS =  3)
   1-R(  0  0  0)   2-C(  1  0  0)   3-C(  1  1  0)   4-C(  2  1  0)
   5-C(  2  1  1)   6-C(  2  2  1)

 DIRECT LATTICE VECTORS COMPON. (A.U.)     RECIP. LATTICE VECTORS COMPON. (A.U.) 
        X            Y            Z              X            Y            Z
  -11.0045928   11.0045928   12.4180406      0.0000000    0.2854801    0.2529862
   11.0045928  -11.0045928   12.4180406      0.2854801    0.0000000    0.2529862
   11.0045928   11.0045928  -12.4180406      0.2854801    0.2854801    0.0000000

 DISK SPACE FOR EIGENVECTORS (FTN 10)    15316400 REALS

 SYMMETRY ADAPTION OF THE BLOCH FUNCTIONS ENABLED
 TTTTTTTTTTTTTTTTTTTTTTTTTTTTTT gordsh1     TELAPSE        7.76 TCPU        0.07

 MATRIX SIZE: P(G) 1706032, F(G)  853606, P(G) IRR  215716, F(G) IRR  215716
 MAX G-VECTOR INDEX FOR 1- AND 2-ELECTRON INTEGRALS  59

 TTTTTTTTTTTTTTTTTTTTTTTTTTTTTT INPUT       TELAPSE        7.88 TCPU        0.18

 NEIGHBORS OF THE NON-EQUIVALENT ATOMS

 N = NUMBER OF NEIGHBORS AT DISTANCE R
    ATOM  N     R/ANG      R/AU   NEIGHBORS (ATOM LABELS AND CELL INDICES)
   1 C    1     1.4128     2.6699   17 C    0 0 0
   1 C    1     1.4166     2.6771    9 C    0 0 0
   1 C    1     1.4661     2.7706    5 C    0-1 0
   1 C    1     2.4313     4.5945   41 N    0 0 0
   1 C    1     2.4501     4.6301   22 C    0 0 0
   1 C    1     2.4669     4.6617   25 N    0-1 0

   5 C    1     1.3654     2.5802   25 N    0 0 0
   5 C    1     1.3685     2.5862   33 N    0 0 0
   5 C    1     1.4661     2.7706    1 C    0 1 0
   5 C    1     2.1890     4.1365   37 N    0 0 0
   5 C    1     2.1906     4.1396   29 N    0 0 0
   5 C    1     2.5127     4.7483   17 C    0 1 0

   9 C    1     1.4064     2.6577   22 C    0 0 0
   9 C    1     1.4166     2.6771    1 C    0 0 0
   9 C    1     1.7222     3.2544   45 CL   0-1 0
   9 C    1     2.3691     4.4770   17 C    0 0 0
   9 C    1     2.4155     4.5646   13 C    0 0 0
   9 C    1     2.5499     4.8186    5 C    0-1 0

  13 C    1     1.3227     2.4996   41 N    0 0 0
  13 C    1     1.3985     2.6428   22 C    0 0 0
  13 C    1     1.7216     3.2534   57 CL   0 0 0
  13 C    1     2.2847     4.3174   17 C    0 0 0
  13 C    1     2.4155     4.5646    9 C    0 0 0
  13 C    1     2.6558     5.0187   53 CL   0 0 0

  17 C    1     1.3182     2.4911   41 N    0 0 0
  17 C    1     1.4128     2.6699    1 C    0 0 0
  17 C    1     1.7434     3.2945   49 CL   0 0 0
  17 C    1     2.2847     4.3174   13 C    0 0 0
  17 C    1     2.3691     4.4770    9 C    0 0 0
  17 C    1     2.5127     4.7483    5 C    0-1 0

  21 C    1     1.3985     2.6428   14 C    0 0 0
  21 C    1     1.4064     2.6577   10 C    0 0 0
  21 C    1     1.6953     3.2036   54 CL   0 0 0
  21 C    1     2.3700     4.4787   42 N    0 0 0
  21 C    1     2.4501     4.6301    2 C    0 0 0
  21 C    1     2.7015     5.1051   18 C    0 0 0

  25 N    1     1.3654     2.5802    5 C    0 0 0
  25 N    1     1.3710     2.5908   29 N    0 0 0
  25 N    1     2.1944     4.1468   37 N    0 0 0
  25 N    1     2.2312     4.2163   33 N    0 0 0
  25 N    1     2.3624     4.4643   61 ZN   1 1 0
  25 N    1     2.4669     4.6617    1 C    0 1 0

  29 N    1     1.3229     2.4999   37 N    0 0 0
  29 N    1     1.3710     2.5908   25 N    0 0 0
  29 N    1     2.1906     4.1396    5 C    0 0 0
  29 N    1     2.2063     4.1693   33 N    0 0 0
  29 N    1     2.9501     5.5748   19 C    0 0 0
  29 N    1     3.0300     5.7258   50 CL   1 1 1

  33 N    1     1.3685     2.5862    5 C    0 0 0
  33 N    1     1.3786     2.6051   37 N    0 0 0
  33 N    1     2.1188     4.0039   62 ZN   0 0 0
  33 N    1     2.2063     4.1693   29 N    0 0 0
  33 N    1     2.2312     4.2163   25 N    0 0 0
  33 N    1     2.5636     4.8446    1 C    0 1 0

  37 N    1     1.3229     2.4999   29 N    0 0 0
  37 N    1     1.3786     2.6051   33 N    0 0 0
  37 N    1     2.1890     4.1365    5 C    0 0 0
  37 N    1     2.1944     4.1468   25 N    0 0 0
  37 N    1     2.8012     5.2934   46 CL   0 0 0
  37 N    1     2.8818     5.4459   62 ZN   0 0 0

  41 N    1     1.3182     2.4911   17 C    0 0 0
  41 N    1     1.3227     2.4996   13 C    0 0 0
  41 N    1     2.3700     4.4787   22 C    0 0 0
  41 N    1     2.4313     4.5945    1 C    0 0 0
  41 N    1     2.5524     4.8234   49 CL   0 0 0
  41 N    1     2.6340     4.9775   57 CL   0 0 0

  45 CL   1     1.7222     3.2544    9 C    0 1 0
  45 CL   1     2.7049     5.1116   22 C    0 1 0
  45 CL   1     2.7258     5.1510    1 C    0 1 0
  45 CL   1     2.8012     5.2934   38 N    0 0 0
  45 CL   1     3.1163     5.8889   33 N    0 0 0
  45 CL   1     3.1191     5.8942   35 N    1 1 0

  49 CL   1     1.7434     3.2945   17 C    0 0 0
  49 CL   1     2.5524     4.8234   41 N    0 0 0
  49 CL   1     2.7058     5.1132   61 ZN   1 0 0
  49 CL   1     2.7653     5.2256    1 C    0 0 0
  49 CL   1     2.9419     5.5594   26 N    0 0 1
  49 CL   1     2.9470     5.5690   25 N    0-1 0

  53 CL   1     1.6953     3.2036   22 C    0 0 0
  53 CL   1     2.6558     5.0187   13 C    0 0 0
  53 CL   1     2.7310     5.1608    9 C    0 0 0
  53 CL   1     2.7936     5.2792   54 CL   0-1-1
  53 CL   1     3.0453     5.7547   57 CL   0 0 0
  53 CL   1     3.1040     5.8656   52 CL   0 0 0

  57 CL   1     1.7216     3.2534   13 C    0 0 0
  57 CL   1     2.6340     4.9775   41 N    0 0 0
  57 CL   1     2.7023     5.1065   22 C    0 0 0
  57 CL   1     2.8787     5.4400   42 N    0 0 0
  57 CL   1     3.0453     5.7547   53 CL   0 0 0
  57 CL   1     3.1707     5.9917   44 N    0 0 0

  61 ZN   4     2.3624     4.4643   25 N   -1-1 0   26 N   -1 0 1   27 N    0 0 1
                                    28 N   -1 0 0
  61 ZN   4     2.7058     5.1132   49 CL  -1 0 0   50 CL   0 0 1   51 CL  -1-1 0
                                    52 CL  -1 0 1
  61 ZN   4     3.1904     6.0290   29 N   -1-1 0   30 N   -1 0 1   31 N    0 0 1
                                    32 N   -1 0 0
  61 ZN   4     3.5029     6.6195    5 C   -1-1 0    6 C   -1 0 1    7 C    0 0 1
                                     8 C   -1 0 0
  61 ZN   4     3.5618     6.7308   17 C   -1 0 0   18 C    0 0 1   19 C   -1-1 0
                                    20 C   -1 0 1
  61 ZN   4     3.9078     7.3847    1 C   -1 0 0    2 C    0 0 1    3 C   -1-1 0
                                     4 C   -1 0 1

  62 ZN   4     2.1188     4.0039   33 N    0 0 0   34 N    0 0 0   35 N    1 1 0
                                    36 N    1 1 0
  62 ZN   4     2.8818     5.4459   37 N    0 0 0   38 N    0 0 0   39 N    1 1 0
                                    40 N    1 1 0
  62 ZN   4     3.2664     6.1726   45 CL   0 0 0   46 CL   0 0 0   47 CL   1 1 0
                                    48 CL   1 1 0
  62 ZN   4     3.3306     6.2939    5 C    0 0 0    6 C    0 0 0    7 C    1 1 0
                                     8 C    1 1 0
  62 ZN   4     4.0342     7.6236    1 C    0 1 0    2 C    1 0 0    3 C    0 0-1
                                     4 C    1 1 1
  62 ZN   4     4.1054     7.7581   29 N    0 0 0   30 N    0 0 0   31 N    1 1 0
                                    32 N    1 1 0


 SYMMETRY ALLOWED INTERNAL DEGREE(S) OF FREEDOM:  45
 TTTTTTTTTTTTTTTTTTTTTTTTTTTTTT SYMM        TELAPSE        7.93 TCPU        0.20
 TTTTTTTTTTTTTTTTTTTTTTTTTTTTTT INT_SCREEN  TELAPSE        7.95 TCPU        0.21
 INFORMATION **** EXCBUF **** EXCH. BIPO BUFFER: WORDS USED =           0

 DFT PARAMETERS

     ATOM       ELECTRONS   NET CHARGE   R(ANGSTROM)
   1   6  C       6.0000      0.0000     0.77000000
  25   7  N       7.0000      0.0000     0.74000000
  45  17  CL     17.0000      0.0000     0.99000000
  61  30  ZN     30.0000      0.0000     1.37000000

 SIZE OF GRID=     501128
 TTTTTTTTTTTTTTTTTTTTTTTTTTTTTT MAKE_GRID2  TELAPSE        8.63 TCPU        0.89
 BECKE WEIGHT FUNCTION
 RADSAFE =     2.00
 TOLERANCES - DENSITY:10**- 6; POTENTIAL:10**- 9; GRID WGT:10**-14

 RADIAL INTEGRATION  - INTERVALS (POINTS,UPPER LIMIT):            1( 75,  4.0*R)

 ANGULAR INTEGRATION - INTERVALS (ACCURACY LEVEL [N. POINTS] UPPER LIMIT):
  1(  4[  86]   0.2)  2(  8[ 194]   0.5)  3( 12[ 350]   0.9)  4( 16[ 974]   3.5)
  5( 12[ 350]9999.0)
 TTTTTTTTTTTTTTTTTTTTTTTTTTTTTT INT_CALC    TELAPSE        8.68 TCPU        0.94
 EEEEEEEEEE INT_CALC TERMINATION  DATE 12 12 2023 TIME 00:47:36.7

 *******************************************************************************
 Z:\home\sanoj\Downloads\tmp_p\newconn.mol                                       
 CRYSTAL - SCF - TYPE OF CALCULATION :  RESTRICTED CLOSED SHELL
 *******************************************************************************

 CAPPA:IS1  3;IS2  3;IS3  3; K PTS MONK NET   6; SYMMOPS:K SPACE   8;G SPACE   4

 TTTTTTTTTTTTTTTTTTTTTTTTTTTTTT SDIK        TELAPSE        8.93 TCPU        1.20

 AAAAAAAAAAAAAAAAAAAAAAAAAAAAAAAAAAAAAAAAAAAAAAAAAAAAAAAAAAAAAAAAAAAAAAAAAAAAAAA
         ATOMIC WAVEFUNCTION(S)


 NUCLEAR CHARGE  6.0  SYMMETRY SPECIES            S    P
 N. ELECTRONS    6.0  NUMBER OF PRIMITIVE GTOS    7    4
                      NUMBER OF CONTRACTED GTOS   3    2
                      NUMBER OF CLOSED SHELLS     2    0
                      OPEN SHELL OCCUPATION       0    2

  ZNUC SCFIT  TOTAL HF ENERGY   KINETIC ENERGY   VIRIAL THEOREM ACCURACY
   6.0   6   -3.750912652E+01  3.905246519E+01 -1.960480378E+00  3.7E-06

 NUCLEAR CHARGE  7.0  SYMMETRY SPECIES            S    P
 N. ELECTRONS    7.0  NUMBER OF PRIMITIVE GTOS    7    4
                      NUMBER OF CONTRACTED GTOS   3    2
                      NUMBER OF CLOSED SHELLS     2    0
                      OPEN SHELL OCCUPATION       0    3

  ZNUC SCFIT  TOTAL HF ENERGY   KINETIC ENERGY   VIRIAL THEOREM ACCURACY
   7.0   9   -5.432196661E+01  5.425066284E+01 -2.001314339E+00  1.2E-06

 NUCLEAR CHARGE 17.0  SYMMETRY SPECIES            S    P
 N. ELECTRONS   17.0  NUMBER OF PRIMITIVE GTOS   10    7
                      NUMBER OF CONTRACTED GTOS   4    3
                      NUMBER OF CLOSED SHELLS     3    1
                      OPEN SHELL OCCUPATION       0    5

  ZNUC SCFIT  TOTAL HF ENERGY   KINETIC ENERGY   VIRIAL THEOREM ACCURACY
  17.0   9   -4.593005957E+02  4.593991532E+02 -1.999785464E+00  2.3E-06

 NUCLEAR CHARGE 30.0  SYMMETRY SPECIES            S    P    D
 N. ELECTRONS   30.0  NUMBER OF PRIMITIVE GTOS   14    9    5
                      NUMBER OF CONTRACTED GTOS   5    3    2
                      NUMBER OF CLOSED SHELLS     4    2    1
                      OPEN SHELL OCCUPATION       0    0    0

  ZNUC SCFIT  TOTAL HF ENERGY   KINETIC ENERGY   VIRIAL THEOREM ACCURACY
  30.0  10   -1.777404290E+03  1.777325716E+03 -2.000044209E+00  2.5E-06

 AAAAAAAAAAAAAAAAAAAAAAAAAAAAAAAAAAAAAAAAAAAAAAAAAAAAAAAAAAAAAAAAAAAAAAAAAAAAAAA

 TOTAL ATOMIC CHARGES:
   6.0000000   6.0000000   6.0000000   6.0000000   6.0000000   6.0000000
   6.0000000   6.0000000   6.0000000   6.0000000   6.0000000   6.0000000
   6.0000000   6.0000000   6.0000000   6.0000000   6.0000000   6.0000000
   6.0000000   6.0000000   6.0000000   6.0000000   6.0000000   6.0000000
   7.0000000   7.0000000   7.0000000   7.0000000   7.0000000   7.0000000
   7.0000000   7.0000000   7.0000000   7.0000000   7.0000000   7.0000000
   7.0000000   7.0000000   7.0000000   7.0000000   7.0000000   7.0000000
   7.0000000   7.0000000  17.0000000  17.0000000  17.0000000  17.0000000
  17.0000000  17.0000000  17.0000000  17.0000000  17.0000000  17.0000000
  17.0000000  17.0000000  17.0000000  17.0000000  17.0000000  17.0000000
  30.0000000  30.0000000
 TTTTTTTTTTTTTTTTTTTTTTTTTTTTTT MOQGAD      TELAPSE       12.09 TCPU        4.32
 TTTTTTTTTTTTTTTTTTTTTTTTTTTTTT SHELLXN     TELAPSE       67.79 TCPU       49.38
 TTTTTTTTTTTTTTTTTTTTTTTTTTTTTT MONMO3      TELAPSE       70.42 TCPU       52.01
 NUMERICALLY INTEGRATED DENSITY    615.9999356936
 TTTTTTTTTTTTTTTTTTTTTTTTTTTTTT NUMDFT      TELAPSE       72.41 TCPU       53.99
 CYC   0 ETOT(AU) -1.292676160363E+04 DETOT -1.29E+04 tst  0.00E+00 PX  1.00E+00
 TTTTTTTTTTTTTTTTTTTTTTTTTTTTTT DIIS        TELAPSE       72.50 TCPU       54.08
 TTTTTTTTTTTTTTTTTTTTTTTTTTTTTT FDIK        TELAPSE      141.65 TCPU      114.96
 INSULATING STATE
 TOP OF VALENCE BANDS -    BAND    308; K    4; EIG -1.3366872E-01 AU
 TOP OF VALENCE BANDS -    BAND    308; K    1; EIG -1.3482412E-01 AU
 BOTTOM OF VIRTUAL BANDS - BAND    309; K    4; EIG -8.6206422E-02 AU
 DIRECT ENERGY BAND GAP:   1.2915 eV
 BOTTOM OF VIRTUAL BANDS - BAND    309; K    1; EIG -8.5618668E-02 AU
 TTTTTTTTTTTTTTTTTTTTTTTTTTTTTT PDIG        TELAPSE      142.67 TCPU      115.98
 TOTAL ATOMIC CHARGES:
   6.3388522   6.3388522   6.3388522   6.3388522   5.5704143   5.5704143
   5.5704143   5.5704143   5.5029439   5.5029439   5.5029439   5.5029439
   5.2475406   5.2475406   5.2475406   5.2475406   5.1426525   5.1426525
   5.1426525   5.1426525   5.6864224   5.6864224   5.6864224   5.6864224
   7.5121781   7.5121781   7.5121781   7.5121781   7.2237653   7.2237653
   7.2237653   7.2237653   7.4897681   7.4897681   7.4897681   7.4897681
   7.1646036   7.1646036   7.1646036   7.1646036   7.7183894   7.7183894
   7.7183894   7.7183894  17.3312697  17.3312697  17.3312697  17.3312697
  17.3674640  17.3674640  17.3674640  17.3674640  17.3748762  17.3748762
  17.3748762  17.3748762  17.3042575  17.3042575  17.3042575  17.3042575
  28.0558828  28.0425263
 TTTTTTTTTTTTTTTTTTTTTTTTTTTTTT MOQGAD      TELAPSE      142.72 TCPU      116.03
 TTTTTTTTTTTTTTTTTTTTTTTTTTTTTT SHELLXN     TELAPSE      197.76 TCPU      168.49
 TTTTTTTTTTTTTTTTTTTTTTTTTTTTTT MONMO3      TELAPSE      201.55 TCPU      172.27
 NUMERICALLY INTEGRATED DENSITY    615.9999532467
 TTTTTTTTTTTTTTTTTTTTTTTTTTTTTT NUMDFT      TELAPSE      206.67 TCPU      177.37
 CYC   1 ETOT(AU) -1.292029112110E+04 DETOT  6.47E+00 tst  0.00E+00 PX  1.00E+00
 TTTTTTTTTTTTTTTTTTTTTTTTTTTTTT DIIS        TELAPSE      206.91 TCPU      177.61
 DIIS TEST: 0.79598E+01 AT SCF   CYCLE   1 - MIX   30 %
 TTTTTTTTTTTTTTTTTTTTTTTTTTTTTT FDIK        TELAPSE      230.09 TCPU      198.46
 INSULATING STATE
 TOP OF VALENCE BANDS -    BAND    308; K    6; EIG -1.6731827E-01 AU
 TOP OF VALENCE BANDS -    BAND    308; K    1; EIG -1.6744510E-01 AU
 BOTTOM OF VIRTUAL BANDS - BAND    309; K    4; EIG -1.2751894E-01 AU
 INDIRECT ENERGY BAND GAP:   1.0830 eV
 BOTTOM OF VIRTUAL BANDS - BAND    309; K    1; EIG -1.2730793E-01 AU
 TTTTTTTTTTTTTTTTTTTTTTTTTTTTTT PDIG        TELAPSE      231.11 TCPU      199.48
 TOTAL ATOMIC CHARGES:
   6.1676337   6.1676337   6.1676337   6.1676337   6.4777716   6.4777716
   6.4777716   6.4777716   6.2329543   6.2329543   6.2329543   6.2329543
   6.0998674   6.0998674   6.0998674   6.0998674   6.1535460   6.1535460
   6.1535460   6.1535460   5.9121969   5.9121969   5.9121969   5.9121969
   6.8154829   6.8154829   6.8154829   6.8154829   6.9831915   6.9831915
   6.9831915   6.9831915   6.9657880   6.9657880   6.9657880   6.9657880
   6.9253686   6.9253686   6.9253686   6.9253686   6.1482764   6.1482764
   6.1482764   6.1482764  17.1156230  17.1156230  17.1156230  17.1156230
  17.2434628  17.2434628  17.2434628  17.2434628  17.0551367  17.0551367
  17.0551367  17.0551367  17.0009616  17.0009616  17.0009616  17.0009616
  29.3916976  29.4192565
 TTTTTTTTTTTTTTTTTTTTTTTTTTTTTT MOQGAD      TELAPSE      231.16 TCPU      199.52
 TTTTTTTTTTTTTTTTTTTTTTTTTTTTTT SHELLXN     TELAPSE      285.90 TCPU      251.97
 TTTTTTTTTTTTTTTTTTTTTTTTTTTTTT MONMO3      TELAPSE      289.91 TCPU      255.97
 NUMERICALLY INTEGRATED DENSITY    615.9999636758
 TTTTTTTTTTTTTTTTTTTTTTTTTTTTTT NUMDFT      TELAPSE      295.03 TCPU      261.07
 CYC   2 ETOT(AU) -1.291903236692E+04 DETOT  1.26E+00 tst  2.37E-02 PX  6.36E-01
 TTTTTTTTTTTTTTTTTTTTTTTTTTTTTT DIIS        TELAPSE      295.28 TCPU      261.32
 DIIS TEST: 0.16443E+02 AT SCF   CYCLE   2 - DIIS ACTIVE - HISTORY:     2 CYCLES
 TTTTTTTTTTTTTTTTTTTTTTTTTTTTTT FDIK        TELAPSE      316.18 TCPU      279.86
 INSULATING STATE
 TOP OF VALENCE BANDS -    BAND    308; K    3; EIG -2.2959706E-01 AU
 TOP OF VALENCE BANDS -    BAND    308; K    1; EIG -2.3159132E-01 AU
 BOTTOM OF VIRTUAL BANDS - BAND    309; K    1; EIG -1.2212809E-01 AU
 INDIRECT ENERGY BAND GAP:   2.9244 eV
 TTTTTTTTTTTTTTTTTTTTTTTTTTTTTT PDIG        TELAPSE      317.20 TCPU      280.88
 TOTAL ATOMIC CHARGES:
   6.0323235   6.0323235   6.0323235   6.0323235   5.9507070   5.9507070
   5.9507070   5.9507070   5.6563087   5.6563087   5.6563087   5.6563087
   5.8317394   5.8317394   5.8317394   5.8317394   5.6691941   5.6691941
   5.6691941   5.6691941   5.7195446   5.7195446   5.7195446   5.7195446
   7.2121627   7.2121627   7.2121627   7.2121627   7.1448073   7.1448073
   7.1448073   7.1448073   7.1163246   7.1163246   7.1163246   7.1163246
   7.0871507   7.0871507   7.0871507   7.0871507   7.3612086   7.3612086
   7.3612086   7.3612086  17.1880908  17.1880908  17.1880908  17.1880908
  17.1884023  17.1884023  17.1884023  17.1884023  17.1916575  17.1916575
  17.1916575  17.1916575  17.1359738  17.1359738  17.1359738  17.1359738
  28.9824043  29.0752131
 TTTTTTTTTTTTTTTTTTTTTTTTTTTTTT MOQGAD      TELAPSE      317.25 TCPU      280.93
 TTTTTTTTTTTTTTTTTTTTTTTTTTTTTT SHELLXN     TELAPSE      371.96 TCPU      333.23
 TTTTTTTTTTTTTTTTTTTTTTTTTTTTTT MONMO3      TELAPSE      376.11 TCPU      337.37
 NUMERICALLY INTEGRATED DENSITY    615.9999542248
 TTTTTTTTTTTTTTTTTTTTTTTTTTTTTT NUMDFT      TELAPSE      381.17 TCPU      342.43
 CYC   3 ETOT(AU) -1.292164240913E+04 DETOT -2.61E+00 tst  5.06E-03 PX  3.85E-01
 TTTTTTTTTTTTTTTTTTTTTTTTTTTTTT DIIS        TELAPSE      381.42 TCPU      342.67
 DIIS TEST: 0.17497E+01 AT SCF   CYCLE   3 - DIIS ACTIVE - HISTORY:     3 CYCLES
 TTTTTTTTTTTTTTTTTTTTTTTTTTTTTT FDIK        TELAPSE      400.58 TCPU      359.27
 INSULATING STATE
 TOP OF VALENCE BANDS -    BAND    308; K    1; EIG -2.2860402E-01 AU
 BOTTOM OF VIRTUAL BANDS - BAND    309; K    6; EIG -1.2046369E-01 AU
 INDIRECT ENERGY BAND GAP:   2.9426 eV
 BOTTOM OF VIRTUAL BANDS - BAND    309; K    1; EIG -1.1766130E-01 AU
 TTTTTTTTTTTTTTTTTTTTTTTTTTTTTT PDIG        TELAPSE      401.61 TCPU      360.28
 TOTAL ATOMIC CHARGES:
   6.2756752   6.2756752   6.2756752   6.2756752   5.9229205   5.9229205
   5.9229205   5.9229205   5.8354744   5.8354744   5.8354744   5.8354744
   5.5476406   5.5476406   5.5476406   5.5476406   5.5317727   5.5317727
   5.5317727   5.5317727   5.7965814   5.7965814   5.7965814   5.7965814
   7.2374479   7.2374479   7.2374479   7.2374479   7.0946778   7.0946778
   7.0946778   7.0946778   7.2958941   7.2958941   7.2958941   7.2958941
   7.0755834   7.0755834   7.0755834   7.0755834   7.1114808   7.1114808
   7.1114808   7.1114808  17.2134866  17.2134866  17.2134866  17.2134866
  17.2686356  17.2686356  17.2686356  17.2686356  17.2547266  17.2547266
  17.2547266  17.2547266  17.1491995  17.1491995  17.1491995  17.1491995
  28.7449952  28.8102166
 TTTTTTTTTTTTTTTTTTTTTTTTTTTTTT MOQGAD      TELAPSE      401.66 TCPU      360.32
 TTTTTTTTTTTTTTTTTTTTTTTTTTTTTT SHELLXN     TELAPSE      456.61 TCPU      412.89
 TTTTTTTTTTTTTTTTTTTTTTTTTTTTTT MONMO3      TELAPSE      460.68 TCPU      416.95
 NUMERICALLY INTEGRATED DENSITY    615.9999576266
 TTTTTTTTTTTTTTTTTTTTTTTTTTTTTT NUMDFT      TELAPSE      465.85 TCPU      422.10
 CYC   4 ETOT(AU) -1.292186180794E+04 DETOT -2.19E-01 tst  2.93E-03 PX  1.51E-01
 TTTTTTTTTTTTTTTTTTTTTTTTTTTTTT DIIS        TELAPSE      466.09 TCPU      422.34
 DIIS TEST: 0.51811E+00 AT SCF   CYCLE   4 - DIIS ACTIVE - HISTORY:     4 CYCLES
 TTTTTTTTTTTTTTTTTTTTTTTTTTTTTT FDIK        TELAPSE      485.63 TCPU      439.59
 INSULATING STATE
 TOP OF VALENCE BANDS -    BAND    308; K    5; EIG -2.3388508E-01 AU
 TOP OF VALENCE BANDS -    BAND    308; K    1; EIG -2.3547501E-01 AU
 BOTTOM OF VIRTUAL BANDS - BAND    309; K    6; EIG -1.2289528E-01 AU
 INDIRECT ENERGY BAND GAP:   3.0202 eV
 BOTTOM OF VIRTUAL BANDS - BAND    309; K    1; EIG -1.2050955E-01 AU
 TTTTTTTTTTTTTTTTTTTTTTTTTTTTTT PDIG        TELAPSE      486.67 TCPU      440.63
 TOTAL ATOMIC CHARGES:
   6.2127145   6.2127145   6.2127145   6.2127145   5.9442836   5.9442836
   5.9442836   5.9442836   5.7908800   5.7908800   5.7908800   5.7908800
   5.6739229   5.6739229   5.6739229   5.6739229   5.6025004   5.6025004
   5.6025004   5.6025004   5.7861019   5.7861019   5.7861019   5.7861019
   7.2305149   7.2305149   7.2305149   7.2305149   7.1707140   7.1707140
   7.1707140   7.1707140   7.1850152   7.1850152   7.1850152   7.1850152
   7.0532095   7.0532095   7.0532095   7.0532095   7.1760221   7.1760221
   7.1760221   7.1760221  17.1938792  17.1938792  17.1938792  17.1938792
  17.2623605  17.2623605  17.2623605  17.2623605  17.1990686  17.1990686
  17.1990686  17.1990686  17.1405282  17.1405282  17.1405282  17.1405282
  28.7348476  28.7782898
 TTTTTTTTTTTTTTTTTTTTTTTTTTTTTT MOQGAD      TELAPSE      486.72 TCPU      440.67
 TTTTTTTTTTTTTTTTTTTTTTTTTTTTTT SHELLXN     TELAPSE      541.68 TCPU      493.09
 TTTTTTTTTTTTTTTTTTTTTTTTTTTTTT MONMO3      TELAPSE      545.92 TCPU      497.32
 NUMERICALLY INTEGRATED DENSITY    615.9999567641
 TTTTTTTTTTTTTTTTTTTTTTTTTTTTTT NUMDFT      TELAPSE      551.09 TCPU      502.47
 CYC   5 ETOT(AU) -1.292192536962E+04 DETOT -6.36E-02 tst  4.71E-04 PX  4.54E-02
 TTTTTTTTTTTTTTTTTTTTTTTTTTTTTT DIIS        TELAPSE      551.35 TCPU      502.74
 DIIS TEST: 0.92680E-01 AT SCF   CYCLE   5 - DIIS ACTIVE - HISTORY:     5 CYCLES
 TTTTTTTTTTTTTTTTTTTTTTTTTTTTTT FDIK        TELAPSE      568.71 TCPU      517.59
 INSULATING STATE
 TOP OF VALENCE BANDS -    BAND    308; K    5; EIG -2.3249471E-01 AU
 TOP OF VALENCE BANDS -    BAND    308; K    1; EIG -2.3378277E-01 AU
 BOTTOM OF VIRTUAL BANDS - BAND    309; K    6; EIG -1.2114208E-01 AU
 INDIRECT ENERGY BAND GAP:   3.0301 eV
 BOTTOM OF VIRTUAL BANDS - BAND    309; K    1; EIG -1.1878834E-01 AU
 TTTTTTTTTTTTTTTTTTTTTTTTTTTTTT PDIG        TELAPSE      569.73 TCPU      518.61
 TOTAL ATOMIC CHARGES:
   6.1980570   6.1980570   6.1980570   6.1980570   5.9366550   5.9366550
   5.9366550   5.9366550   5.7764022   5.7764022   5.7764022   5.7764022
   5.6557570   5.6557570   5.6557570   5.6557570   5.5724748   5.5724748
   5.5724748   5.5724748   5.7644153   5.7644153   5.7644153   5.7644153
   7.2034633   7.2034633   7.2034633   7.2034633   7.0971943   7.0971943
   7.0971943   7.0971943   7.2554122   7.2554122   7.2554122   7.2554122
   7.1015237   7.1015237   7.1015237   7.1015237   7.1912633   7.1912633
   7.1912633   7.1912633  17.2191865  17.2191865  17.2191865  17.2191865
  17.2590578  17.2590578  17.2590578  17.2590578  17.2271624  17.2271624
  17.2271624  17.2271624  17.1494660  17.1494660  17.1494660  17.1494660
  28.7566938  28.8133433
 TTTTTTTTTTTTTTTTTTTTTTTTTTTTTT MOQGAD      TELAPSE      569.77 TCPU      518.65
 TTTTTTTTTTTTTTTTTTTTTTTTTTTTTT SHELLXN     TELAPSE      624.58 TCPU      571.00
 TTTTTTTTTTTTTTTTTTTTTTTTTTTTTT MONMO3      TELAPSE      629.03 TCPU      575.43
 NUMERICALLY INTEGRATED DENSITY    615.9999571382
 TTTTTTTTTTTTTTTTTTTTTTTTTTTTTT NUMDFT      TELAPSE      634.14 TCPU      580.52
 CYC   6 ETOT(AU) -1.292193559365E+04 DETOT -1.02E-02 tst  8.27E-05 PX  4.05E-02
 TTTTTTTTTTTTTTTTTTTTTTTTTTTTTT DIIS        TELAPSE      634.41 TCPU      580.79
 DIIS TEST: 0.35809E-01 AT SCF   CYCLE   6 - DIIS ACTIVE - HISTORY:     6 CYCLES
 TTTTTTTTTTTTTTTTTTTTTTTTTTTTTT FDIK        TELAPSE      654.32 TCPU      598.31
 INSULATING STATE
 TOP OF VALENCE BANDS -    BAND    308; K    5; EIG -2.3238070E-01 AU
 TOP OF VALENCE BANDS -    BAND    308; K    1; EIG -2.3351679E-01 AU
 BOTTOM OF VIRTUAL BANDS - BAND    309; K    6; EIG -1.2087449E-01 AU
 INDIRECT ENERGY BAND GAP:   3.0342 eV
 BOTTOM OF VIRTUAL BANDS - BAND    309; K    1; EIG -1.1822664E-01 AU
 TTTTTTTTTTTTTTTTTTTTTTTTTTTTTT PDIG        TELAPSE      655.35 TCPU      599.33
 TOTAL ATOMIC CHARGES:
   6.2001027   6.2001027   6.2001027   6.2001027   5.9412650   5.9412650
   5.9412650   5.9412650   5.7831310   5.7831310   5.7831310   5.7831310
   5.6408190   5.6408190   5.6408190   5.6408190   5.5804956   5.5804956
   5.5804956   5.5804956   5.7682247   5.7682247   5.7682247   5.7682247
   7.2449025   7.2449025   7.2449025   7.2449025   7.1371188   7.1371188
   7.1371188   7.1371188   7.2114820   7.2114820   7.2114820   7.2114820
   7.0630569   7.0630569   7.0630569   7.0630569   7.1880261   7.1880261
   7.1880261   7.1880261  17.2088769  17.2088769  17.2088769  17.2088769
  17.2578102  17.2578102  17.2578102  17.2578102  17.2296186  17.2296186
  17.2296186  17.2296186  17.1481344  17.1481344  17.1481344  17.1481344
  28.7687270  28.8190148
 TTTTTTTTTTTTTTTTTTTTTTTTTTTTTT MOQGAD      TELAPSE      655.39 TCPU      599.38
 TTTTTTTTTTTTTTTTTTTTTTTTTTTTTT SHELLXN     TELAPSE      710.27 TCPU      651.88
 TTTTTTTTTTTTTTTTTTTTTTTTTTTTTT MONMO3      TELAPSE      714.59 TCPU      656.19
 NUMERICALLY INTEGRATED DENSITY    615.9999569351
 TTTTTTTTTTTTTTTTTTTTTTTTTTTTTT NUMDFT      TELAPSE      719.75 TCPU      661.34
 CYC   7 ETOT(AU) -1.292193946459E+04 DETOT -3.87E-03 tst  3.04E-05 PX  1.28E-02
 TTTTTTTTTTTTTTTTTTTTTTTTTTTTTT DIIS        TELAPSE      720.01 TCPU      661.60
 DIIS TEST: 0.14480E-01 AT SCF   CYCLE   7 - DIIS ACTIVE - HISTORY:     7 CYCLES
 TTTTTTTTTTTTTTTTTTTTTTTTTTTTTT FDIK        TELAPSE      738.94 TCPU      678.12
 INSULATING STATE
 TOP OF VALENCE BANDS -    BAND    308; K    5; EIG -2.3244091E-01 AU
 TOP OF VALENCE BANDS -    BAND    308; K    1; EIG -2.3375954E-01 AU
 BOTTOM OF VIRTUAL BANDS - BAND    309; K    6; EIG -1.2132260E-01 AU
 INDIRECT ENERGY BAND GAP:   3.0237 eV
 BOTTOM OF VIRTUAL BANDS - BAND    309; K    1; EIG -1.1883623E-01 AU
 TTTTTTTTTTTTTTTTTTTTTTTTTTTTTT PDIG        TELAPSE      739.97 TCPU      679.15
 TOTAL ATOMIC CHARGES:
   6.1985743   6.1985743   6.1985743   6.1985743   5.9436069   5.9436069
   5.9436069   5.9436069   5.7836641   5.7836641   5.7836641   5.7836641
   5.6576535   5.6576535   5.6576535   5.6576535   5.5849805   5.5849805
   5.5849805   5.5849805   5.7758904   5.7758904   5.7758904   5.7758904
   7.2181997   7.2181997   7.2181997   7.2181997   7.1322394   7.1322394
   7.1322394   7.1322394   7.2220875   7.2220875   7.2220875   7.2220875
   7.0776332   7.0776332   7.0776332   7.0776332   7.1859762   7.1859762
   7.1859762   7.1859762  17.2061449  17.2061449  17.2061449  17.2061449
  17.2531388  17.2531388  17.2531388  17.2531388  17.2204766  17.2204766
  17.2204766  17.2204766  17.1447629  17.1447629  17.1447629  17.1447629
  28.7632128  28.8166722
 TTTTTTTTTTTTTTTTTTTTTTTTTTTTTT MOQGAD      TELAPSE      740.02 TCPU      679.19
 TTTTTTTTTTTTTTTTTTTTTTTTTTTTTT SHELLXN     TELAPSE      794.91 TCPU      731.58
 TTTTTTTTTTTTTTTTTTTTTTTTTTTTTT MONMO3      TELAPSE      799.13 TCPU      735.78
 NUMERICALLY INTEGRATED DENSITY    615.9999569015
 TTTTTTTTTTTTTTTTTTTTTTTTTTTTTT NUMDFT      TELAPSE      804.25 TCPU      740.88
 CYC   8 ETOT(AU) -1.292194171375E+04 DETOT -2.25E-03 tst  3.26E-06 PX  9.53E-03
 TTTTTTTTTTTTTTTTTTTTTTTTTTTTTT DIIS        TELAPSE      804.52 TCPU      741.14
 DIIS TEST: 0.76089E-03 AT SCF   CYCLE   8 - DIIS ACTIVE - HISTORY:     8 CYCLES
 TTTTTTTTTTTTTTTTTTTTTTTTTTTTTT FDIK        TELAPSE      823.82 TCPU      758.08
 INSULATING STATE
 TOP OF VALENCE BANDS -    BAND    308; K    5; EIG -2.3247089E-01 AU
 TOP OF VALENCE BANDS -    BAND    308; K    1; EIG -2.3375254E-01 AU
 BOTTOM OF VIRTUAL BANDS - BAND    309; K    6; EIG -1.2135843E-01 AU
 INDIRECT ENERGY BAND GAP:   3.0235 eV
 BOTTOM OF VIRTUAL BANDS - BAND    309; K    1; EIG -1.1884692E-01 AU
 TTTTTTTTTTTTTTTTTTTTTTTTTTTTTT PDIG        TELAPSE      824.85 TCPU      759.11
 TOTAL ATOMIC CHARGES:
   6.2013711   6.2013711   6.2013711   6.2013711   5.9397387   5.9397387
   5.9397387   5.9397387   5.7790586   5.7790586   5.7790586   5.7790586
   5.6577308   5.6577308   5.6577308   5.6577308   5.5852053   5.5852053
   5.5852053   5.5852053   5.7692889   5.7692889   5.7692889   5.7692889
   7.2272791   7.2272791   7.2272791   7.2272791   7.1244192   7.1244192
   7.1244192   7.1244192   7.2256597   7.2256597   7.2256597   7.2256597
   7.0750108   7.0750108   7.0750108   7.0750108   7.1845672   7.1845672
   7.1845672   7.1845672  17.2096809  17.2096809  17.2096809  17.2096809
  17.2578198  17.2578198  17.2578198  17.2578198  17.2216419  17.2216419
  17.2216419  17.2216419  17.1461449  17.1461449  17.1461449  17.1461449
  28.7641075  28.8174257
 TTTTTTTTTTTTTTTTTTTTTTTTTTTTTT MOQGAD      TELAPSE      824.90 TCPU      759.15
 TTTTTTTTTTTTTTTTTTTTTTTTTTTTTT SHELLXN     TELAPSE      879.77 TCPU      811.53
 TTTTTTTTTTTTTTTTTTTTTTTTTTTTTT MONMO3      TELAPSE      883.78 TCPU      815.53
 NUMERICALLY INTEGRATED DENSITY    615.9999569733
 TTTTTTTTTTTTTTTTTTTTTTTTTTTTTT NUMDFT      TELAPSE      888.87 TCPU      820.61
 CYC   9 ETOT(AU) -1.292194177593E+04 DETOT -6.22E-05 tst  6.72E-07 PX  2.11E-03
 TTTTTTTTTTTTTTTTTTTTTTTTTTTTTT DIIS        TELAPSE      889.21 TCPU      820.94
 DIIS TEST: 0.45174E-03 AT SCF   CYCLE   9 - DIIS ACTIVE - HISTORY:     9 CYCLES
 TTTTTTTTTTTTTTTTTTTTTTTTTTTTTT FDIK        TELAPSE      907.01 TCPU      836.39
 INSULATING STATE
 TOP OF VALENCE BANDS -    BAND    308; K    5; EIG -2.3261435E-01 AU
 TOP OF VALENCE BANDS -    BAND    308; K    1; EIG -2.3388339E-01 AU
 BOTTOM OF VIRTUAL BANDS - BAND    309; K    6; EIG -1.2130181E-01 AU
 INDIRECT ENERGY BAND GAP:   3.0290 eV
 BOTTOM OF VIRTUAL BANDS - BAND    309; K    1; EIG -1.1880189E-01 AU
 TTTTTTTTTTTTTTTTTTTTTTTTTTTTTT PDIG        TELAPSE      908.03 TCPU      837.41
 TOTAL ATOMIC CHARGES:
   6.1995814   6.1995814   6.1995814   6.1995814   5.9407021   5.9407021
   5.9407021   5.9407021   5.7821624   5.7821624   5.7821624   5.7821624
   5.6554987   5.6554987   5.6554987   5.6554987   5.5815520   5.5815520
   5.5815520   5.5815520   5.7724267   5.7724267   5.7724267   5.7724267
   7.2220619   7.2220619   7.2220619   7.2220619   7.1298762   7.1298762
   7.1298762   7.1298762   7.2225619   7.2225619   7.2225619   7.2225619
   7.0764079   7.0764079   7.0764079   7.0764079   7.1867441   7.1867441
   7.1867441   7.1867441  17.2090460  17.2090460  17.2090460  17.2090460
  17.2572245  17.2572245  17.2572245  17.2572245  17.2223670  17.2223670
  17.2223670  17.2223670  17.1461223  17.1461223  17.1461223  17.1461223
  28.7646092  28.8180510
 TTTTTTTTTTTTTTTTTTTTTTTTTTTTTT MOQGAD      TELAPSE      908.08 TCPU      837.45
 TTTTTTTTTTTTTTTTTTTTTTTTTTTTTT SHELLXN     TELAPSE      962.94 TCPU      889.93
 TTTTTTTTTTTTTTTTTTTTTTTTTTTTTT MONMO3      TELAPSE      967.04 TCPU      894.03
 NUMERICALLY INTEGRATED DENSITY    615.9999569141
 TTTTTTTTTTTTTTTTTTTTTTTTTTTTTT NUMDFT      TELAPSE      972.15 TCPU      899.13
 CYC  10 ETOT(AU) -1.292194183318E+04 DETOT -5.73E-05 tst  2.67E-07 PX  1.39E-03
 TTTTTTTTTTTTTTTTTTTTTTTTTTTTTT DIIS        TELAPSE      972.43 TCPU      899.41
 DIIS TEST: 0.11601E-03 AT SCF   CYCLE  10 - DIIS ACTIVE - HISTORY:    10 CYCLES
 TTTTTTTTTTTTTTTTTTTTTTTTTTTTTT FDIK        TELAPSE      992.88 TCPU      917.55
 INSULATING STATE
 TOP OF VALENCE BANDS -    BAND    308; K    5; EIG -2.3253341E-01 AU
 TOP OF VALENCE BANDS -    BAND    308; K    1; EIG -2.3383192E-01 AU
 BOTTOM OF VIRTUAL BANDS - BAND    309; K    6; EIG -1.2139275E-01 AU
 INDIRECT ENERGY BAND GAP:   3.0243 eV
 BOTTOM OF VIRTUAL BANDS - BAND    309; K    1; EIG -1.1888697E-01 AU
 TTTTTTTTTTTTTTTTTTTTTTTTTTTTTT PDIG        TELAPSE      993.91 TCPU      918.57
 TOTAL ATOMIC CHARGES:
   6.1999137   6.1999137   6.1999137   6.1999137   5.9417631   5.9417631
   5.9417631   5.9417631   5.7816674   5.7816674   5.7816674   5.7816674
   5.6556980   5.6556980   5.6556980   5.6556980   5.5838299   5.5838299
   5.5838299   5.5838299   5.7720855   5.7720855   5.7720855   5.7720855
   7.2231423   7.2231423   7.2231423   7.2231423   7.1283753   7.1283753
   7.1283753   7.1283753   7.2239006   7.2239006   7.2239006   7.2239006
   7.0759587   7.0759587   7.0759587   7.0759587   7.1867209   7.1867209
   7.1867209   7.1867209  17.2083666  17.2083666  17.2083666  17.2083666
  17.2557415  17.2557415  17.2557415  17.2557415  17.2216850  17.2216850
  17.2216850  17.2216850  17.1459383  17.1459383  17.1459383  17.1459383
  28.7639034  28.8169496
 TTTTTTTTTTTTTTTTTTTTTTTTTTTTTT MOQGAD      TELAPSE      993.95 TCPU      918.61
 TTTTTTTTTTTTTTTTTTTTTTTTTTTTTT SHELLXN     TELAPSE     1048.57 TCPU      970.81
 TTTTTTTTTTTTTTTTTTTTTTTTTTTTTT MONMO3      TELAPSE     1052.79 TCPU      975.02
 NUMERICALLY INTEGRATED DENSITY    615.9999569328
 TTTTTTTTTTTTTTTTTTTTTTTTTTTTTT NUMDFT      TELAPSE     1057.90 TCPU      980.12
 CYC  11 ETOT(AU) -1.292194184790E+04 DETOT -1.47E-05 tst  3.10E-08 PX  7.37E-04
 TTTTTTTTTTTTTTTTTTTTTTTTTTTTTT DIIS        TELAPSE     1058.18 TCPU      980.39
 DIIS TEST: 0.18369E-04 AT SCF   CYCLE  11 - DIIS ACTIVE - HISTORY:    11 CYCLES
 TTTTTTTTTTTTTTTTTTTTTTTTTTTTTT FDIK        TELAPSE     1076.99 TCPU      996.89
 INSULATING STATE
 TOP OF VALENCE BANDS -    BAND    308; K    5; EIG -2.3256398E-01 AU
 TOP OF VALENCE BANDS -    BAND    308; K    1; EIG -2.3383349E-01 AU
 BOTTOM OF VIRTUAL BANDS - BAND    309; K    6; EIG -1.2129999E-01 AU
 INDIRECT ENERGY BAND GAP:   3.0276 eV
 BOTTOM OF VIRTUAL BANDS - BAND    309; K    1; EIG -1.1879746E-01 AU
 TTTTTTTTTTTTTTTTTTTTTTTTTTTTTT PDIG        TELAPSE     1078.02 TCPU      997.91
 TOTAL ATOMIC CHARGES:
   6.1994844   6.1994844   6.1994844   6.1994844   5.9407655   5.9407655
   5.9407655   5.9407655   5.7810701   5.7810701   5.7810701   5.7810701
   5.6567455   5.6567455   5.6567455   5.6567455   5.5831410   5.5831410
   5.5831410   5.5831410   5.7720192   5.7720192   5.7720192   5.7720192
   7.2235367   7.2235367   7.2235367   7.2235367   7.1284854   7.1284854
   7.1284854   7.1284854   7.2232979   7.2232979   7.2232979   7.2232979
   7.0765498   7.0765498   7.0765498   7.0765498   7.1855072   7.1855072
   7.1855072   7.1855072  17.2089245  17.2089245  17.2089245  17.2089245
  17.2567950  17.2567950  17.2567950  17.2567950  17.2223317  17.2223317
  17.2223317  17.2223317  17.1460043  17.1460043  17.1460043  17.1460043
  28.7639793  28.8173879
 TTTTTTTTTTTTTTTTTTTTTTTTTTTTTT MOQGAD      TELAPSE     1078.06 TCPU      997.96
 TTTTTTTTTTTTTTTTTTTTTTTTTTTTTT SHELLXN     TELAPSE     1132.88 TCPU     1050.18
 TTTTTTTTTTTTTTTTTTTTTTTTTTTTTT MONMO3      TELAPSE     1137.18 TCPU     1054.48
 NUMERICALLY INTEGRATED DENSITY    615.9999569378
 TTTTTTTTTTTTTTTTTTTTTTTTTTTTTT NUMDFT      TELAPSE     1142.32 TCPU     1059.60
 CYC  12 ETOT(AU) -1.292194184784E+04 DETOT  6.25E-08 tst  1.41E-08 PX  3.57E-04
 TTTTTTTTTTTTTTTTTTTTTTTTTTTTTT DIIS        TELAPSE     1142.60 TCPU     1059.88
 DIIS TEST: 0.18696E-04 AT SCF   CYCLE  12 - DIIS ACTIVE - HISTORY:    12 CYCLES
 TTTTTTTTTTTTTTTTTTTTTTTTTTTTTT FDIK        TELAPSE     1160.20 TCPU     1075.06
 INSULATING STATE
 TOP OF VALENCE BANDS -    BAND    308; K    5; EIG -2.3253774E-01 AU
 TOP OF VALENCE BANDS -    BAND    308; K    1; EIG -2.3382329E-01 AU
 BOTTOM OF VIRTUAL BANDS - BAND    309; K    6; EIG -1.2133879E-01 AU
 INDIRECT ENERGY BAND GAP:   3.0259 eV
 BOTTOM OF VIRTUAL BANDS - BAND    309; K    1; EIG -1.1883384E-01 AU
 TTTTTTTTTTTTTTTTTTTTTTTTTTTTTT PDIG        TELAPSE     1161.23 TCPU     1076.08
 TOTAL ATOMIC CHARGES:
   6.2000610   6.2000610   6.2000610   6.2000610   5.9411140   5.9411140
   5.9411140   5.9411140   5.7815257   5.7815257   5.7815257   5.7815257
   5.6559714   5.6559714   5.6559714   5.6559714   5.5832832   5.5832832
   5.5832832   5.5832832   5.7717656   5.7717656   5.7717656   5.7717656
   7.2231602   7.2231602   7.2231602   7.2231602   7.1285400   7.1285400
   7.1285400   7.1285400   7.2236100   7.2236100   7.2236100   7.2236100
   7.0759594   7.0759594   7.0759594   7.0759594   7.1864448   7.1864448
   7.1864448   7.1864448  17.2087099  17.2087099  17.2087099  17.2087099
  17.2565064  17.2565064  17.2565064  17.2565064  17.2219355  17.2219355
  17.2219355  17.2219355  17.1460007  17.1460007  17.1460007  17.1460007
  28.7641693  28.8174790
 TTTTTTTTTTTTTTTTTTTTTTTTTTTTTT MOQGAD      TELAPSE     1161.27 TCPU     1076.12
 TTTTTTTTTTTTTTTTTTTTTTTTTTTTTT SHELLXN     TELAPSE     1213.73 TCPU     1128.35
 +++ ENERGIES IN A.U. +++
 ::: EXT EL-POLE                                  -1.6879508356493E+04
 ::: EXT EL-SPHEROPOLE                             1.1270605702515E+02
 ::: BIELET ZONE E-E                               2.0864165061853E+04
 ::: TOTAL E-E                                     4.0973627623844E+03
 ::: TOTAL E-N + N-E                              -2.7192239796922E+04
 ::: TOTAL N-N                                    -1.8511240440489E+03
 ::: KINETIC ENERGY                                1.2880553199549E+04
 ::: PSEUDO TOTAL   ENERGY                        -1.2065447879038E+04
 ::: VIRIAL COEFFICIENT                            1.0326747889549E+00
 TTTTTTTTTTTTTTTTTTTTTTTTTTTTTT MONMO3      TELAPSE     1218.23 TCPU     1132.85
 NUMERICALLY INTEGRATED DENSITY    615.9999569319
 TTTTTTTTTTTTTTTTTTTTTTTTTTTTTT NUMDFT      TELAPSE     1223.34 TCPU     1137.93
[...]
 DIIS TEST: 0.95090E-03 AT CPHF  CYCLE   9 - DIIS ACTIVE - HISTORY:     9 CYCLES
 CYCLE   9   ALPHA 1710.722992  EPSILON    4.573786  DELTA    5.9134E-02
 TTTTTTTTTTTTTTTTTTTTTTTTTTTTTT MOQGAD      TELAPSE   118538.01 TCPU   117535.95
 TTTTTTTTTTTTTTTTTTTTTTTTTTTTTT CP_MONMON   TELAPSE   118564.35 TCPU   117562.23
 DIIS TEST: 0.19335E-03 AT CPHF  CYCLE  10 - DIIS ACTIVE - HISTORY:    10 CYCLES
 CYCLE  10   ALPHA 1710.725535  EPSILON    4.573791  DELTA    2.5430E-03
 TTTTTTTTTTTTTTTTTTTTTTTTTTTTTT MOQGAD      TELAPSE   119676.68 TCPU   118662.63
 TTTTTTTTTTTTTTTTTTTTTTTTTTTTTT CP_MONMON   TELAPSE   119702.79 TCPU   118688.64
 DIIS TEST: 0.42195E-04 AT CPHF  CYCLE  11 - DIIS ACTIVE - HISTORY:    11 CYCLES
 CYCLE  11   ALPHA 1710.692182  EPSILON    4.573722  DELTA   -3.3352E-02
 TTTTTTTTTTTTTTTTTTTTTTTTTTTTTT MOQGAD      TELAPSE   120812.94 TCPU   119789.57
 TTTTTTTTTTTTTTTTTTTTTTTTTTTTTT CP_MONMON   TELAPSE   120839.27 TCPU   119815.81
 DIIS TEST: 0.11473E-04 AT CPHF  CYCLE  12 - DIIS ACTIVE - HISTORY:    12 CYCLES
 CYCLE  12   ALPHA 1710.686720  EPSILON    4.573710  DELTA   -5.4625E-03
 TTTTTTTTTTTTTTTTTTTTTTTTTTTTTT MOQGAD      TELAPSE   121950.48 TCPU   120918.87
 TTTTTTTTTTTTTTTTTTTTTTTTTTTTTT CP_MONMON   TELAPSE   121976.82 TCPU   120945.15
 DIIS TEST: 0.69104E-05 AT CPHF  CYCLE  13 - DIIS ACTIVE - HISTORY:    13 CYCLES
 CYCLE  13   ALPHA 1710.682110  EPSILON    4.573701  DELTA   -4.6098E-03
 TTTTTTTTTTTTTTTTTTTTTTTTTTTTTT MOQGAD      TELAPSE   123086.49 TCPU   122044.94
 TTTTTTTTTTTTTTTTTTTTTTTTTTTTTT CP_MONMON   TELAPSE   123112.82 TCPU   122071.20
 DIIS TEST: 0.33584E-06 AT CPHF  CYCLE  14 - DIIS ACTIVE - HISTORY:    14 CYCLES
 CYCLE  14   ALPHA 1710.680201  EPSILON    4.573697  DELTA   -1.9086E-03
 TTTTTTTTTTTTTTTTTTTTTTTTTTTTTT MOQGAD      TELAPSE   124221.95 TCPU   123172.66
 TTTTTTTTTTTTTTTTTTTTTTTTTTTTTT CP_MONMON   TELAPSE   124248.07 TCPU   123198.72
 DIIS TEST: 0.20634E-07 AT CPHF  CYCLE  15 - DIIS ACTIVE - HISTORY:    15 CYCLES
 CYCLE  15   ALPHA 1710.679579  EPSILON    4.573695  DELTA   -6.2177E-04
 TTTTTTTTTTTTTTTTTTTTTTTTTTTTTT CP_SC       TELAPSE   124424.58 TCPU   123368.67

 *******************************************************************************

 ELECTRIC FIELD APPLIED ALONG CARTESIAN DIRECTION Z

 *******************************************************************************
 THE NUMBER OF SYMMETRY OPERATORS HAS BEEN REDUCED FROM  4 TO  1

 NEW GRID IN RECIPROCAL SPACE
 *******************************************************************************
 POINTS IN THE IBZ                  14 SHRINKING FACTORS               3  3  3
 *******************************************************************************
 *** K POINTS COORDINATES (OBLIQUE COORDINATES IN UNITS OF SHRINK FAC. )
   1-R(  0  0  0)   2-C(  1  0  0)   3-C(  0  1  2)   4-C(  2  0  1)
   5-C(  0  2  0)   6-C(  1  1  0)   7-C(  1  1  1)   8-C(  1  0  1)
   9-C(  0  1  1)  10-C(  2  1  0)  11-C(  0  0  2)  12-C(  2  1  1)
  13-C(  2  1  2)  14-C(  2  2  1)

 GCALCO - MAX INDICES DIRECT LATTICE VECTOR    14    14    15
 NO.OF VECTORS CREATED 6999 STARS  486 RMAX   216.08901 BOHR
 TTTTTTTTTTTTTTTTTTTTTTTTTTTTTT gordsh1     TELAPSE   124480.63 TCPU   123423.08

 MATRIX SIZE: P(G) 1706032, F(G)  853606, P(G) IRR  855156, F(G) IRR  855156
 MAX G-VECTOR INDEX FOR 1- AND 2-ELECTRON INTEGRALS  59

 TTTTTTTTTTTTTTTTTTTTTTTTTTTTTT INPUT       TELAPSE   124557.11 TCPU   123498.80
 TTTTTTTTTTTTTTTTTTTTTTTTTTTTTT SYMM        TELAPSE   124557.11 TCPU   123498.80

 ***** NEW REFERENCE GEOMETRY *****
 TTTTTTTTTTTTTTTTTTTTTTTTTTTTTT INT_SCREEN  TELAPSE   124557.13 TCPU   123498.82
 INFORMATION **** EXCBUF **** EXCH. BIPO BUFFER: WORDS USED =           0

 DFT PARAMETERS

     ATOM       ELECTRONS   NET CHARGE   R(ANGSTROM)
   1   6  C       6.0000      0.0000     0.77000000
  25   7  N       7.0000      0.0000     0.74000000
  45  17  CL     17.0000      0.0000     0.99000000
  61  30  ZN     30.0000      0.0000     1.37000000

 SIZE OF GRID=    2004272
 TTTTTTTTTTTTTTTTTTTTTTTTTTTTTT MAKE_GRID2  TELAPSE   124559.07 TCPU   123500.76
 BECKE WEIGHT FUNCTION
 RADSAFE =     2.00
 TOLERANCES - DENSITY:10**- 6; POTENTIAL:10**- 9; GRID WGT:10**-14

 RADIAL INTEGRATION  - INTERVALS (POINTS,UPPER LIMIT):            1( 75,  4.0*R)

 ANGULAR INTEGRATION - INTERVALS (ACCURACY LEVEL [N. POINTS] UPPER LIMIT):
  1(  4[  86]   0.2)  2(  8[ 194]   0.5)  3( 12[ 350]   0.9)  4( 16[ 974]   3.5)
  5( 12[ 350]9999.0)
 TTTTTTTTTTTTTTTTTTTTTTTTTTTTTT INT_CALC    TELAPSE   124559.17 TCPU   123500.86
 CYCLE   0   ALPHA  930.403126  EPSILON    2.943659  DELTA    9.3040E+02
 TTTTTTTTTTTTTTTTTTTTTTTTTTTTTT MOQGAD      TELAPSE   125627.86 TCPU   124566.10
 TTTTTTTTTTTTTTTTTTTTTTTTTTTTTT CP_MONMON   TELAPSE   125653.81 TCPU   124591.85
 DIIS TEST: 0.13812E+03 AT CPHF  CYCLE   1 - MIX    0 %
 CYCLE   1   ALPHA  384.957659  EPSILON    1.804196  DELTA   -5.4545E+02
 TTTTTTTTTTTTTTTTTTTTTTTTTTTTTT MOQGAD      TELAPSE   126765.05 TCPU   125694.92
 TTTTTTTTTTTTTTTTTTTTTTTTTTTTTT CP_MONMON   TELAPSE   126791.20 TCPU   125720.99
 DIIS TEST: 0.11881E+04 AT CPHF  CYCLE   2 - DIIS ACTIVE - HISTORY:     2 CYCLES
 CYCLE   2   ALPHA  644.940073  EPSILON    2.347312  DELTA    2.5998E+02
 TTTTTTTTTTTTTTTTTTTTTTTTTTTTTT MOQGAD      TELAPSE   127905.42 TCPU   126827.26
 TTTTTTTTTTTTTTTTTTTTTTTTTTTTTT CP_MONMON   TELAPSE   127931.45 TCPU   126853.24
 DIIS TEST: 0.52301E+02 AT CPHF  CYCLE   3 - DIIS ACTIVE - HISTORY:     3 CYCLES
 CYCLE   3   ALPHA  704.862030  EPSILON    2.472492  DELTA    5.9922E+01
 TTTTTTTTTTTTTTTTTTTTTTTTTTTTTT MOQGAD      TELAPSE   129047.13 TCPU   127961.70
 TTTTTTTTTTTTTTTTTTTTTTTTTTTTTT CP_MONMON   TELAPSE   129073.25 TCPU   127987.77
 DIIS TEST: 0.70330E+01 AT CPHF  CYCLE   4 - DIIS ACTIVE - HISTORY:     4 CYCLES
 CYCLE   4   ALPHA  707.007765  EPSILON    2.476975  DELTA    2.1457E+00
 TTTTTTTTTTTTTTTTTTTTTTTTTTTTTT MOQGAD      TELAPSE   130186.62 TCPU   129094.28
 TTTTTTTTTTTTTTTTTTTTTTTTTTTTTT CP_MONMON   TELAPSE   130212.55 TCPU   129120.15
 DIIS TEST: 0.32280E+00 AT CPHF  CYCLE   5 - DIIS ACTIVE - HISTORY:     5 CYCLES
 CYCLE   5   ALPHA  707.737614  EPSILON    2.478499  DELTA    7.2985E-01
 TTTTTTTTTTTTTTTTTTTTTTTTTTTTTT MOQGAD      TELAPSE   131327.12 TCPU   130226.28
 TTTTTTTTTTTTTTTTTTTTTTTTTTTTTT CP_MONMON   TELAPSE   131353.15 TCPU   130252.25
 DIIS TEST: 0.39796E-01 AT CPHF  CYCLE   6 - DIIS ACTIVE - HISTORY:     6 CYCLES
 CYCLE   6   ALPHA  708.294193  EPSILON    2.479662  DELTA    5.5658E-01
 TTTTTTTTTTTTTTTTTTTTTTTTTTTTTT MOQGAD      TELAPSE   132469.40 TCPU   131359.96
 TTTTTTTTTTTTTTTTTTTTTTTTTTTTTT CP_MONMON   TELAPSE   132495.53 TCPU   131386.02
 DIIS TEST: 0.95272E-02 AT CPHF  CYCLE   7 - DIIS ACTIVE - HISTORY:     7 CYCLES
 CYCLE   7   ALPHA  708.416618  EPSILON    2.479918  DELTA    1.2243E-01
 TTTTTTTTTTTTTTTTTTTTTTTTTTTTTT MOQGAD      TELAPSE   133609.27 TCPU   132490.61
 TTTTTTTTTTTTTTTTTTTTTTTTTTTTTT CP_MONMON   TELAPSE   133635.20 TCPU   132516.49
 DIIS TEST: 0.14919E-02 AT CPHF  CYCLE   8 - DIIS ACTIVE - HISTORY:     8 CYCLES
 CYCLE   8   ALPHA  708.415215  EPSILON    2.479915  DELTA   -1.4029E-03
 TTTTTTTTTTTTTTTTTTTTTTTTTTTTTT MOQGAD      TELAPSE   134749.23 TCPU   133621.69
 TTTTTTTTTTTTTTTTTTTTTTTTTTTTTT CP_MONMON   TELAPSE   134775.14 TCPU   133647.47
 DIIS TEST: 0.16714E-03 AT CPHF  CYCLE   9 - DIIS ACTIVE - HISTORY:     9 CYCLES
 CYCLE   9   ALPHA  708.406839  EPSILON    2.479897  DELTA   -8.3765E-03
 TTTTTTTTTTTTTTTTTTTTTTTTTTTTTT MOQGAD      TELAPSE   135896.93 TCPU   134761.68
 TTTTTTTTTTTTTTTTTTTTTTTTTTTTTT CP_MONMON   TELAPSE   135923.08 TCPU   134787.74
 DIIS TEST: 0.38073E-04 AT CPHF  CYCLE  10 - DIIS ACTIVE - HISTORY:    10 CYCLES
 CYCLE  10   ALPHA  708.401828  EPSILON    2.479887  DELTA   -5.0113E-03
 TTTTTTTTTTTTTTTTTTTTTTTTTTTTTT MOQGAD      TELAPSE   137036.05 TCPU   135893.78
 TTTTTTTTTTTTTTTTTTTTTTTTTTTTTT CP_MONMON   TELAPSE   137061.96 TCPU   135919.63
 DIIS TEST: 0.49269E-04 AT CPHF  CYCLE  11 - DIIS ACTIVE - HISTORY:    11 CYCLES
 CYCLE  11   ALPHA  708.399510  EPSILON    2.479882  DELTA   -2.3177E-03
 TTTTTTTTTTTTTTTTTTTTTTTTTTTTTT MOQGAD      TELAPSE   138179.66 TCPU   137025.18
 TTTTTTTTTTTTTTTTTTTTTTTTTTTTTT CP_MONMON   TELAPSE   138205.79 TCPU   137051.23
 DIIS TEST: 0.13431E-05 AT CPHF  CYCLE  12 - DIIS ACTIVE - HISTORY:    12 CYCLES
 CYCLE  12   ALPHA  708.398118  EPSILON    2.479879  DELTA   -1.3914E-03
 TTTTTTTTTTTTTTTTTTTTTTTTTTTTTT MOQGAD      TELAPSE   139320.38 TCPU   138157.69
 TTTTTTTTTTTTTTTTTTTTTTTTTTTTTT CP_MONMON   TELAPSE   139346.32 TCPU   138183.56
 DIIS TEST: 0.15827E-06 AT CPHF  CYCLE  13 - DIIS ACTIVE - HISTORY:    13 CYCLES
 CYCLE  13   ALPHA  708.397709  EPSILON    2.479878  DELTA   -4.0953E-04
 TTTTTTTTTTTTTTTTTTTTTTTTTTTTTT CP_SC       TELAPSE   139507.48 TCPU   138337.71

 *******************************************************************************

 POLARIZABILITY (ALPHA), DIELECTRIC (EPSILON) AND FIRST-ORDER ELECTRIC
 SUSCEPTIBILITY (CHI(1)) TENSORS (INDEPENDENT COMPONENTS)

  FR.(eV) COMP.   ALPHA(Re,Im)           EPSILON(Re,Im)                CHI(1)
  2.331   XX    1710.6790       0.0000       4.5737       0.0000       3.5737
  2.331   XY      -0.0022       0.0000      -0.0000       0.0000      -0.0000
  2.331   XZ       0.0000       0.0000       0.0000       0.0000       0.0000
  2.331   YY    1710.6796       0.0000       4.5737       0.0000       3.5737
  2.331   YZ      -0.0000       0.0000      -0.0000       0.0000      -0.0000
  2.331   ZZ     708.3977       0.0000       2.4799       0.0000       1.4799

 DIELECTRIC TENSOR

 TENSOR IN PRINCIPAL AXES SYSTEM
 AA  4.573690E+00 BB  4.573699E+00 CC  2.479878E+00

 REFRACTIVE INDICES 
 AA  1.574763E+00 BB  2.138619E+00 CC  2.138621E+00

 OPTICALLY ANISOTROPIC - UNIAXIAL CRYSTAL

 BIREFRINGENCE =  0.5639 (NEGATIVE) - OBLATE OPTICAL ELLIPSOID

 EPSILON=N**2=1+CHI(1)=1+ALPHA*4*PI/V,   4*PI/V=   0.00209 BOHR**(-3)
 ALPHA IN BOHR**3; EPSILON AND CHI(1) ARE DIMENSIONLESS.
 *******************************************************************************


  Pockels Effect beta(-omega;omega,0) with omega=   1.1653 eV


 SIZE OF GRID=    2004272
 TTTTTTTTTTTTTTTTTTTTTTTTTTTTTT MAKE_GRID2  TELAPSE   140336.02 TCPU   139158.47
 BECKE WEIGHT FUNCTION
 RADSAFE =     2.00
 TOLERANCES - DENSITY:10**- 6; POTENTIAL:10**- 9; GRID WGT:10**-14

 RADIAL INTEGRATION  - INTERVALS (POINTS,UPPER LIMIT):            1( 75,  4.0*R)

 ANGULAR INTEGRATION - INTERVALS (ACCURACY LEVEL [N. POINTS] UPPER LIMIT):
  1(  4[  86]   0.2)  2(  8[ 194]   0.5)  3( 12[ 350]   0.9)  4( 16[ 974]   3.5)
  5( 12[ 350]9999.0)

 SIZE OF GRID=    2004272
 TTTTTTTTTTTTTTTTTTTTTTTTTTTTTT MAKE_GRID2  TELAPSE   140343.58 TCPU   139161.79
 BECKE WEIGHT FUNCTION
 RADSAFE =     2.00
 TOLERANCES - DENSITY:10**- 6; POTENTIAL:10**- 9; GRID WGT:10**-14

 RADIAL INTEGRATION  - INTERVALS (POINTS,UPPER LIMIT):            1( 75,  4.0*R)

 ANGULAR INTEGRATION - INTERVALS (ACCURACY LEVEL [N. POINTS] UPPER LIMIT):
  1(  4[  86]   0.2)  2(  8[ 194]   0.5)  3( 12[ 350]   0.9)  4( 16[ 974]   3.5)
  5( 12[ 350]9999.0)
 *******************************************************************************

 DC-POCKELS AND SECOND ELECTRIC SUSCEPTIBILITY (CHI(2))
 TENSORS (INDEPENDENT COMPONENTS)

BETA                                         CHI(2)       d(MKS)       d(cgs)
 *******************************************************************************

     XXX          0.2263E-04   0.2364E-07   0.2299E-07   0.5484E-09
     XXY         -0.1848E-03  -0.1930E-06  -0.1877E-06  -0.4477E-08
     XXZ         -0.5899E+03  -0.6162E+00  -0.5992E+00  -0.1429E-01
     XYX         -0.2370E-03  -0.2475E-06  -0.2407E-06  -0.5742E-08
     XYY         -0.2186E-03  -0.2283E-06  -0.2220E-06  -0.5296E-08
     XYZ         -0.3239E+03  -0.3384E+00  -0.3290E+00  -0.7849E-02
     XZX         -0.5668E+03  -0.5920E+00  -0.5757E+00  -0.1373E-01
     XZY         -0.2687E+03  -0.2807E+00  -0.2729E+00  -0.6510E-02
     XZZ         -0.1305E-04  -0.1363E-07  -0.1326E-07  -0.3162E-09
     YXX         -0.2667E-04  -0.2786E-07  -0.2709E-07  -0.6462E-09
     YXY         -0.1978E-03  -0.2067E-06  -0.2009E-06  -0.4794E-08
     YXZ         -0.3239E+03  -0.3384E+00  -0.3290E+00  -0.7849E-02
     YYX         -0.2334E-03  -0.2437E-06  -0.2370E-06  -0.5654E-08
     YYY         -0.9053E-05  -0.9456E-08  -0.9195E-08  -0.2194E-09
     YYZ          0.5899E+03   0.6162E+00   0.5991E+00   0.1429E-01
     YZX         -0.2687E+03  -0.2807E+00  -0.2729E+00  -0.6510E-02
     YZY          0.5668E+03   0.5920E+00   0.5756E+00   0.1373E-01
     YZZ          0.2058E-04   0.2150E-07   0.2091E-07   0.4987E-09
     ZXX         -0.5668E+03  -0.5920E+00  -0.5756E+00  -0.1373E-01
     ZXY         -0.2685E+03  -0.2805E+00  -0.2727E+00  -0.6506E-02
     ZXZ         -0.1372E-04  -0.1433E-07  -0.1394E-07  -0.3325E-09
     ZYX         -0.2685E+03  -0.2805E+00  -0.2727E+00  -0.6506E-02
     ZYY          0.5667E+03   0.5920E+00   0.5756E+00   0.1373E-01
     ZYZ          0.2332E-04   0.2436E-07   0.2369E-07   0.5651E-09
     ZZX          0.2535E-04   0.2648E-07   0.2574E-07   0.6142E-09
     ZZY          0.1748E-05   0.1826E-08   0.1775E-08   0.4236E-10
     ZZZ         -0.1597E-02  -0.1668E-05  -0.1622E-05  -0.3869E-07
 *******************************************************************************
 CHI(2) = BETA*2PI/V

 BETA AND CHI(2) IN A.U.:    [BETA] = M**(-1/2) L**(7/2) T
                             [CHI(2)] = 1/F
                             (L=LENGTH, M=MASS, T=TIME, F=FIELD INTENSITY)

 ELECTRIC SUSCEPTIBILITY IN THE SECOND HARMONIC GENERATION (SHG) CONVENTION IS:
                   d(A.U.)= 1/2 CHI(2)
                   d(MKS) = d(A.U.)/0.514220632 pm/V
                   d(CGS) = d(A.U.)/(4PI*1.7152535)  10**(-7) esu

 FIELD INTENSITY: 1 A.U. = 0.514220632*10**(11) V/m = 1.7152535*10**7 esu
 BEWARE:                CHI(2)=P/(E0*F**2)   (MKS)
                        CHI(2)=P/F**2        (CGS)
 WHERE P IS THE POLARIZATION VECTOR AND F IS THE APPLIED ELECTRIC FIELD.
 CONSISTENCY IS  PRESERVED BY MULTIPLYING THE CGS VALUE TIMES THE PERMITTIVITY
 OF THE VACUUM, E0 (CONVERSION FACTORS FROM www.physics.nist.gov/constants).
 IN PARENTHESIS: BETA BEFORE SYMMETRIZATION.

  SHG Effect beta(-2omega;omega,omega) with omega=   1.1653 eV


 SIZE OF GRID=    2004272
 TTTTTTTTTTTTTTTTTTTTTTTTTTTTTT MAKE_GRID2  TELAPSE   141005.34 TCPU   139820.71
 BECKE WEIGHT FUNCTION
 RADSAFE =     2.00
 TOLERANCES - DENSITY:10**- 6; POTENTIAL:10**- 9; GRID WGT:10**-14

 RADIAL INTEGRATION  - INTERVALS (POINTS,UPPER LIMIT):            1( 75,  4.0*R)

 ANGULAR INTEGRATION - INTERVALS (ACCURACY LEVEL [N. POINTS] UPPER LIMIT):
  1(  4[  86]   0.2)  2(  8[ 194]   0.5)  3( 12[ 350]   0.9)  4( 16[ 974]   3.5)
  5( 12[ 350]9999.0)

 SIZE OF GRID=    2004272
 TTTTTTTTTTTTTTTTTTTTTTTTTTTTTT MAKE_GRID2  TELAPSE   141007.71 TCPU   139823.07
 BECKE WEIGHT FUNCTION
 RADSAFE =     2.00
 TOLERANCES - DENSITY:10**- 6; POTENTIAL:10**- 9; GRID WGT:10**-14

 RADIAL INTEGRATION  - INTERVALS (POINTS,UPPER LIMIT):            1( 75,  4.0*R)

 ANGULAR INTEGRATION - INTERVALS (ACCURACY LEVEL [N. POINTS] UPPER LIMIT):
  1(  4[  86]   0.2)  2(  8[ 194]   0.5)  3( 12[ 350]   0.9)  4( 16[ 974]   3.5)
  5( 12[ 350]9999.0)
 *******************************************************************************

 SECOND HARMONIC GENERATION (SHG)  AND SECOND ELECTRIC SUSCEPTIBILITY (CHI(2))
 TENSORS (INDEPENDENT COMPONENTS)

BETA                                         CHI(2)       d(MKS)       d(cgs)
 *******************************************************************************

     XXX          0.2057E-03   0.2149E-06   0.2089E-06   0.4984E-08
     XXY         -0.4554E-03  -0.4757E-06  -0.4626E-06  -0.1104E-07
     XXZ         -0.9328E+03  -0.9743E+00  -0.9474E+00  -0.2260E-01
     XYX         -0.4554E-03  -0.4757E-06  -0.4626E-06  -0.1104E-07
     XYY          0.1823E-04   0.1904E-07   0.1851E-07   0.4417E-09
     XYZ         -0.3425E+03  -0.3577E+00  -0.3479E+00  -0.8299E-02
     XZX         -0.9328E+03  -0.9743E+00  -0.9474E+00  -0.2260E-01
     XZY         -0.3425E+03  -0.3577E+00  -0.3479E+00  -0.8299E-02
     XZZ         -0.8533E-04  -0.8912E-07  -0.8666E-07  -0.2067E-08
     YXX          0.3391E-03   0.3542E-06   0.3444E-06   0.8216E-08
     YXY         -0.2157E-03  -0.2253E-06  -0.2191E-06  -0.5226E-08
     YXZ         -0.3425E+03  -0.3577E+00  -0.3478E+00  -0.8298E-02
     YYX         -0.2157E-03  -0.2253E-06  -0.2191E-06  -0.5226E-08
     YYY         -0.1376E-03  -0.1437E-06  -0.1397E-06  -0.3334E-08
     YYZ          0.9328E+03   0.9743E+00   0.9474E+00   0.2260E-01
     YZX         -0.3425E+03  -0.3577E+00  -0.3478E+00  -0.8298E-02
     YZY          0.9328E+03   0.9743E+00   0.9474E+00   0.2260E-01
     YZZ          0.3165E-04   0.3305E-07   0.3214E-07   0.7668E-09
     ZXX         -0.7911E+03  -0.8264E+00  -0.8035E+00  -0.1917E-01
     ZXY         -0.1895E+03  -0.1980E+00  -0.1925E+00  -0.4592E-02
     ZXZ          0.2743E-04   0.2865E-07   0.2786E-07   0.6646E-09
     ZYX         -0.1895E+03  -0.1980E+00  -0.1925E+00  -0.4592E-02
     ZYY          0.7911E+03   0.8263E+00   0.8035E+00   0.1917E-01
     ZYZ          0.4582E-05   0.4786E-08   0.4653E-08   0.1110E-09
     ZZX          0.2743E-04   0.2865E-07   0.2786E-07   0.6646E-09
     ZZY          0.4582E-05   0.4786E-08   0.4653E-08   0.1110E-09
     ZZZ         -0.3645E-02  -0.3807E-05  -0.3702E-05  -0.8832E-07
 *******************************************************************************
 CHI(2) = BETA*2PI/V

 BETA AND CHI(2) IN A.U.:    [BETA] = M**(-1/2) L**(7/2) T
                             [CHI(2)] = 1/F
                             (L=LENGTH, M=MASS, T=TIME, F=FIELD INTENSITY)

 ELECTRIC SUSCEPTIBILITY IN THE SECOND HARMONIC GENERATION (SHG) CONVENTION IS:
                   d(A.U.)= 1/2 CHI(2)
                   d(MKS) = d(A.U.)/0.514220632 pm/V
                   d(CGS) = d(A.U.)/(4PI*1.7152535)  10**(-7) esu

 FIELD INTENSITY: 1 A.U. = 0.514220632*10**(11) V/m = 1.7152535*10**7 esu
 BEWARE:                CHI(2)=P/(E0*F**2)   (MKS)
                        CHI(2)=P/F**2        (CGS)
 WHERE P IS THE POLARIZATION VECTOR AND F IS THE APPLIED ELECTRIC FIELD.
 CONSISTENCY IS  PRESERVED BY MULTIPLYING THE CGS VALUE TIMES THE PERMITTIVITY
 OF THE VACUUM, E0 (CONVERSION FACTORS FROM www.physics.nist.gov/constants).
 IN PARENTHESIS: BETA BEFORE SYMMETRIZATION.

 *******************************************************************************


 GCALCO - MAX INDICES DIRECT LATTICE VECTOR    14    14    15
 NO.OF VECTORS CREATED 6999 STARS  486 RMAX   216.08901 BOHR

 CAPPA:IS1  3;IS2  3;IS3  3; K PTS MONK NET   6; SYMMOPS:K SPACE   8;G SPACE   4

 TTTTTTTTTTTTTTTTTTTTTTTTTTTTTT END         TELAPSE   141008.10 TCPU   139823.46
 EEEEEEEEEE TERMINATION  DATE 13 12 2023 TIME 15:57:36.1
NODE    0 CPU TIME =    139823.458
NODE    1 CPU TIME =    140209.844
NODE    2 CPU TIME =    140048.425
NODE    3 CPU TIME =    140005.507
NODE    4 CPU TIME =    139985.684
NODE    5 CPU TIME =    140170.984
NODE    6 CPU TIME =    139993.213
NODE    7 CPU TIME =    139983.773
NODE    8 CPU TIME =    139973.245
NODE    9 CPU TIME =    140182.964
NODE   10 CPU TIME =    139613.012
NODE   11 CPU TIME =    139622.868
NODE   12 CPU TIME =    139569.716
NODE   13 CPU TIME =    139840.568
NODE   14 CPU TIME =    139598.678
NODE   15 CPU TIME =    139608.182
NODE   16 CPU TIME =    139528.914
NODE   17 CPU TIME =    139811.675
NODE   18 CPU TIME =    139597.340
NODE   19 CPU TIME =    139590.517
NODE   20 CPU TIME =    139564.432
NODE   21 CPU TIME =    139766.936
NODE   22 CPU TIME =    139577.696
NODE   23 CPU TIME =    139740.579
    TOTAL CPU TIME =   3355408.213
trying normal rsh (/usr/bin/rsh)
exec: No such file or directory
trying normal rsh (/usr/bin/rsh)
exec: No such file or directory
trying normal rsh (/usr/bin/rsh)
exec: No such file or directory
trying normal rsh (/usr/bin/rsh)
exec: No such file or directory
