Loading crystal17/1.0.2/intel/19.0
  Loading requirement: intel/19.0 ompi/4.0.1/intel/19.0
 PROCESS            0  OF           24  WORKING

         
 *******************************************************************************
 *                                                                             *
 *                               CRYSTAL17                                     *
 *                      public : 1.0.2 - March 1st, 2018                       *
 *                       HTTP://WWW.CRYSTAL.UNITO.IT                           *
 *                                                                             *
 *                              MAIN AUTHORS                                   *
 *                                                                             *
 *  R. DOVESI(1,11), V.R. SAUNDERS(2), C. ROETTI(1,11), R. ORLANDO(1,11),      *
 *  C.M. ZICOVICH-WILSON(1,3), F. PASCALE(4), B. CIVALLERI(1,11),              *
 *  K. DOLL(5), N.M. HARRISON(2,6), I.J. BUSH(7), Ph. D'ARCO(8),               *
 *  M. LLUNELL(9), M. CAUSA'(10), Y. NOEL(8), L. MASCHIO(1,11), A. ERBA(1,11)  *
 *  M. RE'RAT(14), S. CASASSA(1,11)                                            *
 *                                                                             *
 *        CONTRIBUTIONS TO THE CODE HAVE ALSO BEEN GIVEN BY                    *
 *                                                                             *
 *  M. FERRABONE(1,11), M. DE LA PIERRE(1,11), M. FERRERO(1,11),               *
 *  J. BAIMA(1,11), E. ALBANESE(1,11), M.F. PEINTINGER(12), R. BAST(13),       *
 *  B. KIRTMAN(15), V. LACIVITA(1,11), R. DEMICHELIS(1,16)                     *
 *  G. BRANDEBURG(17), S. SALUSTRO(1,11), G. SANSONE(1,11)                     *
 *  M.T. RUGGIERO(18)                                                          *
 *                                                                             *
 * (1) THEORETICAL CHEMISTRY GROUP - UNIVERSITA' DI TORINO - TORINO (ITALY)    *
 * (2) COMPUTATIONAL SCIENCE & ENGINEERING DEPARTMENT - STFC DARESBURY (UK)    *
 * (3) UNIVERSIDAD AUTONOMA DEL ESTADO DE MORELOS - CUERNAVACA (MEXICO)        *
 * (4) UNIVERSITE' DE LORRAINE - NANCY (FRANCE)                                *
 * (5) UNIVERSITAET STUTTGART- STUTTGART (GERMANY)                             *
 * (6) IMPERIAL COLLEGE - LONDON (UK)                                          *
 * (7) OXFORD E-RESEARCH CENTRE - OXFORD (UK)                                  *
 * (8) UPMC - SORBONNE UNIVERSITES - PARIS (FRANCE)                            *
 * (9) UNIVERSIDAD DE BARCELONA - BARCELONA (SPAIN)                            *
 *(10) UNIVERSITA' DI NAPOLI "FEDERICO II" - NAPOLI (ITALY)                    *
 *(11) NIS - NANOSTRUCTURED INTERFACES AND SURFACES - TORINO (ITALY)           *
 *(12) MPI FUER CHEMISCHE ENERGIEKONVERSION - MUELHEIM AN DER RUHR (GERMANY)   *
 *(13) UNIVERSITY OF TROMSO - TROMSO (NORWAY)                                  *
 *(14) UNIVERSITE' DE PAU ET DES PAYS DE L'ADOUR - PAU (FRANCE)                *
 *(15) UNIVERSITY OF CALIFORNIA SANTA BARBARA - SANTA BARBARA (USA)            *
 *(16) CURTIN UNIVERSITY - PERTH (AUSTRALIA)                                   *
 *(17) UNIVERSITY COLLEGE LONDON - LONDON (UK)                                 *
 *(18) CAMBRIDGE UNIVERSITY - CAMBRIDGE (UK)                                   *
 *                                                                             *
 *******************************************************************************
 EEEEEEEEEE STARTING  DATE 11 12 2023 TIME 19:10:36.3
 Z:\home\sanoj\Downloads\tmp_p\newconn.mol                                       

 CRYSTAL CALCULATION
 (INPUT ACCORDING TO THE INTERNATIONAL TABLES FOR X-RAY CRYSTALLOGRAPHY)
 CRYSTAL FAMILY                       :  TETRAGONAL  
 CRYSTAL CLASS  (GROTH - 1921)        :  TETRAGONAL DISPHENOIDAL              

 SPACE GROUP (NONCENTROSYMMETRIC)     :  I -4            

 LATTICE PARAMETERS  (ANGSTROMS AND DEGREES) - CONVENTIONAL CELL
        A           B           C        ALPHA        BETA       GAMMA
    11.42519    11.42519    12.39932    90.00000    90.00000    90.00000


 PROCESS            1  OF           24  WORKING
 PROCESS            2  OF           24  WORKING
 PROCESS            3  OF           24  WORKING
 PROCESS            4  OF           24  WORKING
 PROCESS            5  OF           24  WORKING
 PROCESS            6  OF           24  WORKING
 PROCESS            7  OF           24  WORKING
 PROCESS            8  OF           24  WORKING
 PROCESS            9  OF           24  WORKING
 PROCESS           10  OF           24  WORKING
 PROCESS           11  OF           24  WORKING
 PROCESS           12  OF           24  WORKING
 PROCESS           13  OF           24  WORKING
 PROCESS           14  OF           24  WORKING
 PROCESS           15  OF           24  WORKING
 PROCESS           16  OF           24  WORKING
 PROCESS           17  OF           24  WORKING
 PROCESS           18  OF           24  WORKING
 PROCESS           19  OF           24  WORKING
 PROCESS           20  OF           24  WORKING
 PROCESS           21  OF           24  WORKING
 PROCESS           22  OF           24  WORKING
 PROCESS           23  OF           24  WORKING
 NUMBER OF IRREDUCIBLE ATOMS IN THE CONVENTIONAL CELL:   17

 INPUT COORDINATES

 ATOM AT. N.              COORDINATES
   1   1     4.546500000000E-01  8.550100000000E-01  4.054400000000E-01
   2   6     2.685500000000E-01  8.292500000000E-01  3.792900000000E-01
   3   6     2.506300000000E-01 -4.532000000000E-02  3.720500000000E-01
   4   6     1.823200000000E-01  7.414500000000E-01  3.722300000000E-01
   5   6     3.373500000000E-01  5.973800000000E-01  3.761400000000E-01
   6   6     3.852200000000E-01  7.914000000000E-01  3.903900000000E-01
   7   6     7.821600000000E-01  3.757800000000E-01  3.725200000000E-01
   8   7     3.391800000000E-01  2.622000000000E-02  3.369300000000E-01
   9   7     2.987800000000E-01  1.391300000000E-01  3.485900000000E-01
  10   7     1.570000000000E-01  2.056000000000E-02  4.022100000000E-01
  11   7     1.908000000000E-01  1.357700000000E-01  3.865200000000E-01
  12   7     4.186900000000E-01  6.799400000000E-01  3.857700000000E-01
  13  17     3.465000000000E-02  7.719600000000E-01  3.666200000000E-01
  14  17     1.194000000000E-01  5.120900000000E-01  3.707000000000E-01
  15  17     3.771000000000E-01  4.522100000000E-01  3.722800000000E-01
  16  30     0.000000000000E+00  5.000000000000E-01  7.500000000000E-01
  17  30     0.000000000000E+00  0.000000000000E+00  5.000000000000E-01

 *******************************************************************************

 << INFORMATION >>: FROM NOW ON, ALL COORDINATES REFER TO THE PRIMITIVE CELL

 *******************************************************************************

 LATTICE PARAMETERS  (ANGSTROMS AND DEGREES) - PRIMITIVE CELL
       A          B          C        ALPHA      BETA     GAMMA        VOLUME
   10.18348   10.18348   10.18348   111.75461 111.75461 104.99505    809.273228

 COORDINATES OF THE EQUIVALENT ATOMS (FRACTIONAL UNITS)

 N. ATOM EQUIV AT. N.          X                  Y                  Z

   1   1   1    1 H     2.60450000000E-01 -1.39910000000E-01  3.09660000000E-01
   2   1   2    1 H    -4.49570000000E-01 -4.92100000000E-02 -3.09660000000E-01
   3   1   3    1 H     1.39910000000E-01  4.49570000000E-01  4.00360000000E-01
   4   1   4    1 H     4.92100000000E-02 -2.60450000000E-01 -4.00360000000E-01

   5   2   1    6 C     2.08540000000E-01 -3.52160000000E-01  9.78000000000E-02
   6   2   2    6 C    -4.49960000000E-01  1.10740000000E-01 -9.78000000000E-02
   7   2   3    6 C     3.52160000000E-01  4.49960000000E-01 -4.39300000000E-01
   8   2   4    6 C    -1.10740000000E-01 -2.08540000000E-01  4.39300000000E-01

   9   3   1    6 C     3.26730000000E-01 -3.77320000000E-01  2.05310000000E-01
  10   3   2    6 C     4.17370000000E-01  1.21420000000E-01 -2.05310000000E-01
  11   3   3    6 C     3.77320000000E-01 -4.17370000000E-01 -2.95950000000E-01
  12   3   4    6 C    -1.21420000000E-01 -3.26730000000E-01  2.95950000000E-01

  13   4   1    6 C     1.13680000000E-01 -4.45450000000E-01 -7.62300000000E-02
  14   4   2    6 C    -3.69220000000E-01  1.89910000000E-01  7.62300000000E-02
  15   4   3    6 C     4.45450000000E-01  3.69220000000E-01 -4.40870000000E-01
  16   4   4    6 C    -1.89910000000E-01 -1.13680000000E-01  4.40870000000E-01

  17   5   1    6 C    -2.64800000000E-02 -2.86510000000E-01 -6.52700000000E-02
  18   5   2    6 C    -2.21240000000E-01  3.87900000000E-02  6.52700000000E-02
  19   5   3    6 C     2.86510000000E-01  2.21240000000E-01  2.60030000000E-01
  20   5   4    6 C    -3.87900000000E-02  2.64800000000E-02 -2.60030000000E-01

  21   6   1    6 C     1.81790000000E-01 -2.24390000000E-01  1.76620000000E-01
  22   6   2    6 C    -4.01010000000E-01  5.17000000000E-03 -1.76620000000E-01
  23   6   3    6 C     2.24390000000E-01  4.01010000000E-01  4.06180000000E-01
  24   6   4    6 C    -5.17000000000E-03 -1.81790000000E-01 -4.06180000000E-01

  25   7   1    6 C    -2.51700000000E-01  1.54680000000E-01  1.57940000000E-01
  26   7   2    6 C    -3.26000000000E-03 -4.09640000000E-01 -1.57940000000E-01
  27   7   3    6 C    -1.54680000000E-01  3.26000000000E-03 -4.06380000000E-01
  28   7   4    6 C     4.09640000000E-01  2.51700000000E-01  4.06380000000E-01

  29   8   1    7 N     3.63150000000E-01 -3.23890000000E-01  3.65400000000E-01
  30   8   2    7 N     3.10710000000E-01 -2.25000000000E-03 -3.65400000000E-01
  31   8   3    7 N     3.23890000000E-01 -3.10710000000E-01 -3.12960000000E-01
  32   8   4    7 N     2.25000000000E-03 -3.63150000000E-01  3.12960000000E-01

  33   9   1    7 N     4.87720000000E-01 -3.52630000000E-01  4.37910000000E-01
  34   9   2    7 N     2.09460000000E-01  4.98100000000E-02 -4.37910000000E-01
  35   9   3    7 N     3.52630000000E-01 -2.09460000000E-01 -1.59650000000E-01
  36   9   4    7 N    -4.98100000000E-02 -4.87720000000E-01  1.59650000000E-01

  37  10   1    7 N     4.22770000000E-01 -4.40790000000E-01  1.77560000000E-01
  38  10   2    7 N     3.81650000000E-01  2.45210000000E-01 -1.77560000000E-01
  39  10   3    7 N     4.40790000000E-01 -3.81650000000E-01 -1.36440000000E-01
  40  10   4    7 N    -2.45210000000E-01 -4.22770000000E-01  1.36440000000E-01

  41  11   1    7 N    -4.77710000000E-01 -4.22680000000E-01  3.26570000000E-01
  42  11   2    7 N     2.50750000000E-01  1.95720000000E-01 -3.26570000000E-01
  43  11   3    7 N     4.22680000000E-01 -2.50750000000E-01 -5.50300000000E-02
  44  11   4    7 N    -1.95720000000E-01  4.77710000000E-01  5.50300000000E-02

  45  12   1    7 N     6.57100000000E-02 -1.95540000000E-01  9.86300000000E-02
  46  12   2    7 N    -2.94170000000E-01 -3.29200000000E-02 -9.86300000000E-02
  47  12   3    7 N     1.95540000000E-01  2.94170000000E-01  2.61250000000E-01
  48  12   4    7 N     3.29200000000E-02 -6.57100000000E-02 -2.61250000000E-01

  49  13   1   17 CL    1.38580000000E-01  4.01270000000E-01 -1.93390000000E-01
  50  13   2   17 CL   -4.05340000000E-01  3.31970000000E-01  1.93390000000E-01
  51  13   3   17 CL   -4.01270000000E-01  4.05340000000E-01 -2.62690000000E-01
  52  13   4   17 CL   -3.31970000000E-01 -1.38580000000E-01  2.62690000000E-01

  53  14   1   17 CL   -1.17210000000E-01  4.90100000000E-01 -3.68510000000E-01
  54  14   2   17 CL   -1.41390000000E-01  2.51300000000E-01  3.68510000000E-01
  55  14   3   17 CL   -4.90100000000E-01  1.41390000000E-01  3.92690000000E-01
  56  14   4   17 CL   -2.51300000000E-01  1.17210000000E-01 -3.92690000000E-01

  57  15   1   17 CL   -1.75510000000E-01 -2.50620000000E-01 -1.70690000000E-01
  58  15   2   17 CL   -7.99300000000E-02 -4.82000000000E-03  1.70690000000E-01
  59  15   3   17 CL    2.50620000000E-01  7.99300000000E-02  7.51100000000E-02
  60  15   4   17 CL    4.82000000000E-03  1.75510000000E-01 -7.51100000000E-02

  61  16   1   30 ZN    2.50000000000E-01 -2.50000000000E-01 -5.00000000000E-01

  62  17   1   30 ZN   -5.00000000000E-01 -5.00000000000E-01  0.00000000000E+00

 NUMBER OF SYMMETRY OPERATORS         :    4
 *******************************************************************************
 * GEOMETRY EDITING - INPUT COORDINATES ARE GIVEN IN ANGSTROM         
 *******************************************************************************

 GEOMETRY NOW FULLY CONSISTENT WITH THE GROUP

 GCALCO - MAX INDICES DIRECT LATTICE VECTOR    14    14    15
 NO.OF VECTORS CREATED 6999 STARS  488 RMAX   208.70846 BOHR

 GEOMETRY FOR WAVE FUNCTION - DIMENSIONALITY OF THE SYSTEM    3
 (NON PERIODIC DIRECTION: LATTICE PARAMETER FORMALLY SET TO 500)
 *******************************************************************************
 LATTICE PARAMETERS (ANGSTROMS AND DEGREES) - BOHR = 0.5291772083 ANGSTROM
 PRIMITIVE CELL - CENTRING CODE 6/0 VOLUME=   809.273228 - DENSITY  2.297 g/cm^3
         A              B              C           ALPHA      BETA       GAMMA 
    10.18348346    10.18348346    10.18348346   111.754613 111.754613 104.995048
 *******************************************************************************
 ATOMS IN THE ASYMMETRIC UNIT   17 - ATOMS IN THE UNIT CELL:   62
     ATOM                 X/A                 Y/B                 Z/C    
 *******************************************************************************
      1 T   1 H     2.604500000000E-01 -1.399100000000E-01  3.096600000000E-01
      2 F   1 H    -4.495700000000E-01 -4.921000000000E-02 -3.096600000000E-01
      3 F   1 H     1.399100000000E-01  4.495700000000E-01  4.003600000000E-01
      4 F   1 H     4.921000000000E-02 -2.604500000000E-01 -4.003600000000E-01
      5 T   6 C     2.085400000000E-01 -3.521600000000E-01  9.780000000000E-02
      6 F   6 C    -4.499600000000E-01  1.107400000000E-01 -9.780000000000E-02
      7 F   6 C     3.521600000000E-01  4.499600000000E-01 -4.393000000000E-01
      8 F   6 C    -1.107400000000E-01 -2.085400000000E-01  4.393000000000E-01
      9 T   6 C     3.267300000000E-01 -3.773200000000E-01  2.053100000000E-01
     10 F   6 C     4.173700000000E-01  1.214200000000E-01 -2.053100000000E-01
     11 F   6 C     3.773200000000E-01 -4.173700000000E-01 -2.959500000000E-01
     12 F   6 C    -1.214200000000E-01 -3.267300000000E-01  2.959500000000E-01
     13 T   6 C     1.136800000000E-01 -4.454500000000E-01 -7.623000000000E-02
     14 F   6 C    -3.692200000000E-01  1.899100000000E-01  7.623000000000E-02
     15 F   6 C     4.454500000000E-01  3.692200000000E-01 -4.408700000000E-01
     16 F   6 C    -1.899100000000E-01 -1.136800000000E-01  4.408700000000E-01
     17 T   6 C    -2.648000000000E-02 -2.865100000000E-01 -6.527000000000E-02
     18 F   6 C    -2.212400000000E-01  3.879000000000E-02  6.527000000000E-02
     19 F   6 C     2.865100000000E-01  2.212400000000E-01  2.600300000000E-01
     20 F   6 C    -3.879000000000E-02  2.648000000000E-02 -2.600300000000E-01
     21 T   6 C     1.817900000000E-01 -2.243900000000E-01  1.766200000000E-01
     22 F   6 C    -4.010100000000E-01  5.170000000000E-03 -1.766200000000E-01
     23 F   6 C     2.243900000000E-01  4.010100000000E-01  4.061800000000E-01
     24 F   6 C    -5.170000000000E-03 -1.817900000000E-01 -4.061800000000E-01
     25 T   6 C    -2.517000000000E-01  1.546800000000E-01  1.579400000000E-01
     26 F   6 C    -3.260000000000E-03 -4.096400000000E-01 -1.579400000000E-01
     27 F   6 C    -1.546800000000E-01  3.260000000000E-03 -4.063800000000E-01
     28 F   6 C     4.096400000000E-01  2.517000000000E-01  4.063800000000E-01
     29 T   7 N     3.631500000000E-01 -3.238900000000E-01  3.654000000000E-01
     30 F   7 N     3.107100000000E-01 -2.250000000000E-03 -3.654000000000E-01
     31 F   7 N     3.238900000000E-01 -3.107100000000E-01 -3.129600000000E-01
     32 F   7 N     2.250000000000E-03 -3.631500000000E-01  3.129600000000E-01
     33 T   7 N     4.877200000000E-01 -3.526300000000E-01  4.379100000000E-01
     34 F   7 N     2.094600000000E-01  4.981000000000E-02 -4.379100000000E-01
     35 F   7 N     3.526300000000E-01 -2.094600000000E-01 -1.596500000000E-01
     36 F   7 N    -4.981000000000E-02 -4.877200000000E-01  1.596500000000E-01
     37 T   7 N     4.227700000000E-01 -4.407900000000E-01  1.775600000000E-01
     38 F   7 N     3.816500000000E-01  2.452100000000E-01 -1.775600000000E-01
     39 F   7 N     4.407900000000E-01 -3.816500000000E-01 -1.364400000000E-01
     40 F   7 N    -2.452100000000E-01 -4.227700000000E-01  1.364400000000E-01
     41 T   7 N    -4.777100000000E-01 -4.226800000000E-01  3.265700000000E-01
     42 F   7 N     2.507500000000E-01  1.957200000000E-01 -3.265700000000E-01
     43 F   7 N     4.226800000000E-01 -2.507500000000E-01 -5.503000000000E-02
     44 F   7 N    -1.957200000000E-01  4.777100000000E-01  5.503000000000E-02
     45 T   7 N     6.571000000000E-02 -1.955400000000E-01  9.863000000000E-02
     46 F   7 N    -2.941700000000E-01 -3.292000000000E-02 -9.863000000000E-02
     47 F   7 N     1.955400000000E-01  2.941700000000E-01  2.612500000000E-01
     48 F   7 N     3.292000000000E-02 -6.571000000000E-02 -2.612500000000E-01
     49 T  17 CL    1.385800000000E-01  4.012700000000E-01 -1.933900000000E-01
     50 F  17 CL   -4.053400000000E-01  3.319700000000E-01  1.933900000000E-01
     51 F  17 CL   -4.012700000000E-01  4.053400000000E-01 -2.626900000000E-01
     52 F  17 CL   -3.319700000000E-01 -1.385800000000E-01  2.626900000000E-01
     53 T  17 CL   -1.172100000000E-01  4.901000000000E-01 -3.685100000000E-01
     54 F  17 CL   -1.413900000000E-01  2.513000000000E-01  3.685100000000E-01
     55 F  17 CL   -4.901000000000E-01  1.413900000000E-01  3.926900000000E-01
     56 F  17 CL   -2.513000000000E-01  1.172100000000E-01 -3.926900000000E-01
     57 T  17 CL   -1.755100000000E-01 -2.506200000000E-01 -1.706900000000E-01
     58 F  17 CL   -7.993000000000E-02 -4.820000000000E-03  1.706900000000E-01
     59 F  17 CL    2.506200000000E-01  7.993000000000E-02  7.511000000000E-02
     60 F  17 CL    4.820000000000E-03  1.755100000000E-01 -7.511000000000E-02
     61 T  30 ZN    2.500000000000E-01 -2.500000000000E-01 -5.000000000000E-01
     62 T  30 ZN   -5.000000000000E-01  5.000000000000E-01  0.000000000000E+00

 TRANSFORMATION MATRIX PRIMITIVE-CRYSTALLOGRAPHIC CELL
  0.0000  1.0000  1.0000  1.0000  0.0000  1.0000  1.0000  1.0000  0.0000

 *******************************************************************************
 CRYSTALLOGRAPHIC CELL (VOLUME=       1618.54645566)
         A              B              C           ALPHA      BETA       GAMMA 
    11.42519475    11.42519475    12.39932221    90.000000  90.000000  90.000000

 COORDINATES IN THE CRYSTALLOGRAPHIC CELL
     ATOM                 X/A                 Y/B                 Z/C    
 *******************************************************************************
      1 T   1 H    -4.535000000000E-02  3.550100000000E-01 -9.456000000000E-02
      2 F   1 H     4.535000000000E-02 -3.550100000000E-01 -9.456000000000E-02
      3 F   1 H     3.550100000000E-01  4.535000000000E-02  9.456000000000E-02
      4 F   1 H    -3.550100000000E-01 -4.535000000000E-02  9.456000000000E-02
      5 T   6 C    -2.314500000000E-01  3.292500000000E-01 -1.207100000000E-01
      6 F   6 C     2.314500000000E-01 -3.292500000000E-01 -1.207100000000E-01
      7 F   6 C     3.292500000000E-01  2.314500000000E-01  1.207100000000E-01
      8 F   6 C    -3.292500000000E-01 -2.314500000000E-01  1.207100000000E-01
      9 T   6 C     2.506300000000E-01 -4.532000000000E-02  3.720500000000E-01
     10 F   6 C    -2.506300000000E-01  4.532000000000E-02  3.720500000000E-01
     11 F   6 C    -4.532000000000E-02 -2.506300000000E-01 -3.720500000000E-01
     12 F   6 C     4.532000000000E-02  2.506300000000E-01 -3.720500000000E-01
     13 T   6 C    -3.176800000000E-01  2.414500000000E-01 -1.277700000000E-01
     14 F   6 C     3.176800000000E-01 -2.414500000000E-01 -1.277700000000E-01
     15 F   6 C     2.414500000000E-01  3.176800000000E-01  1.277700000000E-01
     16 F   6 C    -2.414500000000E-01 -3.176800000000E-01  1.277700000000E-01
     17 T   6 C    -1.626500000000E-01  9.738000000000E-02 -1.238600000000E-01
     18 F   6 C     1.626500000000E-01 -9.738000000000E-02 -1.238600000000E-01
     19 F   6 C     9.738000000000E-02  1.626500000000E-01  1.238600000000E-01
     20 F   6 C    -9.738000000000E-02 -1.626500000000E-01  1.238600000000E-01
     21 T   6 C    -1.147800000000E-01  2.914000000000E-01 -1.096100000000E-01
     22 F   6 C     1.147800000000E-01 -2.914000000000E-01 -1.096100000000E-01
     23 F   6 C     2.914000000000E-01  1.147800000000E-01  1.096100000000E-01
     24 F   6 C    -2.914000000000E-01 -1.147800000000E-01  1.096100000000E-01
     25 T   6 C     2.821600000000E-01 -1.242200000000E-01 -1.274800000000E-01
     26 F   6 C    -2.821600000000E-01  1.242200000000E-01 -1.274800000000E-01
     27 F   6 C    -1.242200000000E-01 -2.821600000000E-01  1.274800000000E-01
     28 F   6 C     1.242200000000E-01  2.821600000000E-01  1.274800000000E-01
     29 T   7 N     3.391800000000E-01  2.622000000000E-02  3.369300000000E-01
     30 F   7 N    -3.391800000000E-01 -2.622000000000E-02  3.369300000000E-01
     31 F   7 N     2.622000000000E-02 -3.391800000000E-01 -3.369300000000E-01
     32 F   7 N    -2.622000000000E-02  3.391800000000E-01 -3.369300000000E-01
     33 T   7 N    -2.012200000000E-01 -3.608700000000E-01 -1.514100000000E-01
     34 F   7 N     2.012200000000E-01  3.608700000000E-01 -1.514100000000E-01
     35 F   7 N    -3.608700000000E-01  2.012200000000E-01  1.514100000000E-01
     36 F   7 N     3.608700000000E-01 -2.012200000000E-01  1.514100000000E-01
     37 T   7 N     1.570000000000E-01  2.056000000000E-02  4.022100000000E-01
     38 F   7 N    -1.570000000000E-01 -2.056000000000E-02  4.022100000000E-01
     39 F   7 N     2.056000000000E-02 -1.570000000000E-01 -4.022100000000E-01
     40 F   7 N    -2.056000000000E-02  1.570000000000E-01 -4.022100000000E-01
     41 T   7 N     1.908000000000E-01  1.357700000000E-01  3.865200000000E-01
     42 F   7 N    -1.908000000000E-01 -1.357700000000E-01  3.865200000000E-01
     43 F   7 N     1.357700000000E-01 -1.908000000000E-01 -3.865200000000E-01
     44 F   7 N    -1.357700000000E-01  1.908000000000E-01 -3.865200000000E-01
     45 T   7 N    -8.131000000000E-02  1.799400000000E-01 -1.142300000000E-01
     46 F   7 N     8.131000000000E-02 -1.799400000000E-01 -1.142300000000E-01
     47 F   7 N     1.799400000000E-01  8.131000000000E-02  1.142300000000E-01
     48 F   7 N    -1.799400000000E-01 -8.131000000000E-02  1.142300000000E-01
     49 T  17 CL    3.465000000000E-02 -2.280400000000E-01  3.666200000000E-01
     50 F  17 CL   -3.465000000000E-02  2.280400000000E-01  3.666200000000E-01
     51 F  17 CL   -2.280400000000E-01 -3.465000000000E-02 -3.666200000000E-01
     52 F  17 CL    2.280400000000E-01  3.465000000000E-02 -3.666200000000E-01
     53 T  17 CL   -3.806000000000E-01  1.209000000000E-02 -1.293000000000E-01
     54 F  17 CL    3.806000000000E-01 -1.209000000000E-02 -1.293000000000E-01
     55 F  17 CL    1.209000000000E-02  3.806000000000E-01  1.293000000000E-01
     56 F  17 CL   -1.209000000000E-02 -3.806000000000E-01  1.293000000000E-01
     57 T  17 CL   -1.229000000000E-01 -4.779000000000E-02 -1.277200000000E-01
     58 F  17 CL    1.229000000000E-01  4.779000000000E-02 -1.277200000000E-01
     59 F  17 CL   -4.779000000000E-02  1.229000000000E-01  1.277200000000E-01
     60 F  17 CL    4.779000000000E-02 -1.229000000000E-01  1.277200000000E-01
     61 T  30 ZN    5.000000000000E-01  0.000000000000E+00  2.500000000000E-01
     62 T  30 ZN    0.000000000000E+00  0.000000000000E+00  5.000000000000E-01

 T = ATOM BELONGING TO THE ASYMMETRIC UNIT

 ****    4 SYMMOPS - TRANSLATORS IN FRACTIONAL UNITS
 **** MATRICES AND TRANSLATORS IN THE CRYSTALLOGRAPHIC REFERENCE FRAME
   V INV                    ROTATION MATRICES                   TRANSLATORS
   1   1  1.00  0.00  0.00  0.00  1.00  0.00  0.00  0.00  1.00  0.00  0.00  0.00
   2   2  0.00  1.00 -1.00  1.00 -0.00 -1.00  0.00  0.00 -1.00  0.00  0.00  0.00
   3   4 -0.00 -1.00  0.00  0.00 -1.00  1.00  1.00 -1.00  0.00  0.00  0.00  0.00
   4   3 -1.00 -0.00  1.00 -1.00  0.00 -0.00 -1.00  1.00  0.00  0.00  0.00  0.00

 DIRECT LATTICE VECTORS CARTESIAN COMPONENTS (ANGSTROM)
          X                    Y                    Z
  -0.571259737530E+01   0.571259737530E+01   0.619966110470E+01
   0.571259737530E+01  -0.571259737530E+01   0.619966110470E+01
   0.571259737530E+01   0.571259737530E+01  -0.619966110470E+01


 CARTESIAN COORDINATES - PRIMITIVE CELL
 *******************************************************************************
 *      ATOM          X(ANGSTROM)         Y(ANGSTROM)         Z(ANGSTROM)
 *******************************************************************************
    1     1 H    -5.181325819397E-01  4.056058388411E+00 -1.172479908121E+00
    2     1 H     5.181325819397E-01 -4.056058388411E+00 -1.172479908121E+00
    3     1 H     4.056058388411E+00  5.181325819397E-01  1.172479908121E+00
    4     1 H    -4.056058388411E+00 -5.181325819397E-01  1.172479908121E+00
    5     6 C    -2.644361325026E+00  3.761745371635E+00 -1.496722183897E+00
    6     6 C     2.644361325026E+00 -3.761745371635E+00 -1.496722183897E+00
    7     6 C     3.761745371635E+00  2.644361325026E+00  1.496722183897E+00
    8     6 C    -3.761745371635E+00 -2.644361325026E+00  1.496722183897E+00
    9     6 C     2.863496560343E+00 -5.177898260972E-01  4.613167828007E+00
   10     6 C    -2.863496560343E+00  5.177898260972E-01  4.613167828007E+00
   11     6 C    -5.177898260972E-01 -2.863496560343E+00 -4.613167828007E+00
   12     6 C     5.177898260972E-01  2.863496560343E+00 -4.613167828007E+00
   13     6 C    -3.629555868371E+00  2.758613272532E+00 -1.584261398695E+00
   14     6 C     3.629555868371E+00 -2.758613272532E+00 -1.584261398695E+00
   15     6 C     2.758613272532E+00  3.629555868371E+00  1.584261398695E+00
   16     6 C    -2.758613272532E+00 -3.629555868371E+00  1.584261398695E+00
   17     6 C    -1.858307926185E+00  1.112585464813E+00 -1.535780048856E+00
   18     6 C     1.858307926185E+00 -1.112585464813E+00 -1.535780048856E+00
   19     6 C     1.112585464813E+00  1.858307926185E+00  1.535780048856E+00
   20     6 C    -1.112585464813E+00 -1.858307926185E+00  1.535780048856E+00
   21     6 C    -1.311383853474E+00  3.329301750325E+00 -1.359089707372E+00
   22     6 C     1.311383853474E+00 -3.329301750325E+00 -1.359089707372E+00
   23     6 C     3.329301750325E+00  1.311383853474E+00  1.359089707372E+00
   24     6 C    -3.329301750325E+00 -1.311383853474E+00  1.359089707372E+00
   25     6 C     3.223732950829E+00 -1.419237691920E+00 -1.580665595254E+00
   26     6 C    -3.223732950829E+00  1.419237691920E+00 -1.580665595254E+00
   27     6 C    -1.419237691920E+00 -3.223732950829E+00  1.580665595254E+00
   28     6 C     1.419237691920E+00  3.223732950829E+00  1.580665595254E+00
   29     7 N     3.875197555509E+00  2.995686063607E-01  4.177703632013E+00
   30     7 N    -3.875197555509E+00 -2.995686063607E-01  4.177703632013E+00
   31     7 N     2.995686063607E-01 -3.875197555509E+00 -4.177703632013E+00
   32     7 N    -2.995686063607E-01  3.875197555509E+00 -4.177703632013E+00
   33     7 N    -2.298977687716E+00 -4.123010029649E+00 -1.877381375725E+00
   34     7 N     2.298977687716E+00  4.123010029649E+00 -1.877381375725E+00
   35     7 N    -4.123010029649E+00  2.298977687716E+00  1.877381375725E+00
   36     7 N     4.123010029649E+00 -2.298977687716E+00  1.877381375725E+00
   37     7 N     1.793755575844E+00  2.349020040723E-01  4.987131385843E+00
   38     7 N    -1.793755575844E+00 -2.349020040723E-01  4.987131385843E+00
   39     7 N     2.349020040723E-01 -1.793755575844E+00 -4.987131385843E+00
   40     7 N    -2.349020040723E-01  1.793755575844E+00 -4.987131385843E+00
   41     7 N     2.179927158414E+00  1.551198691289E+00  4.792586020377E+00
   42     7 N    -2.179927158414E+00 -1.551198691289E+00  4.792586020377E+00
   43     7 N     1.551198691289E+00 -2.179927158414E+00 -4.792586020377E+00
   44     7 N    -1.551198691289E+00  2.179927158414E+00 -4.792586020377E+00
   45     7 N    -9.289825851713E-01  2.055849543423E+00 -1.416374575980E+00
   46     7 N     9.289825851713E-01 -2.055849543423E+00 -1.416374575980E+00
   47     7 N     2.055849543423E+00  9.289825851713E-01  1.416374575980E+00
   48     7 N    -2.055849543423E+00 -9.289825851713E-01  1.416374575980E+00
   49    17 CL    3.958829981083E-01 -2.605401410927E+00  4.545839508410E+00
   50    17 CL   -3.958829981083E-01  2.605401410927E+00  4.545839508410E+00
   51    17 CL   -2.605401410927E+00 -3.958829981083E-01 -4.545839508410E+00
   52    17 CL    2.605401410927E+00  3.958829981083E-01 -4.545839508410E+00
   53    17 CL   -4.348429122078E+00  1.381306045348E-01 -1.603232361675E+00
   54    17 CL    4.348429122078E+00 -1.381306045348E-01 -1.603232361675E+00
   55    17 CL    1.381306045348E-01  4.348429122078E+00  1.603232361675E+00
   56    17 CL   -1.381306045348E-01 -4.348429122078E+00  1.603232361675E+00
   57    17 CL   -1.404156434849E+00 -5.460100571312E-01 -1.583641432585E+00
   58    17 CL    1.404156434849E+00  5.460100571312E-01 -1.583641432585E+00
   59    17 CL   -5.460100571312E-01  1.404156434849E+00  1.583641432585E+00
   60    17 CL    5.460100571312E-01 -1.404156434849E+00  1.583641432585E+00
   61    30 ZN    5.712597375300E+00  0.000000000000E+00 -9.299491657050E+00
   62    30 ZN    0.000000000000E+00  0.000000000000E+00  6.199661104700E+00

 *******************************************************************************
 STARTING BASIS SET HANDLING 
 *******************************************************************************

 Loading internal basis set: POB-DZVPP           

 Please cite in your publication:
 Peintinger, M. F., Oliveira, D. V. and Bredow, T. (2013), Generally applicable 
 solid-state Gaussian basis sets, in preparation                                
                                                                                
                    

 *******************************************************************************
 LOCAL ATOMIC FUNCTIONS BASIS SET
 *******************************************************************************
   ATOM   X(AU)   Y(AU)   Z(AU)  N. TYPE  EXPONENT  S COEF   P COEF   D/F/G COEF
 *******************************************************************************
   1 H   -0.979   7.665  -2.216
                                  1 S  
                                         2.263E+01 1.441E-02 0.000E+00 0.000E+00
                                         3.236E+00 1.072E-01 0.000E+00 0.000E+00
                                         7.304E-01 3.846E-01 0.000E+00 0.000E+00
                                  2 S  
                                         1.417E-01 1.000E+00 0.000E+00 0.000E+00
                           3-     5 P  
                                         3.944E-01 0.000E+00 1.000E+00 0.000E+00
                           6-     8 P  
                                         1.006E-01 0.000E+00 1.000E+00 0.000E+00
   2 H    0.979  -7.665  -2.216
   3 H    7.665   0.979   2.216
   4 H   -7.665  -0.979   2.216
   5 C   -4.997   7.109  -2.828
                                 33 S  
                                         1.238E+03 5.457E-03 0.000E+00 0.000E+00
                                         1.863E+02 4.064E-02 0.000E+00 0.000E+00
                                         4.225E+01 1.803E-01 0.000E+00 0.000E+00
                                         1.168E+01 4.632E-01 0.000E+00 0.000E+00
                                         3.593E+00 4.409E-01 0.000E+00 0.000E+00
                                 34 S  
                                         5.281E+00 1.000E+00 0.000E+00 0.000E+00
                                 35 S  
                                         4.447E-01 1.000E+00 0.000E+00 0.000E+00
                          36-    38 P  
                                         9.468E+00 0.000E+00 3.839E-02 0.000E+00
                                         2.010E+00 0.000E+00 2.112E-01 0.000E+00
                                         5.477E-01 0.000E+00 5.133E-01 0.000E+00
                          39-    41 P  
                                         1.604E-01 0.000E+00 1.000E+00 0.000E+00
                          42-    46 D  
                                         6.070E-01 0.000E+00 0.000E+00 1.000E+00
                          47-    51 D  
                                         2.939E-01 0.000E+00 0.000E+00 1.000E+00
   6 C    4.997  -7.109  -2.828
   7 C    7.109   4.997   2.828
   8 C   -7.109  -4.997   2.828
   9 C    5.411  -0.978   8.718
  10 C   -5.411   0.978   8.718
  11 C   -0.978  -5.411  -8.718
  12 C    0.978   5.411  -8.718
  13 C   -6.859   5.213  -2.994
  14 C    6.859  -5.213  -2.994
  15 C    5.213   6.859   2.994
  16 C   -5.213  -6.859   2.994
  17 C   -3.512   2.102  -2.902
  18 C    3.512  -2.102  -2.902
  19 C    2.102   3.512   2.902
  20 C   -2.102  -3.512   2.902
  21 C   -2.478   6.291  -2.568
  22 C    2.478  -6.291  -2.568
  23 C    6.291   2.478   2.568
  24 C   -6.291  -2.478   2.568
  25 C    6.092  -2.682  -2.987
  26 C   -6.092   2.682  -2.987
  27 C   -2.682  -6.092   2.987
  28 C    2.682   6.092   2.987
  29 N    7.323   0.566   7.895
                                489 S  
                                         1.713E+03-5.393E-03 0.000E+00 0.000E+00
                                         2.576E+02-4.022E-02 0.000E+00 0.000E+00
                                         5.846E+01-1.793E-01 0.000E+00 0.000E+00
                                         1.620E+01-4.638E-01 0.000E+00 0.000E+00
                                         5.005E+00-4.417E-01 0.000E+00 0.000E+00
                                490 S  
                                         6.217E-01 1.000E+00 0.000E+00 0.000E+00
                                491 S  
                                         2.921E-01 1.000E+00 0.000E+00 0.000E+00
                         492-   494 P  
                                         1.357E+01 0.000E+00-4.007E-02 0.000E+00
                                         2.926E+00 0.000E+00-2.181E-01 0.000E+00
                                         7.993E-01 0.000E+00-5.129E-01 0.000E+00
                         495-   497 P  
                                         2.244E-01 0.000E+00 1.000E+00 0.000E+00
                         498-   502 D  
                                         3.118E-01 0.000E+00 0.000E+00 1.000E+00
  30 N   -7.323  -0.566   7.895
  31 N    0.566  -7.323  -7.895
  32 N   -0.566   7.323  -7.895
  33 N   -4.344  -7.791  -3.548
  34 N    4.344   7.791  -3.548
  35 N   -7.791   4.344   3.548
  36 N    7.791  -4.344   3.548
  37 N    3.390   0.444   9.424
  38 N   -3.390  -0.444   9.424
  39 N    0.444  -3.390  -9.424
  40 N   -0.444   3.390  -9.424
  41 N    4.119   2.931   9.057
  42 N   -4.119  -2.931   9.057
  43 N    2.931  -4.119  -9.057
  44 N   -2.931   4.119  -9.057
  45 N   -1.756   3.885  -2.677
  46 N    1.756  -3.885  -2.677
  47 N    3.885   1.756   2.677
  48 N   -3.885  -1.756   2.677
  49 CL   0.748  -4.923   8.590
                                769 S  
                                         1.045E+04 1.971E-03 0.000E+00 0.000E+00
                                         1.572E+03 1.475E-02 0.000E+00 0.000E+00
                                         3.571E+02 6.668E-02 0.000E+00 0.000E+00
                                         1.003E+02 1.723E-01 0.000E+00 0.000E+00
                                         3.081E+01 1.588E-01 0.000E+00 0.000E+00
                                770 S  
                                         5.192E+01-1.001E-01 0.000E+00 0.000E+00
                                         5.705E+00 6.084E-01 0.000E+00 0.000E+00
                                         2.351E+00 5.435E-01 0.000E+00 0.000E+00
                                771 S  
                                         4.886E-01 1.000E+00 0.000E+00 0.000E+00
                                772 S  
                                         1.984E-01 1.000E+00 0.000E+00 0.000E+00
                         773-   775 P  
                                         3.077E+02 0.000E+00-8.780E-03 0.000E+00
                                         7.210E+01 0.000E+00-6.356E-02 0.000E+00
                                         2.253E+01 0.000E+00-2.402E-01 0.000E+00
                                         7.899E+00 0.000E+00-4.780E-01 0.000E+00
                                         2.877E+00 0.000E+00-3.852E-01 0.000E+00
                         776-   778 P  
                                         9.483E-01 0.000E+00 1.000E+00 0.000E+00
                         779-   781 P  
                                         2.521E-01 0.000E+00 1.000E+00 0.000E+00
                         782-   786 D  
                                         9.722E-01 0.000E+00 0.000E+00 1.000E+00
                         787-   791 D  
                                         2.060E-01 0.000E+00 0.000E+00 1.000E+00
  50 CL  -0.748   4.923   8.590
  51 CL  -4.923  -0.748  -8.590
  52 CL   4.923   0.748  -8.590
  53 CL  -8.217   0.261  -3.030
  54 CL   8.217  -0.261  -3.030
  55 CL   0.261   8.217   3.030
  56 CL  -0.261  -8.217   3.030
  57 CL  -2.653  -1.032  -2.993
  58 CL   2.653   1.032  -2.993
  59 CL  -1.032   2.653   2.993
  60 CL   1.032  -2.653   2.993
  61 ZN  10.795   0.000 -17.573
                               1045 S  
                                         8.200E+04 1.421E-03 0.000E+00 0.000E+00
                                         1.231E+04 1.089E-02 0.000E+00 0.000E+00
                                         2.801E+03 5.406E-02 0.000E+00 0.000E+00
                                         7.910E+02 1.885E-01 0.000E+00 0.000E+00
                                         2.576E+02 3.835E-01 0.000E+00 0.000E+00
                                         8.881E+01 2.972E-01 0.000E+00 0.000E+00
                               1046 S  
                                         1.719E+02-1.105E-01 0.000E+00 0.000E+00
                                         2.030E+01 6.461E-01 0.000E+00 0.000E+00
                                         8.346E+00 4.422E-01 0.000E+00 0.000E+00
                               1047 S  
                                         1.485E+01-2.271E-01 0.000E+00 0.000E+00
                                         2.450E+00 7.243E-01 0.000E+00 0.000E+00
                                         9.985E-01 4.484E-01 0.000E+00 0.000E+00
                               1048 S  
                                         1.493E+00 1.000E+00 0.000E+00 0.000E+00
                               1049 S  
                                         1.830E-01 1.000E+00 0.000E+00 0.000E+00
                        1050-  1052 P  
                                         1.072E+03 0.000E+00 9.277E-03 0.000E+00
                                         2.527E+02 0.000E+00 6.954E-02 0.000E+00
                                         8.010E+01 0.000E+00 2.716E-01 0.000E+00
                                         2.890E+01 0.000E+00 5.340E-01 0.000E+00
                                         1.077E+01 0.000E+00 3.450E-01 0.000E+00
                        1053-  1055 P  
                                         5.645E+00 0.000E+00 3.413E-01 0.000E+00
                                         2.168E+00 0.000E+00 5.639E-01 0.000E+00
                                         8.054E-01 0.000E+00 2.368E-01 0.000E+00
                        1056-  1058 P  
                                         2.721E-01 0.000E+00 1.000E+00 0.000E+00
                        1059-  1063 D  
                                         5.609E+01 0.000E+00 0.000E+00 2.959E-02
                                         1.575E+01 0.000E+00 0.000E+00 1.587E-01
                                         5.312E+00 0.000E+00 0.000E+00 3.798E-01
                                         1.774E+00 0.000E+00 0.000E+00 4.690E-01
                        1064-  1068 D  
                                         5.073E-01 0.000E+00 0.000E+00 1.000E+00
                        1069-  1075 F  
                                         2.814E+00 0.000E+00 0.000E+00 1.000E+00
                        1076-  1082 F  
                                         1.300E+00 0.000E+00 0.000E+00 1.000E+00
  62 ZN   0.000   0.000  11.716

 *******************************************************************************
 FINISHED BASIS SET HANDLING 
 *******************************************************************************

 INFORMATION **** SET_MPP **** PCRYSTAL CALCULATION
 INFORMATION **** READM2 **** NEW DEFAULT: FOCK/KS MATRIX MIXING SET TO 30 %
 INFORMATION **** READM2 **** NEW DEFAULT: FULL DIRECT SCF MODE
 INFORMATION **** READM2 **** NEW DEFAULT: COULOMB BIPOLAR BUFFER SET TO 32 Mb
 INFORMATION **** READM2 **** NEW DEFAULT: EXCHANGE BIPOLAR BUFFER SET TO 32 Mb

 *******************************************************************************
 NEW DEFAULT: DFT INTEGRATION GRID INCREASED TO XLGRID
 NEW DEFAULT: DIIS ACCELERATOR ACTIVE
 USE KEYWORD NODIIS TO TURN IT OFF
 *******************************************************************************

 INFORMATION **** DFTD3_INPUT **** PERFORM DISPERSION CORRECTION DFT-D3(BJ) IN THE BECKE-JOHNSON DAMPING SCHEME

 PLEASE CITE:
 (1) DFT-D3 Reference
  S. Grimme, J. Antony, S. Ehrlich, and H. Krieg, J. Chem. Phys. 132 (2010), 154104
 (2) BJ-Damping Reference
  S. Grimme, S. Ehrlich, and L. Goerigk, J. Comput. Chem. 32 (2011), 1456-1465
 (3) General DFT-D Review
  S. Grimme, A. Hansen, J. G. Brandenburg, and C. Bannwarth,
  Chem. Rev. 116 (2016), 5105-5154

 INFORMATION **** TOLINTEG **** COULOMB AND EXCHANGE SERIES TOLERANCES MODIFIED
 INFORMATION **** BIPOSIZE **** COULOMB BIPOLAR BUFFER SET TO   100000000
 INFORMATION **** MAXCYCLE **** MAX NUMBER OF SCF CYCLES SET TO          50
 *******************************************************************************
 N. OF ATOMS PER CELL        62  COULOMB OVERLAP TOL         (T1) 10**  -12
 NUMBER OF SHELLS           436  COULOMB PENETRATION TOL     (T2) 10**  -12
 NUMBER OF AO              1120  EXCHANGE OVERLAP TOL        (T3) 10**   20
 N. OF ELECTRONS PER CELL   552  EXCHANGE PSEUDO OVP (F(G))  (T4) 10**   20
 CORE ELECTRONS PER CELL    244  EXCHANGE PSEUDO OVP (P(G))  (T5) 10**   20
 N. OF SYMMETRY OPERATORS     4  POLE ORDER IN MONO ZONE                  4
 *******************************************************************************
 TYPE OF CALCULATION :  RESTRICTED CLOSED SHELL
 KOHN-SHAM HAMILTONIAN

 (EXCHANGE)[CORRELATION] FUNCTIONAL:(PERDEW-BURKE-ERNZERHOF)[PERDEW-BURKE-ERNZERHOF]


 CAPPA:IS1  3;IS2  3;IS3  3; K PTS MONK NET   6; SYMMOPS:K SPACE   8;G SPACE   4

 *******************************************************************************
 MAX NUMBER OF SCF CYCLES      50  CONVERGENCE ON DELTAP        10**-16
 WEIGHT OF F(I) IN F(I+1)      30% CONVERGENCE ON ENERGY        10**- 6
 SHRINK. FACT.(MONKH.)    3  3  3  NUMBER OF K POINTS IN THE IBZ      6
 SHRINKING FACTOR(GILAT NET)    3  NUMBER OF K POINTS(GILAT NET)      6
 *******************************************************************************
 *** K POINTS COORDINATES (OBLIQUE COORDINATES IN UNITS OF IS =  3)
   1-R(  0  0  0)   2-C(  1  0  0)   3-C(  1  1  0)   4-C(  2  1  0)
   5-C(  2  1  1)   6-C(  2  2  1)

 DIRECT LATTICE VECTORS COMPON. (A.U.)     RECIP. LATTICE VECTORS COMPON. (A.U.) 
        X            Y            Z              X            Y            Z
  -10.7952446   10.7952446   11.7156616      0.0000000    0.2910163    0.2681532
   10.7952446  -10.7952446   11.7156616      0.2910163    0.0000000    0.2681532
   10.7952446   10.7952446  -11.7156616      0.2910163    0.2910163    0.0000000

 DISK SPACE FOR EIGENVECTORS (FTN 10)    13798400 REALS

 SYMMETRY ADAPTION OF THE BLOCH FUNCTIONS ENABLED
 TTTTTTTTTTTTTTTTTTTTTTTTTTTTTT gordsh1     TELAPSE        5.65 TCPU        0.08

 MATRIX SIZE: P(G) 1808420, F(G)  904870, P(G) IRR  228638, F(G) IRR  228638
 MAX G-VECTOR INDEX FOR 1- AND 2-ELECTRON INTEGRALS  59

 TTTTTTTTTTTTTTTTTTTTTTTTTTTTTT INPUT       TELAPSE        5.79 TCPU        0.22

 NEIGHBORS OF THE NON-EQUIVALENT ATOMS

 N = NUMBER OF NEIGHBORS AT DISTANCE R
    ATOM  N     R/ANG      R/AU   NEIGHBORS (ATOM LABELS AND CELL INDICES)
   1 H    1     1.0919     2.0634   21 C    0 0 0
   1 H    1     2.0565     3.8862   45 N    0 0 0
   1 H    1     2.1709     4.1023    5 C    0 0 0
   1 H    1     2.5077     4.7388   29 N    0-1 0
   1 H    1     2.5937     4.9014   61 ZN   1 0 0
   1 H    1     2.6271     4.9645    9 C    0-1 0

   5 C    1     1.4081     2.6609   21 C    0 0 0
   5 C    1     1.4087     2.6621   13 C    0 0 0
   5 C    1     1.4504     2.7408    9 C    0-1 0
   5 C    1     2.1709     4.1023    1 H    0 0 0
   5 C    1     2.4146     4.5628   26 C    0 0 0
   5 C    1     2.4205     4.5742   45 N    0 0 0

   9 C    1     1.3604     2.5708   37 N    0 0 0
   9 C    1     1.3716     2.5919   29 N    0 0 0
   9 C    1     1.4504     2.7408    5 C    0 1 0
   9 C    1     2.1864     4.1316   41 N    0 0 0
   9 C    1     2.1973     4.1524   33 N    1 1 1
   9 C    1     2.4282     4.5887   21 C    0 1 0

  13 C    1     1.3995     2.6447   26 C    0 0 0
  13 C    1     1.4087     2.6621    5 C    0 0 0
  13 C    1     1.7242     3.2583   49 CL   0-1 0
  13 C    1     2.3980     4.5315   21 C    0 0 0
  13 C    1     2.4185     4.5703   17 C    0 0 0
  13 C    1     2.5582     4.8342    9 C    0-1 0

  17 C    1     1.3295     2.5124   45 N    0 0 0
  17 C    1     1.4002     2.6459   26 C    0 0 0
  17 C    1     1.7203     3.2509   57 CL   0 0 0
  17 C    1     2.2900     4.3275   21 C    0 0 0
  17 C    1     2.4185     4.5703   13 C    0 0 0
  17 C    1     2.6748     5.0547   53 CL   0 0 0

  21 C    1     1.0919     2.0634    1 H    0 0 0
  21 C    1     1.3309     2.5150   45 N    0 0 0
  21 C    1     1.4081     2.6609    5 C    0 0 0
  21 C    1     2.2900     4.3275   17 C    0 0 0
  21 C    1     2.3980     4.5315   13 C    0 0 0
  21 C    1     2.4282     4.5887    9 C    0-1 0

  25 C    1     1.3995     2.6447   14 C    0 0 0
  25 C    1     1.4002     2.6459   18 C    0 0 0
  25 C    1     1.7049     3.2218   54 CL   0 0 0
  25 C    1     2.3871     4.5109   46 N    0 0 0
  25 C    1     2.4146     4.5628    6 C    0 0 0
  25 C    1     2.6783     5.0612   58 CL   0 0 0

  29 N    1     1.3716     2.5919    9 C    0 0 0
  29 N    1     1.3777     2.6035   33 N    1 1 1
  29 N    1     2.1512     4.0651   61 ZN   1 1 0
  29 N    1     2.1951     4.1482   41 N    0 0 0
  29 N    1     2.2342     4.2221   37 N    0 0 0
  29 N    1     2.4477     4.6256    5 C    0 1 0

  33 N    1     1.3209     2.4961   41 N   -1-1-1
  33 N    1     1.3777     2.6035   29 N   -1-1-1
  33 N    1     2.1973     4.1524    9 C   -1-1-1
  33 N    1     2.2139     4.1836   37 N   -1-1-1
  33 N    1     2.9047     5.4892    2 H    0 0 0
  33 N    1     2.9774     5.6265   23 C   -1-1-1

  37 N    1     1.3604     2.5708    9 C    0 0 0
  37 N    1     1.3855     2.6182   41 N    0 0 0
  37 N    1     2.1778     4.1155   62 ZN   0 0 0
  37 N    1     2.2139     4.1836   33 N    1 1 1
  37 N    1     2.2342     4.2221   29 N    0 0 0
  37 N    1     2.5461     4.8114    5 C    0 1 0

  41 N    1     1.3209     2.4961   33 N    1 1 1
  41 N    1     1.3855     2.6182   37 N    0 0 0
  41 N    1     2.1864     4.1316    9 C    0 0 0
  41 N    1     2.1951     4.1482   29 N    0 0 0
  41 N    1     2.7941     5.2801   50 CL   0 0 0
  41 N    1     3.0229     5.7125   62 ZN   0 0 0

  45 N    1     1.3295     2.5124   17 C    0 0 0
  45 N    1     1.3309     2.5150   21 C    0 0 0
  45 N    1     2.0565     3.8862    1 H    0 0 0
  45 N    1     2.3871     4.5109   26 C    0 0 0
  45 N    1     2.4205     4.5742    5 C    0 0 0
  45 N    1     2.6502     5.0081   57 CL   0 0 0

  49 CL   1     1.7242     3.2583   13 C    0 1 0
  49 CL   1     2.6898     5.0830   26 C    0 1 0
  49 CL   1     2.7558     5.2078    5 C    0 1 0
  49 CL   1     2.7941     5.2801   42 N    0 0 0
  49 CL   1     2.9834     5.6378   39 N    1 1 0
  49 CL   1     3.1113     5.8794   62 ZN   0 0 0

  53 CL   1     1.7049     3.2218   26 C    0 0 0
  53 CL   1     2.6748     5.0547   17 C    0 0 0
  53 CL   1     2.7174     5.1351   13 C    0 0 0
  53 CL   1     2.7423     5.1822   54 CL   0-1-1
  53 CL   1     2.8672     5.4182    4 H    0 0 0
  53 CL   1     3.0228     5.7122   57 CL   0 0 0

  57 CL   1     1.7203     3.2509   17 C    0 0 0
  57 CL   1     2.6502     5.0081   45 N    0 0 0
  57 CL   1     2.6783     5.0612   26 C    0 0 0
  57 CL   1     2.7841     5.2612   46 N    0 0 0
  57 CL   1     3.0132     5.6940   58 CL   0 0 0
  57 CL   1     3.0228     5.7122   53 CL   0 0 0

  61 ZN   4     2.1512     4.0651   29 N   -1-1 0   30 N   -1 0 1   31 N    0 0 1
                                    32 N   -1 0 0
  61 ZN   4     2.5937     4.9014    1 H   -1 0 0    2 H    0 0 1    3 H   -1-1 0
                                     4 H   -1 0 1
  61 ZN   4     3.0507     5.7649   33 N    0 0 1   34 N   -1 0 0   35 N   -1 0 1
                                    36 N   -1-1 0
  61 ZN   4     3.2296     6.1030   21 C   -1 0 0   22 C    0 0 1   23 C   -1-1 0
                                    24 C   -1 0 1
  61 ZN   4     3.2674     6.1744    9 C   -1-1 0   10 C   -1 0 1   11 C    0 0 1
                                    12 C   -1 0 0
  61 ZN   4     3.6563     6.9094    5 C   -1 0 0    6 C    0 0 1    7 C   -1-1 0
                                     8 C   -1 0 1

  62 ZN   4     2.1778     4.1155   37 N    0 0 0   38 N    0 0 0   39 N    1 1 0
                                    40 N    1 1 0
  62 ZN   4     3.0229     5.7125   41 N    0 0 0   42 N    0 0 0   43 N    1 1 0
                                    44 N    1 1 0
  62 ZN   4     3.1113     5.8794   49 CL   0 0 0   50 CL   0 0 0   51 CL   1 1 0
                                    52 CL   1 1 0
  62 ZN   4     3.3143     6.2631    9 C    0 0 0   10 C    0 0 0   11 C    1 1 0
                                    12 C    1 1 0
  62 ZN   4     3.9319     7.4303    5 C    0 1 0    6 C    1 0 0    7 C    0 0-1
                                     8 C    1 1 1
  62 ZN   4     3.9465     7.4578   13 C    0 1 0   14 C    1 0 0   15 C    0 0-1
                                    16 C    1 1 1


 SYMMETRY ALLOWED INTERNAL DEGREE(S) OF FREEDOM:  45
 TTTTTTTTTTTTTTTTTTTTTTTTTTTTTT SYMM        TELAPSE        8.69 TCPU        3.10
 TTTTTTTTTTTTTTTTTTTTTTTTTTTTTT INT_SCREEN  TELAPSE        8.72 TCPU        3.13
 INFORMATION **** EXCBUF **** EXCH. BIPO BUFFER: WORDS USED =           0

 DFT PARAMETERS

     ATOM       ELECTRONS   NET CHARGE   R(ANGSTROM)
   1   1  H       1.0000      0.0000     1.11000000
   5   6  C       6.0000      0.0000     0.77000000
  29   7  N       7.0000      0.0000     0.74000000
  49  17  CL     17.0000      0.0000     0.99000000
  61  30  ZN     30.0000      0.0000     1.37000000

 SIZE OF GRID=     482322
 TTTTTTTTTTTTTTTTTTTTTTTTTTTTTT MAKE_GRID2  TELAPSE       14.20 TCPU        8.58
 BECKE WEIGHT FUNCTION
 RADSAFE =     2.00
 TOLERANCES - DENSITY:10**- 6; POTENTIAL:10**- 9; GRID WGT:10**-14

 RADIAL INTEGRATION  - INTERVALS (POINTS,UPPER LIMIT):            1( 75,  4.0*R)

 ANGULAR INTEGRATION - INTERVALS (ACCURACY LEVEL [N. POINTS] UPPER LIMIT):
  1(  4[  86]   0.2)  2(  8[ 194]   0.5)  3( 12[ 350]   0.9)  4( 16[ 974]   3.5)
  5( 12[ 350]9999.0)
 TTTTTTTTTTTTTTTTTTTTTTTTTTTTTT INT_CALC    TELAPSE       14.32 TCPU        8.70
 EEEEEEEEEE INT_CALC TERMINATION  DATE 11 12 2023 TIME 19:10:50.5

 *******************************************************************************
 Z:\home\sanoj\Downloads\tmp_p\newconn.mol                                       
 CRYSTAL - SCF - TYPE OF CALCULATION :  RESTRICTED CLOSED SHELL
 *******************************************************************************

 CAPPA:IS1  3;IS2  3;IS3  3; K PTS MONK NET   6; SYMMOPS:K SPACE   8;G SPACE   4

 TTTTTTTTTTTTTTTTTTTTTTTTTTTTTT SDIK        TELAPSE       14.67 TCPU        9.06

 AAAAAAAAAAAAAAAAAAAAAAAAAAAAAAAAAAAAAAAAAAAAAAAAAAAAAAAAAAAAAAAAAAAAAAAAAAAAAAA
         ATOMIC WAVEFUNCTION(S)


 NUCLEAR CHARGE  1.0  SYMMETRY SPECIES            S
 N. ELECTRONS    1.0  NUMBER OF PRIMITIVE GTOS    4
                      NUMBER OF CONTRACTED GTOS   2
                      NUMBER OF CLOSED SHELLS     0
                      OPEN SHELL OCCUPATION       1

  ZNUC SCFIT  TOTAL HF ENERGY   KINETIC ENERGY   VIRIAL THEOREM ACCURACY
   1.0   1   -4.946643675E-01  4.917913167E-01 -2.005842012E+00  9.4E-17

 NUCLEAR CHARGE  6.0  SYMMETRY SPECIES            S    P
 N. ELECTRONS    6.0  NUMBER OF PRIMITIVE GTOS    7    4
                      NUMBER OF CONTRACTED GTOS   3    2
                      NUMBER OF CLOSED SHELLS     2    0
                      OPEN SHELL OCCUPATION       0    2

  ZNUC SCFIT  TOTAL HF ENERGY   KINETIC ENERGY   VIRIAL THEOREM ACCURACY
   6.0   6   -3.750912652E+01  3.905246519E+01 -1.960480378E+00  3.7E-06

 NUCLEAR CHARGE  7.0  SYMMETRY SPECIES            S    P
 N. ELECTRONS    7.0  NUMBER OF PRIMITIVE GTOS    7    4
                      NUMBER OF CONTRACTED GTOS   3    2
                      NUMBER OF CLOSED SHELLS     2    0
                      OPEN SHELL OCCUPATION       0    3

  ZNUC SCFIT  TOTAL HF ENERGY   KINETIC ENERGY   VIRIAL THEOREM ACCURACY
   7.0   9   -5.432196661E+01  5.425066284E+01 -2.001314339E+00  1.2E-06

 NUCLEAR CHARGE 17.0  SYMMETRY SPECIES            S    P
 N. ELECTRONS   17.0  NUMBER OF PRIMITIVE GTOS   10    7
                      NUMBER OF CONTRACTED GTOS   4    3
                      NUMBER OF CLOSED SHELLS     3    1
                      OPEN SHELL OCCUPATION       0    5

  ZNUC SCFIT  TOTAL HF ENERGY   KINETIC ENERGY   VIRIAL THEOREM ACCURACY
  17.0   9   -4.593005957E+02  4.593991532E+02 -1.999785464E+00  2.3E-06

 NUCLEAR CHARGE 30.0  SYMMETRY SPECIES            S    P    D
 N. ELECTRONS   30.0  NUMBER OF PRIMITIVE GTOS   14    9    5
                      NUMBER OF CONTRACTED GTOS   5    3    2
                      NUMBER OF CLOSED SHELLS     4    2    1
                      OPEN SHELL OCCUPATION       0    0    0

  ZNUC SCFIT  TOTAL HF ENERGY   KINETIC ENERGY   VIRIAL THEOREM ACCURACY
  30.0  10   -1.777404290E+03  1.777325716E+03 -2.000044209E+00  2.5E-06

 AAAAAAAAAAAAAAAAAAAAAAAAAAAAAAAAAAAAAAAAAAAAAAAAAAAAAAAAAAAAAAAAAAAAAAAAAAAAAAA

 TOTAL ATOMIC CHARGES:
   1.0000000   1.0000000   1.0000000   1.0000000   6.0000000   6.0000000
   6.0000000   6.0000000   6.0000000   6.0000000   6.0000000   6.0000000
   6.0000000   6.0000000   6.0000000   6.0000000   6.0000000   6.0000000
   6.0000000   6.0000000   6.0000000   6.0000000   6.0000000   6.0000000
   6.0000000   6.0000000   6.0000000   6.0000000   7.0000000   7.0000000
   7.0000000   7.0000000   7.0000000   7.0000000   7.0000000   7.0000000
   7.0000000   7.0000000   7.0000000   7.0000000   7.0000000   7.0000000
   7.0000000   7.0000000   7.0000000   7.0000000   7.0000000   7.0000000
  17.0000000  17.0000000  17.0000000  17.0000000  17.0000000  17.0000000
  17.0000000  17.0000000  17.0000000  17.0000000  17.0000000  17.0000000
  30.0000000  30.0000000
 TTTTTTTTTTTTTTTTTTTTTTTTTTTTTT MOQGAD      TELAPSE       17.16 TCPU       11.50
 TTTTTTTTTTTTTTTTTTTTTTTTTTTTTT SHELLXN     TELAPSE       80.20 TCPU       72.22
 TTTTTTTTTTTTTTTTTTTTTTTTTTTTTT MONMO3      TELAPSE       81.72 TCPU       73.73
 NUMERICALLY INTEGRATED DENSITY    552.0000276544
 TTTTTTTTTTTTTTTTTTTTTTTTTTTTTT NUMDFT      TELAPSE       83.89 TCPU       75.90
 CYC   0 ETOT(AU) -1.108910182574E+04 DETOT -1.11E+04 tst  0.00E+00 PX  1.00E+00
 TTTTTTTTTTTTTTTTTTTTTTTTTTTTTT DIIS        TELAPSE       83.98 TCPU       75.99
 TTTTTTTTTTTTTTTTTTTTTTTTTTTTTT FDIK        TELAPSE      140.39 TCPU      127.88
 INSULATING STATE
 TOP OF VALENCE BANDS -    BAND    276; K    4; EIG -1.3606363E-01 AU
 TOP OF VALENCE BANDS -    BAND    276; K    1; EIG -1.3700111E-01 AU
 BOTTOM OF VIRTUAL BANDS - BAND    277; K    6; EIG -9.1985541E-02 AU
 INDIRECT ENERGY BAND GAP:   1.1994 eV
 BOTTOM OF VIRTUAL BANDS - BAND    277; K    1; EIG -9.1397355E-02 AU
 TTTTTTTTTTTTTTTTTTTTTTTTTTTTTT PDIG        TELAPSE      141.26 TCPU      128.75
 TOTAL ATOMIC CHARGES:
   1.4288308   1.4288308   1.4288308   1.4288308   6.2141897   6.2141897
   6.2141897   6.2141897   5.4915986   5.4915986   5.4915986   5.4915986
   5.4135764   5.4135764   5.4135764   5.4135764   5.1731223   5.1731223
   5.1731223   5.1731223   5.9446300   5.9446300   5.9446300   5.9446300
   5.6200348   5.6200348   5.6200348   5.6200348   7.4239686   7.4239686
   7.4239686   7.4239686   7.1969691   7.1969691   7.1969691   7.1969691
   7.4453083   7.4453083   7.4453083   7.4453083   7.1502874   7.1502874
   7.1502874   7.1502874   7.5946383   7.5946383   7.5946383   7.5946383
  17.3336905  17.3336905  17.3336905  17.3336905  17.3020863  17.3020863
  17.3020863  17.3020863  17.3229933  17.3229933  17.3229933  17.3229933
  27.7690005  28.0073025
 TTTTTTTTTTTTTTTTTTTTTTTTTTTTTT MOQGAD      TELAPSE      141.31 TCPU      128.80
 TTTTTTTTTTTTTTTTTTTTTTTTTTTTTT SHELLXN     TELAPSE      214.28 TCPU      199.33
 TTTTTTTTTTTTTTTTTTTTTTTTTTTTTT MONMO3      TELAPSE      216.54 TCPU      201.58
 NUMERICALLY INTEGRATED DENSITY    552.0000213893
 TTTTTTTTTTTTTTTTTTTTTTTTTTTTTT NUMDFT      TELAPSE      222.62 TCPU      207.64
 CYC   1 ETOT(AU) -1.108311893162E+04 DETOT  5.98E+00 tst  0.00E+00 PX  1.00E+00
 TTTTTTTTTTTTTTTTTTTTTTTTTTTTTT DIIS        TELAPSE      222.82 TCPU      207.83
 DIIS TEST: 0.95475E+01 AT SCF   CYCLE   1 - MIX   30 %
 TTTTTTTTTTTTTTTTTTTTTTTTTTTTTT FDIK        TELAPSE      242.11 TCPU      224.56
 INSULATING STATE
 TOP OF VALENCE BANDS -    BAND    276; K    6; EIG -1.4929866E-01 AU
 TOP OF VALENCE BANDS -    BAND    276; K    1; EIG -1.4942798E-01 AU
 BOTTOM OF VIRTUAL BANDS - BAND    277; K    6; EIG -1.2283053E-01 AU
 DIRECT ENERGY BAND GAP:   0.7202 eV
 BOTTOM OF VIRTUAL BANDS - BAND    277; K    1; EIG -1.2196674E-01 AU
 TTTTTTTTTTTTTTTTTTTTTTTTTTTTTT PDIG        TELAPSE      242.97 TCPU      225.41
 TOTAL ATOMIC CHARGES:
   1.4393857   1.4393857   1.4393857   1.4393857   6.1491742   6.1491742
   6.1491742   6.1491742   6.2945058   6.2945058   6.2945058   6.2945058
   6.1332690   6.1332690   6.1332690   6.1332690   6.1105759   6.1105759
   6.1105759   6.1105759   6.2054214   6.2054214   6.2054214   6.2054214
   5.9536550   5.9536550   5.9536550   5.9536550   6.9072443   6.9072443
   6.9072443   6.9072443   6.9170643   6.9170643   6.9170643   6.9170643
   6.8632842   6.8632842   6.8632842   6.8632842   6.9145893   6.9145893
   6.9145893   6.9145893   6.0725223   6.0725223   6.0725223   6.0725223
  17.1692075  17.1692075  17.1692075  17.1692075  17.0701690  17.0701690
  17.0701690  17.0701690  17.0271140  17.0271140  17.0271140  17.0271140
  29.6531306  29.4381421
 TTTTTTTTTTTTTTTTTTTTTTTTTTTTTT MOQGAD      TELAPSE      243.02 TCPU      225.46
 TTTTTTTTTTTTTTTTTTTTTTTTTTTTTT SHELLXN     TELAPSE      315.78 TCPU      295.82
 TTTTTTTTTTTTTTTTTTTTTTTTTTTTTT MONMO3      TELAPSE      317.09 TCPU      297.13
 NUMERICALLY INTEGRATED DENSITY    552.0000022749
 TTTTTTTTTTTTTTTTTTTTTTTTTTTTTT NUMDFT      TELAPSE      323.12 TCPU      303.14
 CYC   2 ETOT(AU) -1.108188524085E+04 DETOT  1.23E+00 tst  4.02E-02 PX  7.82E-01
 TTTTTTTTTTTTTTTTTTTTTTTTTTTTTT DIIS        TELAPSE      323.32 TCPU      303.34
 DIIS TEST: 0.16813E+02 AT SCF   CYCLE   2 - DIIS ACTIVE - HISTORY:     2 CYCLES
 TTTTTTTTTTTTTTTTTTTTTTTTTTTTTT FDIK        TELAPSE      340.62 TCPU      318.48
 INSULATING STATE
 TOP OF VALENCE BANDS -    BAND    276; K    4; EIG -2.3476712E-01 AU
 TOP OF VALENCE BANDS -    BAND    276; K    1; EIG -2.3635874E-01 AU
 BOTTOM OF VIRTUAL BANDS - BAND    277; K    6; EIG -1.2428401E-01 AU
 INDIRECT ENERGY BAND GAP:   3.0064 eV
 BOTTOM OF VIRTUAL BANDS - BAND    277; K    1; EIG -1.2298713E-01 AU
 TTTTTTTTTTTTTTTTTTTTTTTTTTTTTT PDIG        TELAPSE      341.50 TCPU      319.34
 TOTAL ATOMIC CHARGES:
   1.3607853   1.3607853   1.3607853   1.3607853   6.0046887   6.0046887
   6.0046887   6.0046887   5.8268838   5.8268838   5.8268838   5.8268838
   5.5160255   5.5160255   5.5160255   5.5160255   5.6874099   5.6874099
   5.6874099   5.6874099   6.1124681   6.1124681   6.1124681   6.1124681
   5.6223004   5.6223004   5.6223004   5.6223004   7.1415943   7.1415943
   7.1415943   7.1415943   7.1237846   7.1237846   7.1237846   7.1237846
   7.1189243   7.1189243   7.1189243   7.1189243   7.0544353   7.0544353
   7.0544353   7.0544353   7.3865692   7.3865692   7.3865692   7.3865692
  17.2113598  17.2113598  17.2113598  17.2113598  17.1580880  17.1580880
  17.1580880  17.1580880  17.1606869  17.1606869  17.1606869  17.1606869
  29.0582596  28.9977241
 TTTTTTTTTTTTTTTTTTTTTTTTTTTTTT MOQGAD      TELAPSE      341.54 TCPU      319.39
 TTTTTTTTTTTTTTTTTTTTTTTTTTTTTT SHELLXN     TELAPSE      413.82 TCPU      389.27
 TTTTTTTTTTTTTTTTTTTTTTTTTTTTTT MONMO3      TELAPSE      415.14 TCPU      390.57
 NUMERICALLY INTEGRATED DENSITY    552.0000136931
 TTTTTTTTTTTTTTTTTTTTTTTTTTTTTT NUMDFT      TELAPSE      421.21 TCPU      396.62
 CYC   3 ETOT(AU) -1.108456758898E+04 DETOT -2.68E+00 tst  9.06E-03 PX  5.38E-01
 TTTTTTTTTTTTTTTTTTTTTTTTTTTTTT DIIS        TELAPSE      421.42 TCPU      396.83
 DIIS TEST: 0.21582E+01 AT SCF   CYCLE   3 - DIIS ACTIVE - HISTORY:     3 CYCLES
 TTTTTTTTTTTTTTTTTTTTTTTTTTTTTT FDIK        TELAPSE      433.66 TCPU      408.95
 INSULATING STATE
 TOP OF VALENCE BANDS -    BAND    276; K    4; EIG -2.2013394E-01 AU
 TOP OF VALENCE BANDS -    BAND    276; K    1; EIG -2.2048365E-01 AU
 BOTTOM OF VIRTUAL BANDS - BAND    277; K    6; EIG -1.2540902E-01 AU
 INDIRECT ENERGY BAND GAP:   2.5776 eV
 BOTTOM OF VIRTUAL BANDS - BAND    277; K    1; EIG -1.2149254E-01 AU
 TTTTTTTTTTTTTTTTTTTTTTTTTTTTTT PDIG        TELAPSE      434.52 TCPU      409.81
 TOTAL ATOMIC CHARGES:
   1.3796274   1.3796274   1.3796274   1.3796274   6.1955056   6.1955056
   6.1955056   6.1955056   5.7896919   5.7896919   5.7896919   5.7896919
   5.7571685   5.7571685   5.7571685   5.7571685   5.4849387   5.4849387
   5.4849387   5.4849387   6.0310626   6.0310626   6.0310626   6.0310626
   5.7672648   5.7672648   5.7672648   5.7672648   7.1960194   7.1960194
   7.1960194   7.1960194   7.0732967   7.0732967   7.0732967   7.0732967
   7.2465354   7.2465354   7.2465354   7.2465354   7.0963054   7.0963054
   7.0963054   7.0963054   7.0044339   7.0044339   7.0044339   7.0044339
  17.2379124  17.2379124  17.2379124  17.2379124  17.2183958  17.2183958
  17.2183958  17.2183958  17.1662542  17.1662542  17.1662542  17.1662542
  28.6844480  28.7379005
 TTTTTTTTTTTTTTTTTTTTTTTTTTTTTT MOQGAD      TELAPSE      434.57 TCPU      409.86
 TTTTTTTTTTTTTTTTTTTTTTTTTTTTTT SHELLXN     TELAPSE      506.73 TCPU      479.72
 TTTTTTTTTTTTTTTTTTTTTTTTTTTTTT MONMO3      TELAPSE      509.56 TCPU      482.54
 NUMERICALLY INTEGRATED DENSITY    552.0000151887
 TTTTTTTTTTTTTTTTTTTTTTTTTTTTTT NUMDFT      TELAPSE      515.58 TCPU      488.55
 CYC   4 ETOT(AU) -1.108478800946E+04 DETOT -2.20E-01 tst  2.41E-03 PX  1.85E-01
 TTTTTTTTTTTTTTTTTTTTTTTTTTTTTT DIIS        TELAPSE      515.78 TCPU      488.74
 DIIS TEST: 0.73081E+00 AT SCF   CYCLE   4 - DIIS ACTIVE - HISTORY:     4 CYCLES
 TTTTTTTTTTTTTTTTTTTTTTTTTTTTTT FDIK        TELAPSE      531.49 TCPU      504.31
 INSULATING STATE
 TOP OF VALENCE BANDS -    BAND    276; K    4; EIG -2.3836081E-01 AU
 TOP OF VALENCE BANDS -    BAND    276; K    1; EIG -2.3925277E-01 AU
 BOTTOM OF VIRTUAL BANDS - BAND    277; K    6; EIG -1.2683411E-01 AU
 INDIRECT ENERGY BAND GAP:   3.0348 eV
 BOTTOM OF VIRTUAL BANDS - BAND    277; K    1; EIG -1.2366606E-01 AU
 TTTTTTTTTTTTTTTTTTTTTTTTTTTTTT PDIG        TELAPSE      532.34 TCPU      505.17
 TOTAL ATOMIC CHARGES:
   1.3759775   1.3759775   1.3759775   1.3759775   6.1324156   6.1324156
   6.1324156   6.1324156   5.8279094   5.8279094   5.8279094   5.8279094
   5.6842883   5.6842883   5.6842883   5.6842883   5.6341033   5.6341033
   5.6341033   5.6341033   6.0842059   6.0842059   6.0842059   6.0842059
   5.7486933   5.7486933   5.7486933   5.7486933   7.2195707   7.2195707
   7.2195707   7.2195707   7.1331049   7.1331049   7.1331049   7.1331049
   7.1170751   7.1170751   7.1170751   7.1170751   7.0293743   7.0293743
   7.0293743   7.0293743   7.0797810   7.0797810   7.0797810   7.0797810
  17.2204444  17.2204444  17.2204444  17.2204444  17.1726803  17.1726803
  17.1726803  17.1726803  17.1693544  17.1693544  17.1693544  17.1693544
  28.7357291  28.7483577
 TTTTTTTTTTTTTTTTTTTTTTTTTTTTTT MOQGAD      TELAPSE      532.39 TCPU      505.22
 TTTTTTTTTTTTTTTTTTTTTTTTTTTTTT SHELLXN     TELAPSE      604.82 TCPU      575.19
 TTTTTTTTTTTTTTTTTTTTTTTTTTTTTT MONMO3      TELAPSE      607.38 TCPU      577.74
 NUMERICALLY INTEGRATED DENSITY    552.0000148569
 TTTTTTTTTTTTTTTTTTTTTTTTTTTTTT NUMDFT      TELAPSE      613.42 TCPU      583.75
 CYC   5 ETOT(AU) -1.108488532510E+04 DETOT -9.73E-02 tst  5.13E-04 PX  7.92E-02
 TTTTTTTTTTTTTTTTTTTTTTTTTTTTTT DIIS        TELAPSE      613.62 TCPU      583.95
 DIIS TEST: 0.14358E+00 AT SCF   CYCLE   5 - DIIS ACTIVE - HISTORY:     5 CYCLES
 TTTTTTTTTTTTTTTTTTTTTTTTTTTTTT FDIK        TELAPSE      629.16 TCPU      597.32
 INSULATING STATE
 TOP OF VALENCE BANDS -    BAND    276; K    4; EIG -2.3603460E-01 AU
 TOP OF VALENCE BANDS -    BAND    276; K    1; EIG -2.3669994E-01 AU
 BOTTOM OF VIRTUAL BANDS - BAND    277; K    6; EIG -1.2601572E-01 AU
 INDIRECT ENERGY BAND GAP:   2.9938 eV
 BOTTOM OF VIRTUAL BANDS - BAND    277; K    1; EIG -1.2278251E-01 AU
 TTTTTTTTTTTTTTTTTTTTTTTTTTTTTT PDIG        TELAPSE      630.02 TCPU      598.18
 TOTAL ATOMIC CHARGES:
   1.3748155   1.3748155   1.3748155   1.3748155   6.1368873   6.1368873
   6.1368873   6.1368873   5.8262495   5.8262495   5.8262495   5.8262495
   5.6857611   5.6857611   5.6857611   5.6857611   5.5934876   5.5934876
   5.5934876   5.5934876   6.0628756   6.0628756   6.0628756   6.0628756
   5.7179608   5.7179608   5.7179608   5.7179608   7.1466230   7.1466230
   7.1466230   7.1466230   7.0631240   7.0631240   7.0631240   7.0631240
   7.2056671   7.2056671   7.2056671   7.2056671   7.0944350   7.0944350
   7.0944350   7.0944350   7.1091324   7.1091324   7.1091324   7.1091324
  17.2392094  17.2392094  17.2392094  17.2392094  17.1875901  17.1875901
  17.1875901  17.1875901  17.1690378  17.1690378  17.1690378  17.1690378
  28.7649443  28.7836299
 TTTTTTTTTTTTTTTTTTTTTTTTTTTTTT MOQGAD      TELAPSE      630.07 TCPU      598.23
 TTTTTTTTTTTTTTTTTTTTTTTTTTTTTT SHELLXN     TELAPSE      700.24 TCPU      668.15
 TTTTTTTTTTTTTTTTTTTTTTTTTTTTTT MONMO3      TELAPSE      703.17 TCPU      671.07
 NUMERICALLY INTEGRATED DENSITY    552.0000140471
 TTTTTTTTTTTTTTTTTTTTTTTTTTTTTT NUMDFT      TELAPSE      709.13 TCPU      677.02
 CYC   6 ETOT(AU) -1.108490128029E+04 DETOT -1.60E-02 tst  1.17E-04 PX  3.10E-02
 TTTTTTTTTTTTTTTTTTTTTTTTTTTTTT DIIS        TELAPSE      709.34 TCPU      677.22
 DIIS TEST: 0.49245E-01 AT SCF   CYCLE   6 - DIIS ACTIVE - HISTORY:     6 CYCLES
 TTTTTTTTTTTTTTTTTTTTTTTTTTTTTT FDIK        TELAPSE      723.36 TCPU      691.12
 INSULATING STATE
 TOP OF VALENCE BANDS -    BAND    276; K    4; EIG -2.3389709E-01 AU
 TOP OF VALENCE BANDS -    BAND    276; K    1; EIG -2.3466881E-01 AU
 BOTTOM OF VIRTUAL BANDS - BAND    277; K    6; EIG -1.2544064E-01 AU
 INDIRECT ENERGY BAND GAP:   2.9513 eV
 BOTTOM OF VIRTUAL BANDS - BAND    277; K    1; EIG -1.2199038E-01 AU
 TTTTTTTTTTTTTTTTTTTTTTTTTTTTTT PDIG        TELAPSE      724.23 TCPU      691.99
 TOTAL ATOMIC CHARGES:
   1.3770586   1.3770586   1.3770586   1.3770586   6.1329860   6.1329860
   6.1329860   6.1329860   5.8277898   5.8277898   5.8277898   5.8277898
   5.6929877   5.6929877   5.6929877   5.6929877   5.5753247   5.5753247
   5.5753247   5.5753247   6.0705117   6.0705117   6.0705117   6.0705117
   5.7239344   5.7239344   5.7239344   5.7239344   7.1931130   7.1931130
   7.1931130   7.1931130   7.1080474   7.1080474   7.1080474   7.1080474
   7.1578555   7.1578555   7.1578555   7.1578555   7.0573814   7.0573814
   7.0573814   7.0573814   7.1065449   7.1065449   7.1065449   7.1065449
  17.2289444  17.2289444  17.2289444  17.2289444  17.1933192  17.1933192
  17.1933192  17.1933192  17.1617736  17.1617736  17.1617736  17.1617736
  28.7756634  28.7940469
 TTTTTTTTTTTTTTTTTTTTTTTTTTTTTT MOQGAD      TELAPSE      724.28 TCPU      692.04
 TTTTTTTTTTTTTTTTTTTTTTTTTTTTTT SHELLXN     TELAPSE      796.55 TCPU      761.88
 TTTTTTTTTTTTTTTTTTTTTTTTTTTTTT MONMO3      TELAPSE      799.28 TCPU      764.60
 NUMERICALLY INTEGRATED DENSITY    552.0000143599
 TTTTTTTTTTTTTTTTTTTTTTTTTTTTTT NUMDFT      TELAPSE      805.32 TCPU      770.62
 CYC   7 ETOT(AU) -1.108490666902E+04 DETOT -5.39E-03 tst  3.44E-05 PX  1.60E-02
 TTTTTTTTTTTTTTTTTTTTTTTTTTTTTT DIIS        TELAPSE      805.54 TCPU      770.83
 DIIS TEST: 0.14478E-01 AT SCF   CYCLE   7 - DIIS ACTIVE - HISTORY:     7 CYCLES
 TTTTTTTTTTTTTTTTTTTTTTTTTTTTTT FDIK        TELAPSE      821.23 TCPU      785.02
 INSULATING STATE
 TOP OF VALENCE BANDS -    BAND    276; K    4; EIG -2.3512888E-01 AU
 TOP OF VALENCE BANDS -    BAND    276; K    1; EIG -2.3589056E-01 AU
 BOTTOM OF VIRTUAL BANDS - BAND    277; K    6; EIG -1.2594203E-01 AU
 INDIRECT ENERGY BAND GAP:   2.9711 eV
 BOTTOM OF VIRTUAL BANDS - BAND    277; K    1; EIG -1.2270132E-01 AU
 TTTTTTTTTTTTTTTTTTTTTTTTTTTTTT PDIG        TELAPSE      822.10 TCPU      785.89
 TOTAL ATOMIC CHARGES:
   1.3751883   1.3751883   1.3751883   1.3751883   6.1256043   6.1256043
   6.1256043   6.1256043   5.8284757   5.8284757   5.8284757   5.8284757
   5.6883959   5.6883959   5.6883959   5.6883959   5.6040648   5.6040648
   5.6040648   5.6040648   6.0663367   6.0663367   6.0663367   6.0663367
   5.7330896   5.7330896   5.7330896   5.7330896   7.1763633   7.1763633
   7.1763633   7.1763633   7.0957099   7.0957099   7.0957099   7.0957099
   7.1681852   7.1681852   7.1681852   7.1681852   7.0698964   7.0698964
   7.0698964   7.0698964   7.1013050   7.1013050   7.1013050   7.1013050
  17.2290359  17.2290359  17.2290359  17.2290359  17.1847599  17.1847599
  17.1847599  17.1847599  17.1624074  17.1624074  17.1624074  17.1624074
  28.7730677  28.7916598
 TTTTTTTTTTTTTTTTTTTTTTTTTTTTTT MOQGAD      TELAPSE      822.15 TCPU      785.93
 TTTTTTTTTTTTTTTTTTTTTTTTTTTTTT SHELLXN     TELAPSE      894.51 TCPU      855.85
 TTTTTTTTTTTTTTTTTTTTTTTTTTTTTT MONMO3      TELAPSE      897.24 TCPU      858.57
 NUMERICALLY INTEGRATED DENSITY    552.0000141477
 TTTTTTTTTTTTTTTTTTTTTTTTTTTTTT NUMDFT      TELAPSE      903.28 TCPU      864.59
 CYC   8 ETOT(AU) -1.108490881824E+04 DETOT -2.15E-03 tst  1.14E-05 PX  9.56E-03
 TTTTTTTTTTTTTTTTTTTTTTTTTTTTTT DIIS        TELAPSE      905.04 TCPU      866.34
 DIIS TEST: 0.14570E-02 AT SCF   CYCLE   8 - DIIS ACTIVE - HISTORY:     8 CYCLES
 TTTTTTTTTTTTTTTTTTTTTTTTTTTTTT FDIK        TELAPSE      921.14 TCPU      880.30
 INSULATING STATE
 TOP OF VALENCE BANDS -    BAND    276; K    4; EIG -2.3526059E-01 AU
 TOP OF VALENCE BANDS -    BAND    276; K    1; EIG -2.3600113E-01 AU
 BOTTOM OF VIRTUAL BANDS - BAND    277; K    6; EIG -1.2612585E-01 AU
 INDIRECT ENERGY BAND GAP:   2.9697 eV
 BOTTOM OF VIRTUAL BANDS - BAND    277; K    1; EIG -1.2279667E-01 AU
 TTTTTTTTTTTTTTTTTTTTTTTTTTTTTT PDIG        TELAPSE      922.00 TCPU      881.15
 TOTAL ATOMIC CHARGES:
   1.3743488   1.3743488   1.3743488   1.3743488   6.1333947   6.1333947
   6.1333947   6.1333947   5.8282913   5.8282913   5.8282913   5.8282913
   5.6864430   5.6864430   5.6864430   5.6864430   5.5975806   5.5975806
   5.5975806   5.5975806   6.0729372   6.0729372   6.0729372   6.0729372
   5.7240912   5.7240912   5.7240912   5.7240912   7.1801562   7.1801562
   7.1801562   7.1801562   7.0921736   7.0921736   7.0921736   7.0921736
   7.1703836   7.1703836   7.1703836   7.1703836   7.0647030   7.0647030
   7.0647030   7.0647030   7.1014486   7.1014486   7.1014486   7.1014486
  17.2310215  17.2310215  17.2310215  17.2310215  17.1856506  17.1856506
  17.1856506  17.1856506  17.1652628  17.1652628  17.1652628  17.1652628
  28.7766496  28.7918029
 TTTTTTTTTTTTTTTTTTTTTTTTTTTTTT MOQGAD      TELAPSE      922.04 TCPU      881.20
 TTTTTTTTTTTTTTTTTTTTTTTTTTTTTT SHELLXN     TELAPSE      994.20 TCPU      950.98
 TTTTTTTTTTTTTTTTTTTTTTTTTTTTTT MONMO3      TELAPSE      997.00 TCPU      953.76
 NUMERICALLY INTEGRATED DENSITY    552.0000140961
 TTTTTTTTTTTTTTTTTTTTTTTTTTTTTT NUMDFT      TELAPSE     1002.99 TCPU      959.73
 CYC   9 ETOT(AU) -1.108490895214E+04 DETOT -1.34E-04 tst  1.06E-06 PX  3.04E-03
 TTTTTTTTTTTTTTTTTTTTTTTTTTTTTT DIIS        TELAPSE     1003.20 TCPU      959.94
 DIIS TEST: 0.54399E-03 AT SCF   CYCLE   9 - DIIS ACTIVE - HISTORY:     9 CYCLES
 TTTTTTTTTTTTTTTTTTTTTTTTTTTTTT FDIK        TELAPSE     1016.96 TCPU      973.56
 INSULATING STATE
 TOP OF VALENCE BANDS -    BAND    276; K    4; EIG -2.3532230E-01 AU
 TOP OF VALENCE BANDS -    BAND    276; K    1; EIG -2.3607225E-01 AU
 BOTTOM OF VIRTUAL BANDS - BAND    277; K    6; EIG -1.2597658E-01 AU
 INDIRECT ENERGY BAND GAP:   2.9754 eV
 BOTTOM OF VIRTUAL BANDS - BAND    277; K    1; EIG -1.2267909E-01 AU
 TTTTTTTTTTTTTTTTTTTTTTTTTTTTTT PDIG        TELAPSE     1017.82 TCPU      974.42
 TOTAL ATOMIC CHARGES:
   1.3746614   1.3746614   1.3746614   1.3746614   6.1301640   6.1301640
   6.1301640   6.1301640   5.8263710   5.8263710   5.8263710   5.8263710
   5.6877854   5.6877854   5.6877854   5.6877854   5.5966754   5.5966754
   5.5966754   5.5966754   6.0684730   6.0684730   6.0684730   6.0684730
   5.7281584   5.7281584   5.7281584   5.7281584   7.1779781   7.1779781
   7.1779781   7.1779781   7.0960571   7.0960571   7.0960571   7.0960571
   7.1677878   7.1677878   7.1677878   7.1677878   7.0673839   7.0673839
   7.0673839   7.0673839   7.1035183   7.1035183   7.1035183   7.1035183
  17.2312980  17.2312980  17.2312980  17.2312980  17.1867194  17.1867194
  17.1867194  17.1867194  17.1645931  17.1645931  17.1645931  17.1645931
  28.7767223  28.7927798
 TTTTTTTTTTTTTTTTTTTTTTTTTTTTTT MOQGAD      TELAPSE     1017.87 TCPU      974.47
 TTTTTTTTTTTTTTTTTTTTTTTTTTTTTT SHELLXN     TELAPSE     1090.19 TCPU     1044.51
 TTTTTTTTTTTTTTTTTTTTTTTTTTTTTT MONMO3      TELAPSE     1093.31 TCPU     1047.62
 NUMERICALLY INTEGRATED DENSITY    552.0000142397
 TTTTTTTTTTTTTTTTTTTTTTTTTTTTTT NUMDFT      TELAPSE     1099.34 TCPU     1053.61
 CYC  10 ETOT(AU) -1.108490901808E+04 DETOT -6.59E-05 tst  3.21E-07 PX  1.93E-03
 TTTTTTTTTTTTTTTTTTTTTTTTTTTTTT DIIS        TELAPSE     1099.56 TCPU     1053.83
 DIIS TEST: 0.11921E-03 AT SCF   CYCLE  10 - DIIS ACTIVE - HISTORY:    10 CYCLES
 TTTTTTTTTTTTTTTTTTTTTTTTTTTTTT FDIK        TELAPSE     1113.62 TCPU     1067.78
 INSULATING STATE
 TOP OF VALENCE BANDS -    BAND    276; K    4; EIG -2.3526044E-01 AU
 TOP OF VALENCE BANDS -    BAND    276; K    1; EIG -2.3601287E-01 AU
 BOTTOM OF VIRTUAL BANDS - BAND    277; K    6; EIG -1.2609460E-01 AU
 INDIRECT ENERGY BAND GAP:   2.9706 eV
 BOTTOM OF VIRTUAL BANDS - BAND    277; K    1; EIG -1.2279511E-01 AU
 TTTTTTTTTTTTTTTTTTTTTTTTTTTTTT PDIG        TELAPSE     1114.48 TCPU     1068.64
 TOTAL ATOMIC CHARGES:
   1.3746725   1.3746725   1.3746725   1.3746725   6.1298419   6.1298419
   6.1298419   6.1298419   5.8281995   5.8281995   5.8281995   5.8281995
   5.6876077   5.6876077   5.6876077   5.6876077   5.5982682   5.5982682
   5.5982682   5.5982682   6.0695004   6.0695004   6.0695004   6.0695004
   5.7276367   5.7276367   5.7276367   5.7276367   7.1794277   7.1794277
   7.1794277   7.1794277   7.0943006   7.0943006   7.0943006   7.0943006
   7.1692985   7.1692985   7.1692985   7.1692985   7.0664878   7.0664878
   7.0664878   7.0664878   7.1027438   7.1027438   7.1027438   7.1027438
  17.2304952  17.2304952  17.2304952  17.2304952  17.1859978  17.1859978
  17.1859978  17.1859978  17.1638273  17.1638273  17.1638273  17.1638273
  28.7750969  28.7916802
 TTTTTTTTTTTTTTTTTTTTTTTTTTTTTT MOQGAD      TELAPSE     1114.53 TCPU     1068.69
 TTTTTTTTTTTTTTTTTTTTTTTTTTTTTT SHELLXN     TELAPSE     1187.69 TCPU     1138.76
 TTTTTTTTTTTTTTTTTTTTTTTTTTTTTT MONMO3      TELAPSE     1190.10 TCPU     1141.16
 NUMERICALLY INTEGRATED DENSITY    552.0000141589
 TTTTTTTTTTTTTTTTTTTTTTTTTTTTTT NUMDFT      TELAPSE     1196.12 TCPU     1147.16
 CYC  11 ETOT(AU) -1.108490903245E+04 DETOT -1.44E-05 tst  4.18E-08 PX  9.92E-04
 TTTTTTTTTTTTTTTTTTTTTTTTTTTTTT DIIS        TELAPSE     1196.36 TCPU     1147.40
 DIIS TEST: 0.23043E-04 AT SCF   CYCLE  11 - DIIS ACTIVE - HISTORY:    11 CYCLES
 TTTTTTTTTTTTTTTTTTTTTTTTTTTTTT FDIK        TELAPSE     1209.92 TCPU     1160.82
 INSULATING STATE
 TOP OF VALENCE BANDS -    BAND    276; K    4; EIG -2.3526283E-01 AU
 TOP OF VALENCE BANDS -    BAND    276; K    1; EIG -2.3601155E-01 AU
 BOTTOM OF VIRTUAL BANDS - BAND    277; K    6; EIG -1.2601865E-01 AU
 INDIRECT ENERGY BAND GAP:   2.9727 eV
 BOTTOM OF VIRTUAL BANDS - BAND    277; K    1; EIG -1.2271573E-01 AU
 TTTTTTTTTTTTTTTTTTTTTTTTTTTTTT PDIG        TELAPSE     1210.79 TCPU     1161.68
 TOTAL ATOMIC CHARGES:
   1.3745953   1.3745953   1.3745953   1.3745953   6.1305566   6.1305566
   6.1305566   6.1305566   5.8277234   5.8277234   5.8277234   5.8277234
   5.6876216   5.6876216   5.6876216   5.6876216   5.5976444   5.5976444
   5.5976444   5.5976444   6.0700979   6.0700979   6.0700979   6.0700979
   5.7269943   5.7269943   5.7269943   5.7269943   7.1778447   7.1778447
   7.1778447   7.1778447   7.0953293   7.0953293   7.0953293   7.0953293
   7.1681406   7.1681406   7.1681406   7.1681406   7.0673423   7.0673423
   7.0673423   7.0673423   7.1025154   7.1025154   7.1025154   7.1025154
  17.2307100  17.2307100  17.2307100  17.2307100  17.1864130  17.1864130
  17.1864130  17.1864130  17.1644143  17.1644143  17.1644143  17.1644143
  28.7760885  28.7921401
 TTTTTTTTTTTTTTTTTTTTTTTTTTTTTT MOQGAD      TELAPSE     1210.84 TCPU     1161.73
 TTTTTTTTTTTTTTTTTTTTTTTTTTTTTT SHELLXN     TELAPSE     1283.39 TCPU     1231.78
 TTTTTTTTTTTTTTTTTTTTTTTTTTTTTT MONMO3      TELAPSE     1286.29 TCPU     1234.66
 NUMERICALLY INTEGRATED DENSITY    552.0000141849
 TTTTTTTTTTTTTTTTTTTTTTTTTTTTTT NUMDFT      TELAPSE     1292.28 TCPU     1240.64
 CYC  12 ETOT(AU) -1.108490903386E+04 DETOT -1.41E-06 tst  2.41E-08 PX  4.48E-04
 TTTTTTTTTTTTTTTTTTTTTTTTTTTTTT DIIS        TELAPSE     1292.50 TCPU     1240.86
 DIIS TEST: 0.13560E-04 AT SCF   CYCLE  12 - DIIS ACTIVE - HISTORY:    12 CYCLES
 TTTTTTTTTTTTTTTTTTTTTTTTTTTTTT FDIK        TELAPSE     1308.99 TCPU     1255.22
 INSULATING STATE
 TOP OF VALENCE BANDS -    BAND    276; K    4; EIG -2.3527562E-01 AU
 TOP OF VALENCE BANDS -    BAND    276; K    1; EIG -2.3602558E-01 AU
 BOTTOM OF VIRTUAL BANDS - BAND    277; K    6; EIG -1.2603500E-01 AU
 INDIRECT ENERGY BAND GAP:   2.9726 eV
 BOTTOM OF VIRTUAL BANDS - BAND    277; K    1; EIG -1.2273458E-01 AU
 TTTTTTTTTTTTTTTTTTTTTTTTTTTTTT PDIG        TELAPSE     1309.86 TCPU     1256.08
 TOTAL ATOMIC CHARGES:
   1.3746550   1.3746550   1.3746550   1.3746550   6.1304538   6.1304538
   6.1304538   6.1304538   5.8273507   5.8273507   5.8273507   5.8273507
   5.6875096   5.6875096   5.6875096   5.6875096   5.5976162   5.5976162
   5.5976162   5.5976162   6.0694271   6.0694271   6.0694271   6.0694271
   5.7274862   5.7274862   5.7274862   5.7274862   7.1790481   7.1790481
   7.1790481   7.1790481   7.0946621   7.0946621   7.0946621   7.0946621
   7.1689387   7.1689387   7.1689387   7.1689387   7.0665519   7.0665519
   7.0665519   7.0665519   7.1028491   7.1028491   7.1028491   7.1028491
[...]
 DIIS TEST: 0.79351E-03 AT CPHF  CYCLE   9 - DIIS ACTIVE - HISTORY:     9 CYCLES
 CYCLE   9   ALPHA 1613.540764  EPSILON    4.712770  DELTA    1.1680E-02
 TTTTTTTTTTTTTTTTTTTTTTTTTTTTTT MOQGAD      TELAPSE   146143.64 TCPU   145170.99
 TTTTTTTTTTTTTTTTTTTTTTTTTTTTTT CP_MONMON   TELAPSE   146172.53 TCPU   145199.81
 DIIS TEST: 0.17486E-03 AT CPHF  CYCLE  10 - DIIS ACTIVE - HISTORY:    10 CYCLES
 CYCLE  10   ALPHA 1613.531707  EPSILON    4.712749  DELTA   -9.0578E-03
 TTTTTTTTTTTTTTTTTTTTTTTTTTTTTT MOQGAD      TELAPSE   147532.10 TCPU   146546.99
 TTTTTTTTTTTTTTTTTTTTTTTTTTTTTT CP_MONMON   TELAPSE   147561.21 TCPU   146576.01
 DIIS TEST: 0.29918E-04 AT CPHF  CYCLE  11 - DIIS ACTIVE - HISTORY:    11 CYCLES
 CYCLE  11   ALPHA 1613.502284  EPSILON    4.712681  DELTA   -2.9422E-02
 TTTTTTTTTTTTTTTTTTTTTTTTTTTTTT MOQGAD      TELAPSE   148917.70 TCPU   147924.93
 TTTTTTTTTTTTTTTTTTTTTTTTTTTTTT CP_MONMON   TELAPSE   148946.88 TCPU   147953.99
 DIIS TEST: 0.35940E-05 AT CPHF  CYCLE  12 - DIIS ACTIVE - HISTORY:    12 CYCLES
 CYCLE  12   ALPHA 1613.492301  EPSILON    4.712658  DELTA   -9.9836E-03
 TTTTTTTTTTTTTTTTTTTTTTTTTTTTTT MOQGAD      TELAPSE   150308.80 TCPU   149306.12
 TTTTTTTTTTTTTTTTTTTTTTTTTTTTTT CP_MONMON   TELAPSE   150337.94 TCPU   149335.19
 DIIS TEST: 0.18742E-05 AT CPHF  CYCLE  13 - DIIS ACTIVE - HISTORY:    13 CYCLES
 CYCLE  13   ALPHA 1613.490659  EPSILON    4.712655  DELTA   -1.6420E-03
 TTTTTTTTTTTTTTTTTTTTTTTTTTTTTT MOQGAD      TELAPSE   151699.95 TCPU   150682.03
 TTTTTTTTTTTTTTTTTTTTTTTTTTTTTT CP_MONMON   TELAPSE   151729.05 TCPU   150711.05
 DIIS TEST: 0.10306E-05 AT CPHF  CYCLE  14 - DIIS ACTIVE - HISTORY:    14 CYCLES
 CYCLE  14   ALPHA 1613.489166  EPSILON    4.712651  DELTA   -1.4925E-03
 TTTTTTTTTTTTTTTTTTTTTTTTTTTTTT MOQGAD      TELAPSE   153087.40 TCPU   152063.63
 TTTTTTTTTTTTTTTTTTTTTTTTTTTTTT CP_MONMON   TELAPSE   153116.52 TCPU   152092.66
 DIIS TEST: 0.17428E-07 AT CPHF  CYCLE  15 - DIIS ACTIVE - HISTORY:    15 CYCLES
 CYCLE  15   ALPHA 1613.488675  EPSILON    4.712650  DELTA   -4.9131E-04
 TTTTTTTTTTTTTTTTTTTTTTTTTTTTTT CP_SC       TELAPSE   153268.91 TCPU   152239.07

 *******************************************************************************

 ELECTRIC FIELD APPLIED ALONG CARTESIAN DIRECTION Z

 *******************************************************************************
 THE NUMBER OF SYMMETRY OPERATORS HAS BEEN REDUCED FROM  4 TO  1

 NEW GRID IN RECIPROCAL SPACE
 *******************************************************************************
 POINTS IN THE IBZ                  14 SHRINKING FACTORS               3  3  3
 *******************************************************************************
 *** K POINTS COORDINATES (OBLIQUE COORDINATES IN UNITS OF SHRINK FAC. )
   1-R(  0  0  0)   2-C(  1  0  0)   3-C(  0  1  2)   4-C(  2  0  1)
   5-C(  0  2  0)   6-C(  1  1  0)   7-C(  1  1  1)   8-C(  1  0  1)
   9-C(  0  1  1)  10-C(  2  1  0)  11-C(  0  0  2)  12-C(  2  1  1)
  13-C(  2  1  2)  14-C(  2  2  1)

 GCALCO - MAX INDICES DIRECT LATTICE VECTOR    14    14    15
 NO.OF VECTORS CREATED 6999 STARS  488 RMAX   208.70846 BOHR
 TTTTTTTTTTTTTTTTTTTTTTTTTTTTTT gordsh1     TELAPSE   153322.75 TCPU   152292.24

 MATRIX SIZE: P(G) 1808420, F(G)  904870, P(G) IRR  906496, F(G) IRR  906496
 MAX G-VECTOR INDEX FOR 1- AND 2-ELECTRON INTEGRALS  59

 TTTTTTTTTTTTTTTTTTTTTTTTTTTTTT INPUT       TELAPSE   153371.48 TCPU   152340.51
 TTTTTTTTTTTTTTTTTTTTTTTTTTTTTT SYMM        TELAPSE   153371.48 TCPU   152340.51

 ***** NEW REFERENCE GEOMETRY *****
 TTTTTTTTTTTTTTTTTTTTTTTTTTTTTT INT_SCREEN  TELAPSE   153371.50 TCPU   152340.53
 INFORMATION **** EXCBUF **** EXCH. BIPO BUFFER: WORDS USED =           0

 DFT PARAMETERS

     ATOM       ELECTRONS   NET CHARGE   R(ANGSTROM)
   1   1  H       1.0000      0.0000     1.11000000
   5   6  C       6.0000      0.0000     0.77000000
  29   7  N       7.0000      0.0000     0.74000000
  49  17  CL     17.0000      0.0000     0.99000000
  61  30  ZN     30.0000      0.0000     1.37000000

 SIZE OF GRID=    1929054
 TTTTTTTTTTTTTTTTTTTTTTTTTTTTTT MAKE_GRID2  TELAPSE   153373.67 TCPU   152342.69
 BECKE WEIGHT FUNCTION
 RADSAFE =     2.00
 TOLERANCES - DENSITY:10**- 6; POTENTIAL:10**- 9; GRID WGT:10**-14

 RADIAL INTEGRATION  - INTERVALS (POINTS,UPPER LIMIT):            1( 75,  4.0*R)

 ANGULAR INTEGRATION - INTERVALS (ACCURACY LEVEL [N. POINTS] UPPER LIMIT):
  1(  4[  86]   0.2)  2(  8[ 194]   0.5)  3( 12[ 350]   0.9)  4( 16[ 974]   3.5)
  5( 12[ 350]9999.0)
 TTTTTTTTTTTTTTTTTTTTTTTTTTTTTT INT_CALC    TELAPSE   153373.78 TCPU   152342.79
 CYCLE   0   ALPHA  813.978237  EPSILON    2.872970  DELTA    8.1398E+02
 TTTTTTTTTTTTTTTTTTTTTTTTTTTTTT MOQGAD      TELAPSE   154701.66 TCPU   153665.30
 TTTTTTTTTTTTTTTTTTTTTTTTTTTTTT CP_MONMON   TELAPSE   154730.67 TCPU   153694.20
 DIIS TEST: 0.84075E+02 AT CPHF  CYCLE   1 - MIX    0 %
 CYCLE   1   ALPHA  445.896521  EPSILON    2.026011  DELTA   -3.6808E+02
 TTTTTTTTTTTTTTTTTTTTTTTTTTTTTT MOQGAD      TELAPSE   156102.67 TCPU   155058.14
 TTTTTTTTTTTTTTTTTTTTTTTTTTTTTT CP_MONMON   TELAPSE   156131.68 TCPU   155087.06
 DIIS TEST: 0.51404E+03 AT CPHF  CYCLE   2 - DIIS ACTIVE - HISTORY:     2 CYCLES
 CYCLE   2   ALPHA  596.154139  EPSILON    2.371755  DELTA    1.5026E+02
 TTTTTTTTTTTTTTTTTTTTTTTTTTTTTT MOQGAD      TELAPSE   157505.30 TCPU   156450.13
 TTTTTTTTTTTTTTTTTTTTTTTTTTTTTT CP_MONMON   TELAPSE   157534.55 TCPU   156479.31
 DIIS TEST: 0.59664E+02 AT CPHF  CYCLE   3 - DIIS ACTIVE - HISTORY:     3 CYCLES
 CYCLE   3   ALPHA  642.487716  EPSILON    2.478369  DELTA    4.6334E+01
 TTTTTTTTTTTTTTTTTTTTTTTTTTTTTT MOQGAD      TELAPSE   158909.47 TCPU   157843.04
 TTTTTTTTTTTTTTTTTTTTTTTTTTTTTT CP_MONMON   TELAPSE   158938.50 TCPU   157871.99
 DIIS TEST: 0.32387E+01 AT CPHF  CYCLE   4 - DIIS ACTIVE - HISTORY:     4 CYCLES
 CYCLE   4   ALPHA  643.334736  EPSILON    2.480318  DELTA    8.4702E-01
 TTTTTTTTTTTTTTTTTTTTTTTTTTTTTT MOQGAD      TELAPSE   160307.06 TCPU   159233.66
 TTTTTTTTTTTTTTTTTTTTTTTTTTTTTT CP_MONMON   TELAPSE   160336.03 TCPU   159262.54
 DIIS TEST: 0.19621E+00 AT CPHF  CYCLE   5 - DIIS ACTIVE - HISTORY:     5 CYCLES
 CYCLE   5   ALPHA  643.838071  EPSILON    2.481476  DELTA    5.0333E-01
 TTTTTTTTTTTTTTTTTTTTTTTTTTTTTT MOQGAD      TELAPSE   161709.26 TCPU   160626.77
 TTTTTTTTTTTTTTTTTTTTTTTTTTTTTT CP_MONMON   TELAPSE   161738.52 TCPU   160655.95
 DIIS TEST: 0.42009E-01 AT CPHF  CYCLE   6 - DIIS ACTIVE - HISTORY:     6 CYCLES
 CYCLE   6   ALPHA  644.072525  EPSILON    2.482016  DELTA    2.3445E-01
 TTTTTTTTTTTTTTTTTTTTTTTTTTTTTT MOQGAD      TELAPSE   163108.21 TCPU   162014.54
 TTTTTTTTTTTTTTTTTTTTTTTTTTTTTT CP_MONMON   TELAPSE   163137.23 TCPU   162043.45
 DIIS TEST: 0.13610E-01 AT CPHF  CYCLE   7 - DIIS ACTIVE - HISTORY:     7 CYCLES
 CYCLE   7   ALPHA  644.117677  EPSILON    2.482120  DELTA    4.5152E-02
 TTTTTTTTTTTTTTTTTTTTTTTTTTTTTT MOQGAD      TELAPSE   164507.81 TCPU   163408.32
 TTTTTTTTTTTTTTTTTTTTTTTTTTTTTT CP_MONMON   TELAPSE   164536.88 TCPU   163437.32
 DIIS TEST: 0.93451E-03 AT CPHF  CYCLE   8 - DIIS ACTIVE - HISTORY:     8 CYCLES
 CYCLE   8   ALPHA  644.121004  EPSILON    2.482127  DELTA    3.3271E-03
 TTTTTTTTTTTTTTTTTTTTTTTTTTTTTT MOQGAD      TELAPSE   165905.53 TCPU   164794.62
 TTTTTTTTTTTTTTTTTTTTTTTTTTTTTT CP_MONMON   TELAPSE   165934.58 TCPU   164823.58
 DIIS TEST: 0.23025E-03 AT CPHF  CYCLE   9 - DIIS ACTIVE - HISTORY:     9 CYCLES
 CYCLE   9   ALPHA  644.114972  EPSILON    2.482114  DELTA   -6.0318E-03
 TTTTTTTTTTTTTTTTTTTTTTTTTTTTTT MOQGAD      TELAPSE   167304.03 TCPU   166183.36
 TTTTTTTTTTTTTTTTTTTTTTTTTTTTTT CP_MONMON   TELAPSE   167333.08 TCPU   166212.34
 DIIS TEST: 0.68065E-04 AT CPHF  CYCLE  10 - DIIS ACTIVE - HISTORY:    10 CYCLES
 CYCLE  10   ALPHA  644.112831  EPSILON    2.482109  DELTA   -2.1413E-03
 TTTTTTTTTTTTTTTTTTTTTTTTTTTTTT MOQGAD      TELAPSE   168702.29 TCPU   167575.45
 TTTTTTTTTTTTTTTTTTTTTTTTTTTTTT CP_MONMON   TELAPSE   168731.28 TCPU   167604.34
 DIIS TEST: 0.48595E-04 AT CPHF  CYCLE  11 - DIIS ACTIVE - HISTORY:    11 CYCLES
 CYCLE  11   ALPHA  644.111402  EPSILON    2.482105  DELTA   -1.4284E-03
 TTTTTTTTTTTTTTTTTTTTTTTTTTTTTT MOQGAD      TELAPSE   170102.05 TCPU   168968.47
 TTTTTTTTTTTTTTTTTTTTTTTTTTTTTT CP_MONMON   TELAPSE   170131.05 TCPU   168997.38
 DIIS TEST: 0.27509E-05 AT CPHF  CYCLE  12 - DIIS ACTIVE - HISTORY:    12 CYCLES
 CYCLE  12   ALPHA  644.109949  EPSILON    2.482102  DELTA   -1.4534E-03
 TTTTTTTTTTTTTTTTTTTTTTTTTTTTTT MOQGAD      TELAPSE   171501.50 TCPU   170356.56
 TTTTTTTTTTTTTTTTTTTTTTTTTTTTTT CP_MONMON   TELAPSE   171530.49 TCPU   170385.47
 DIIS TEST: 0.13027E-06 AT CPHF  CYCLE  13 - DIIS ACTIVE - HISTORY:    13 CYCLES
 CYCLE  13   ALPHA  644.109635  EPSILON    2.482101  DELTA   -3.1352E-04
 TTTTTTTTTTTTTTTTTTTTTTTTTTTTTT CP_SC       TELAPSE   171673.11 TCPU   170522.21

 *******************************************************************************

 POLARIZABILITY (ALPHA), DIELECTRIC (EPSILON) AND FIRST-ORDER ELECTRIC
 SUSCEPTIBILITY (CHI(1)) TENSORS (INDEPENDENT COMPONENTS)

  FR.(eV) COMP.   ALPHA(Re,Im)           EPSILON(Re,Im)                CHI(1)
  2.331   XX    1613.4891       0.0000       4.7127       0.0000       3.7127
  2.331   XY      -0.0004       0.0000      -0.0000       0.0000      -0.0000
  2.331   XZ       0.0000       0.0000       0.0000       0.0000       0.0000
  2.331   YY    1613.4887       0.0000       4.7126       0.0000       3.7126
  2.331   YZ      -0.0000       0.0000      -0.0000       0.0000      -0.0000
  2.331   ZZ     644.1096       0.0000       2.4821       0.0000       1.4821

 DIELECTRIC TENSOR

 TENSOR IN PRINCIPAL AXES SYSTEM
 AA  4.712652E+00 BB  4.712649E+00 CC  2.482101E+00

 REFRACTIVE INDICES 
 AA  1.575469E+00 BB  2.170864E+00 CC  2.170864E+00

 OPTICALLY ANISOTROPIC - UNIAXIAL CRYSTAL

 BIREFRINGENCE =  0.5954 (NEGATIVE) - OBLATE OPTICAL ELLIPSOID

 EPSILON=N**2=1+CHI(1)=1+ALPHA*4*PI/V,   4*PI/V=   0.00230 BOHR**(-3)
 ALPHA IN BOHR**3; EPSILON AND CHI(1) ARE DIMENSIONLESS.
 *******************************************************************************


  Pockels Effect beta(-omega;omega,0) with omega=   1.1653 eV


 SIZE OF GRID=    1929054
 TTTTTTTTTTTTTTTTTTTTTTTTTTTTTT MAKE_GRID2  TELAPSE   172320.94 TCPU   171165.27
 BECKE WEIGHT FUNCTION
 RADSAFE =     2.00
 TOLERANCES - DENSITY:10**- 6; POTENTIAL:10**- 9; GRID WGT:10**-14

 RADIAL INTEGRATION  - INTERVALS (POINTS,UPPER LIMIT):            1( 75,  4.0*R)

 ANGULAR INTEGRATION - INTERVALS (ACCURACY LEVEL [N. POINTS] UPPER LIMIT):
  1(  4[  86]   0.2)  2(  8[ 194]   0.5)  3( 12[ 350]   0.9)  4( 16[ 974]   3.5)
  5( 12[ 350]9999.0)

 SIZE OF GRID=    1929054
 TTTTTTTTTTTTTTTTTTTTTTTTTTTTTT MAKE_GRID2  TELAPSE   172324.14 TCPU   171167.81
 BECKE WEIGHT FUNCTION
 RADSAFE =     2.00
 TOLERANCES - DENSITY:10**- 6; POTENTIAL:10**- 9; GRID WGT:10**-14

 RADIAL INTEGRATION  - INTERVALS (POINTS,UPPER LIMIT):            1( 75,  4.0*R)

 ANGULAR INTEGRATION - INTERVALS (ACCURACY LEVEL [N. POINTS] UPPER LIMIT):
  1(  4[  86]   0.2)  2(  8[ 194]   0.5)  3( 12[ 350]   0.9)  4( 16[ 974]   3.5)
  5( 12[ 350]9999.0)
 *******************************************************************************

 DC-POCKELS AND SECOND ELECTRIC SUSCEPTIBILITY (CHI(2))
 TENSORS (INDEPENDENT COMPONENTS)

BETA                                         CHI(2)       d(MKS)       d(cgs)
 *******************************************************************************

     XXX          0.4491E-03   0.5167E-06   0.5024E-06   0.1199E-07
     XXY          0.5406E-03   0.6220E-06   0.6048E-06   0.1443E-07
     XXZ         -0.2981E+02  -0.3429E-01  -0.3334E-01  -0.7955E-03
     XYX          0.7402E-03   0.8516E-06   0.8280E-06   0.1975E-07
     XYY         -0.9170E-04  -0.1055E-06  -0.1026E-06  -0.2447E-08
     XYZ         -0.8689E+02  -0.9997E-01  -0.9720E-01  -0.2319E-02
     XZX         -0.3223E+02  -0.3708E-01  -0.3605E-01  -0.8600E-03
     XZY         -0.6810E+02  -0.7835E-01  -0.7618E-01  -0.1817E-02
     XZZ         -0.2176E-03  -0.2503E-06  -0.2434E-06  -0.5807E-08
     YXX          0.6239E-03   0.7178E-06   0.6979E-06   0.1665E-07
     YXY         -0.6386E-04  -0.7348E-07  -0.7144E-07  -0.1704E-08
     YXZ         -0.8688E+02  -0.9996E-01  -0.9720E-01  -0.2319E-02
     YYX         -0.1303E-03  -0.1499E-06  -0.1458E-06  -0.3478E-08
     YYY         -0.1222E-03  -0.1406E-06  -0.1367E-06  -0.3261E-08
     YYZ          0.2981E+02   0.3430E-01   0.3335E-01   0.7957E-03
     YZX         -0.6810E+02  -0.7834E-01  -0.7618E-01  -0.1817E-02
     YZY          0.3223E+02   0.3708E-01   0.3605E-01   0.8601E-03
     YZZ          0.9442E-05   0.1086E-07   0.1056E-07   0.2520E-09
     ZXX         -0.3225E+02  -0.3710E-01  -0.3608E-01  -0.8606E-03
     ZXY         -0.6822E+02  -0.7849E-01  -0.7632E-01  -0.1821E-02
     ZXZ         -0.1815E-03  -0.2089E-06  -0.2031E-06  -0.4845E-08
     ZYX         -0.6822E+02  -0.7849E-01  -0.7632E-01  -0.1821E-02
     ZYY          0.3226E+02   0.3711E-01   0.3609E-01   0.8609E-03
     ZYZ         -0.2727E-05  -0.3137E-08  -0.3050E-08  -0.7277E-10
     ZZX         -0.2132E-03  -0.2452E-06  -0.2385E-06  -0.5689E-08
     ZZY         -0.1959E-04  -0.2254E-07  -0.2192E-07  -0.5229E-09
     ZZZ          0.1308E-02   0.1505E-05   0.1463E-05   0.3491E-07
 *******************************************************************************
 CHI(2) = BETA*2PI/V

 BETA AND CHI(2) IN A.U.:    [BETA] = M**(-1/2) L**(7/2) T
                             [CHI(2)] = 1/F
                             (L=LENGTH, M=MASS, T=TIME, F=FIELD INTENSITY)

 ELECTRIC SUSCEPTIBILITY IN THE SECOND HARMONIC GENERATION (SHG) CONVENTION IS:
                   d(A.U.)= 1/2 CHI(2)
                   d(MKS) = d(A.U.)/0.514220632 pm/V
                   d(CGS) = d(A.U.)/(4PI*1.7152535)  10**(-7) esu

 FIELD INTENSITY: 1 A.U. = 0.514220632*10**(11) V/m = 1.7152535*10**7 esu
 BEWARE:                CHI(2)=P/(E0*F**2)   (MKS)
                        CHI(2)=P/F**2        (CGS)
 WHERE P IS THE POLARIZATION VECTOR AND F IS THE APPLIED ELECTRIC FIELD.
 CONSISTENCY IS  PRESERVED BY MULTIPLYING THE CGS VALUE TIMES THE PERMITTIVITY
 OF THE VACUUM, E0 (CONVERSION FACTORS FROM www.physics.nist.gov/constants).
 IN PARENTHESIS: BETA BEFORE SYMMETRIZATION.

  SHG Effect beta(-2omega;omega,omega) with omega=   1.1653 eV


 SIZE OF GRID=    1929054
 TTTTTTTTTTTTTTTTTTTTTTTTTTTTTT MAKE_GRID2  TELAPSE   172865.04 TCPU   171705.71
 BECKE WEIGHT FUNCTION
 RADSAFE =     2.00
 TOLERANCES - DENSITY:10**- 6; POTENTIAL:10**- 9; GRID WGT:10**-14

 RADIAL INTEGRATION  - INTERVALS (POINTS,UPPER LIMIT):            1( 75,  4.0*R)

 ANGULAR INTEGRATION - INTERVALS (ACCURACY LEVEL [N. POINTS] UPPER LIMIT):
  1(  4[  86]   0.2)  2(  8[ 194]   0.5)  3( 12[ 350]   0.9)  4( 16[ 974]   3.5)
  5( 12[ 350]9999.0)

 SIZE OF GRID=    1929054
 TTTTTTTTTTTTTTTTTTTTTTTTTTTTTT MAKE_GRID2  TELAPSE   172867.57 TCPU   171708.24
 BECKE WEIGHT FUNCTION
 RADSAFE =     2.00
 TOLERANCES - DENSITY:10**- 6; POTENTIAL:10**- 9; GRID WGT:10**-14

 RADIAL INTEGRATION  - INTERVALS (POINTS,UPPER LIMIT):            1( 75,  4.0*R)

 ANGULAR INTEGRATION - INTERVALS (ACCURACY LEVEL [N. POINTS] UPPER LIMIT):
  1(  4[  86]   0.2)  2(  8[ 194]   0.5)  3( 12[ 350]   0.9)  4( 16[ 974]   3.5)
  5( 12[ 350]9999.0)
 *******************************************************************************

 SECOND HARMONIC GENERATION (SHG)  AND SECOND ELECTRIC SUSCEPTIBILITY (CHI(2))
 TENSORS (INDEPENDENT COMPONENTS)

BETA                                         CHI(2)       d(MKS)       d(cgs)
 *******************************************************************************

     XXX          0.8784E-03   0.1011E-05   0.9826E-06   0.2344E-07
     XXY          0.9750E-03   0.1122E-05   0.1091E-05   0.2602E-07
     XXZ          0.6498E+02   0.7476E-01   0.7270E-01   0.1734E-02
     XYX          0.9750E-03   0.1122E-05   0.1091E-05   0.2602E-07
     XYY          0.3318E-03   0.3817E-06   0.3712E-06   0.8855E-08
     XYZ          0.1159E+03   0.1334E+00   0.1297E+00   0.3094E-02
     XZX          0.6498E+02   0.7476E-01   0.7270E-01   0.1734E-02
     XZY          0.1159E+03   0.1334E+00   0.1297E+00   0.3094E-02
     XZZ         -0.2417E-03  -0.2780E-06  -0.2703E-06  -0.6449E-08
     YXX          0.1153E-02   0.1326E-05   0.1289E-05   0.3076E-07
     YXY          0.2574E-03   0.2962E-06   0.2880E-06   0.6870E-08
     YXZ          0.1159E+03   0.1334E+00   0.1297E+00   0.3094E-02
     YYX          0.2574E-03   0.2962E-06   0.2880E-06   0.6870E-08
     YYY         -0.4773E-03  -0.5492E-06  -0.5340E-06  -0.1274E-07
     YYZ         -0.6498E+02  -0.7476E-01  -0.7269E-01  -0.1734E-02
     YZX          0.1159E+03   0.1334E+00   0.1297E+00   0.3094E-02
     YZY         -0.6498E+02  -0.7476E-01  -0.7269E-01  -0.1734E-02
     YZZ          0.6090E-06   0.7006E-09   0.6813E-09   0.1625E-10
     ZXX          0.3349E+02   0.3853E-01   0.3747E-01   0.8938E-03
     ZXY          0.7757E+02   0.8924E-01   0.8678E-01   0.2070E-02
     ZXZ         -0.1456E-03  -0.1675E-06  -0.1629E-06  -0.3886E-08
     ZYX          0.7757E+02   0.8924E-01   0.8678E-01   0.2070E-02
     ZYY         -0.3346E+02  -0.3850E-01  -0.3744E-01  -0.8931E-03
     ZYZ         -0.3485E-04  -0.4009E-07  -0.3898E-07  -0.9300E-09
     ZZX         -0.1456E-03  -0.1675E-06  -0.1629E-06  -0.3886E-08
     ZZY         -0.3485E-04  -0.4009E-07  -0.3898E-07  -0.9300E-09
     ZZZ         -0.1163E-02  -0.1338E-05  -0.1301E-05  -0.3105E-07
 *******************************************************************************
 CHI(2) = BETA*2PI/V

 BETA AND CHI(2) IN A.U.:    [BETA] = M**(-1/2) L**(7/2) T
                             [CHI(2)] = 1/F
                             (L=LENGTH, M=MASS, T=TIME, F=FIELD INTENSITY)

 ELECTRIC SUSCEPTIBILITY IN THE SECOND HARMONIC GENERATION (SHG) CONVENTION IS:
                   d(A.U.)= 1/2 CHI(2)
                   d(MKS) = d(A.U.)/0.514220632 pm/V
                   d(CGS) = d(A.U.)/(4PI*1.7152535)  10**(-7) esu

 FIELD INTENSITY: 1 A.U. = 0.514220632*10**(11) V/m = 1.7152535*10**7 esu
 BEWARE:                CHI(2)=P/(E0*F**2)   (MKS)
                        CHI(2)=P/F**2        (CGS)
 WHERE P IS THE POLARIZATION VECTOR AND F IS THE APPLIED ELECTRIC FIELD.
 CONSISTENCY IS  PRESERVED BY MULTIPLYING THE CGS VALUE TIMES THE PERMITTIVITY
 OF THE VACUUM, E0 (CONVERSION FACTORS FROM www.physics.nist.gov/constants).
 IN PARENTHESIS: BETA BEFORE SYMMETRIZATION.

 *******************************************************************************


 GCALCO - MAX INDICES DIRECT LATTICE VECTOR    14    14    15
 NO.OF VECTORS CREATED 6999 STARS  488 RMAX   208.70846 BOHR

 CAPPA:IS1  3;IS2  3;IS3  3; K PTS MONK NET   6; SYMMOPS:K SPACE   8;G SPACE   4

 TTTTTTTTTTTTTTTTTTTTTTTTTTTTTT END         TELAPSE   172867.95 TCPU   171708.61
 EEEEEEEEEE TERMINATION  DATE 13 12 2023 TIME 19:11:44.1
NODE    0 CPU TIME =    171708.610
NODE    1 CPU TIME =    171955.623
NODE    2 CPU TIME =    172125.799
NODE    3 CPU TIME =    172123.387
NODE    4 CPU TIME =    171794.200
NODE    5 CPU TIME =    171943.967
NODE    6 CPU TIME =    172125.380
NODE    7 CPU TIME =    172101.102
NODE    8 CPU TIME =    171787.630
NODE    9 CPU TIME =    171946.027
NODE   10 CPU TIME =    171968.678
NODE   11 CPU TIME =    171929.630
NODE   12 CPU TIME =    171679.115
NODE   13 CPU TIME =    171869.738
NODE   14 CPU TIME =    171928.297
NODE   15 CPU TIME =    171936.034
NODE   16 CPU TIME =    171668.291
NODE   17 CPU TIME =    171822.204
NODE   18 CPU TIME =    171909.152
NODE   19 CPU TIME =    171905.838
NODE   20 CPU TIME =    171666.897
NODE   21 CPU TIME =    171832.580
NODE   22 CPU TIME =    171924.350
NODE   23 CPU TIME =    171944.216
    TOTAL CPU TIME =   4125596.744
trying normal rsh (/usr/bin/rsh)
exec: No such file or directory
trying normal rsh (/usr/bin/rsh)
exec: No such file or directory
trying normal rsh (/usr/bin/rsh)
exec: No such file or directory
trying normal rsh (/usr/bin/rsh)
exec: No such file or directory
