Loading crystal17/1.0.2/intel/19.0
  Loading requirement: intel/19.0 ompi/4.0.1/intel/19.0
 PROCESS            0  OF           24  WORKING
 PROCESS            2  OF           24  WORKING
 PROCESS            3  OF           24  WORKING
 PROCESS            5  OF           24  WORKING
 PROCESS            7  OF           24  WORKING
 PROCESS            8  OF           24  WORKING
 PROCESS            9  OF           24  WORKING
 PROCESS           10  OF           24  WORKING
 PROCESS           12  OF           24  WORKING
 PROCESS           13  OF           24  WORKING
 PROCESS           14  OF           24  WORKING
 PROCESS           15  OF           24  WORKING
 PROCESS           16  OF           24  WORKING
 PROCESS           17  OF           24  WORKING
 PROCESS           19  OF           24  WORKING
 PROCESS           20  OF           24  WORKING
 PROCESS           21  OF           24  WORKING
 PROCESS           22  OF           24  WORKING
 PROCESS           23  OF           24  WORKING
 PROCESS            4  OF           24  WORKING
 PROCESS            6  OF           24  WORKING
 PROCESS           11  OF           24  WORKING
 PROCESS           18  OF           24  WORKING
 PROCESS            1  OF           24  WORKING

         
 *******************************************************************************
 *                                                                             *
 *                               CRYSTAL17                                     *
 *                      public : 1.0.2 - March 1st, 2018                       *
 *                       HTTP://WWW.CRYSTAL.UNITO.IT                           *
 *                                                                             *
 *                              MAIN AUTHORS                                   *
 *                                                                             *
 *  R. DOVESI(1,11), V.R. SAUNDERS(2), C. ROETTI(1,11), R. ORLANDO(1,11),      *
 *  C.M. ZICOVICH-WILSON(1,3), F. PASCALE(4), B. CIVALLERI(1,11),              *
 *  K. DOLL(5), N.M. HARRISON(2,6), I.J. BUSH(7), Ph. D'ARCO(8),               *
 *  M. LLUNELL(9), M. CAUSA'(10), Y. NOEL(8), L. MASCHIO(1,11), A. ERBA(1,11)  *
 *  M. RE'RAT(14), S. CASASSA(1,11)                                            *
 *                                                                             *
 *        CONTRIBUTIONS TO THE CODE HAVE ALSO BEEN GIVEN BY                    *
 *                                                                             *
 *  M. FERRABONE(1,11), M. DE LA PIERRE(1,11), M. FERRERO(1,11),               *
 *  J. BAIMA(1,11), E. ALBANESE(1,11), M.F. PEINTINGER(12), R. BAST(13),       *
 *  B. KIRTMAN(15), V. LACIVITA(1,11), R. DEMICHELIS(1,16)                     *
 *  G. BRANDEBURG(17), S. SALUSTRO(1,11), G. SANSONE(1,11)                     *
 *  M.T. RUGGIERO(18)                                                          *
 *                                                                             *
 * (1) THEORETICAL CHEMISTRY GROUP - UNIVERSITA' DI TORINO - TORINO (ITALY)    *
 * (2) COMPUTATIONAL SCIENCE & ENGINEERING DEPARTMENT - STFC DARESBURY (UK)    *
 * (3) UNIVERSIDAD AUTONOMA DEL ESTADO DE MORELOS - CUERNAVACA (MEXICO)        *
 * (4) UNIVERSITE' DE LORRAINE - NANCY (FRANCE)                                *
 * (5) UNIVERSITAET STUTTGART- STUTTGART (GERMANY)                             *
 * (6) IMPERIAL COLLEGE - LONDON (UK)                                          *
 * (7) OXFORD E-RESEARCH CENTRE - OXFORD (UK)                                  *
 * (8) UPMC - SORBONNE UNIVERSITES - PARIS (FRANCE)                            *
 * (9) UNIVERSIDAD DE BARCELONA - BARCELONA (SPAIN)                            *
 *(10) UNIVERSITA' DI NAPOLI "FEDERICO II" - NAPOLI (ITALY)                    *
 *(11) NIS - NANOSTRUCTURED INTERFACES AND SURFACES - TORINO (ITALY)           *
 *(12) MPI FUER CHEMISCHE ENERGIEKONVERSION - MUELHEIM AN DER RUHR (GERMANY)   *
 *(13) UNIVERSITY OF TROMSO - TROMSO (NORWAY)                                  *
 *(14) UNIVERSITE' DE PAU ET DES PAYS DE L'ADOUR - PAU (FRANCE)                *
 *(15) UNIVERSITY OF CALIFORNIA SANTA BARBARA - SANTA BARBARA (USA)            *
 *(16) CURTIN UNIVERSITY - PERTH (AUSTRALIA)                                   *
 *(17) UNIVERSITY COLLEGE LONDON - LONDON (UK)                                 *
 *(18) CAMBRIDGE UNIVERSITY - CAMBRIDGE (UK)                                   *
 *                                                                             *
 *******************************************************************************
 EEEEEEEEEE STARTING  DATE 08 12 2023 TIME 22:38:14.3
 Z:\home\sanoj\Downloads\tmp_p\newconn.mol                                       

 CRYSTAL CALCULATION
 (INPUT ACCORDING TO THE INTERNATIONAL TABLES FOR X-RAY CRYSTALLOGRAPHY)
 CRYSTAL FAMILY                       :  TETRAGONAL  
 CRYSTAL CLASS  (GROTH - 1921)        :  TETRAGONAL DISPHENOIDAL              

 SPACE GROUP (NONCENTROSYMMETRIC)     :  I -4            

 LATTICE PARAMETERS  (ANGSTROMS AND DEGREES) - CONVENTIONAL CELL
        A           B           C        ALPHA        BETA       GAMMA
     9.95198     9.95198    14.58508    90.00000    90.00000    90.00000


 NUMBER OF IRREDUCIBLE ATOMS IN THE CONVENTIONAL CELL:   17

 INPUT COORDINATES

 ATOM AT. N.              COORDINATES
   1   1     7.421200000000E-01  4.493000000000E-01  1.657500000000E-01
   2   1    -1.106000000000E-02  3.975800000000E-01  1.871700000000E-01
   3   1     6.895000000000E-02  1.592200000000E-01  1.646200000000E-01
   4   6     6.956900000000E-01  2.455100000000E-01  1.237300000000E-01
   5   6     5.490700000000E-01  2.559200000000E-01  1.280200000000E-01
   6   6     7.820500000000E-01  3.486400000000E-01  1.529800000000E-01
   7   6    -3.546000000000E-02  1.887900000000E-01  1.518600000000E-01
   8   6     7.575600000000E-01  1.232900000000E-01  9.962000000000E-02
   9   6     8.199000000000E-02  6.800300000000E-01  1.661400000000E-01
  10   7     4.713000000000E-01  1.761800000000E-01  1.818700000000E-01
  11   7     3.417700000000E-01  2.232100000000E-01  1.743200000000E-01
  12   7     4.699700000000E-01  3.482600000000E-01  8.705000000000E-02
  13   7     3.404000000000E-01  3.265100000000E-01  1.178600000000E-01
  14   7     8.844400000000E-01  9.316000000000E-02  1.162900000000E-01
  15  17     6.633800000000E-01  7.350000000000E-03  3.714000000000E-02
  16  30     0.000000000000E+00  5.000000000000E-01  7.500000000000E-01
  17  30     0.000000000000E+00  0.000000000000E+00  5.000000000000E-01

 *******************************************************************************

 << INFORMATION >>: FROM NOW ON, ALL COORDINATES REFER TO THE PRIMITIVE CELL

 *******************************************************************************

 LATTICE PARAMETERS  (ANGSTROMS AND DEGREES) - PRIMITIVE CELL
       A          B          C        ALPHA      BETA     GAMMA        VOLUME
   10.13421   10.13421   10.13421   121.18608 121.18608  87.95764    722.267597

 COORDINATES OF THE EQUIVALENT ATOMS (FRACTIONAL UNITS)

 N. ATOM EQUIV AT. N.          X                  Y                  Z

   1   1   1    1 H    -3.84950000000E-01 -9.21300000000E-02  1.91420000000E-01
   2   1   2    1 H    -2.83550000000E-01  4.23630000000E-01 -1.91420000000E-01
   3   1   3    1 H     9.21300000000E-02  2.83550000000E-01 -2.92820000000E-01
   4   1   4    1 H    -4.23630000000E-01  3.84950000000E-01  2.92820000000E-01

   5   2   1    1 H    -4.15250000000E-01  1.76110000000E-01  3.86520000000E-01
   6   2   2    1 H    -2.10410000000E-01  1.98230000000E-01 -3.86520000000E-01
   7   2   3    1 H    -1.76110000000E-01  2.10410000000E-01  4.08640000000E-01
   8   2   4    1 H    -1.98230000000E-01  4.15250000000E-01 -4.08640000000E-01

   9   3   1    1 H     3.23840000000E-01  2.33570000000E-01  2.28170000000E-01
  10   3   2    1 H     5.40000000000E-03  9.56700000000E-02 -2.28170000000E-01
  11   3   3    1 H    -2.33570000000E-01 -5.40000000000E-03  9.02700000000E-02
  12   3   4    1 H    -9.56700000000E-02 -3.23840000000E-01 -9.02700000000E-02

  13   4   1    6 C     3.69240000000E-01 -1.80580000000E-01 -5.88000000000E-02
  14   4   2    6 C    -1.21780000000E-01  4.28040000000E-01  5.88000000000E-02
  15   4   3    6 C     1.80580000000E-01  1.21780000000E-01 -4.50180000000E-01
  16   4   4    6 C    -4.28040000000E-01 -3.69240000000E-01  4.50180000000E-01

  17   5   1    6 C     3.83940000000E-01 -3.22910000000E-01 -1.95010000000E-01
  18   5   2    6 C    -1.27900000000E-01 -4.21050000000E-01  1.95010000000E-01
  19   5   3    6 C     3.22910000000E-01  1.27900000000E-01 -2.93150000000E-01
  20   5   4    6 C     4.21050000000E-01 -3.83940000000E-01  2.93150000000E-01

  21   6   1    6 C    -4.98380000000E-01 -6.49700000000E-02  1.30690000000E-01
  22   6   2    6 C    -1.95660000000E-01  3.70930000000E-01 -1.30690000000E-01
  23   6   3    6 C     6.49700000000E-02  1.95660000000E-01 -4.33410000000E-01
  24   6   4    6 C    -3.70930000000E-01  4.98380000000E-01  4.33410000000E-01

  25   7   1    6 C     3.40650000000E-01  1.16400000000E-01  1.53330000000E-01
  26   7   2    6 C    -3.69300000000E-02  1.87320000000E-01 -1.53330000000E-01
  27   7   3    6 C    -1.16400000000E-01  3.69300000000E-02  2.24250000000E-01
  28   7   4    6 C    -1.87320000000E-01 -3.40650000000E-01 -2.24250000000E-01

  29   8   1    6 C     2.22910000000E-01 -1.42820000000E-01 -1.19150000000E-01
  30   8   2    6 C    -2.36700000000E-02  3.42060000000E-01  1.19150000000E-01
  31   8   3    6 C     1.42820000000E-01  2.36700000000E-02  3.65730000000E-01
  32   8   4    6 C    -3.42060000000E-01 -2.22910000000E-01 -3.65730000000E-01

  33   9   1    6 C    -1.53830000000E-01  2.48130000000E-01 -2.37980000000E-01
  34   9   2    6 C     4.86110000000E-01  8.41500000000E-02  2.37980000000E-01
  35   9   3    6 C    -2.48130000000E-01 -4.86110000000E-01 -4.01960000000E-01
  36   9   4    6 C    -8.41500000000E-02  1.53830000000E-01  4.01960000000E-01

  37  10   1    7 N     3.58050000000E-01 -3.46830000000E-01 -3.52520000000E-01
  38  10   2    7 N     5.69000000000E-03 -2.89430000000E-01  3.52520000000E-01
  39  10   3    7 N     3.46830000000E-01 -5.69000000000E-03 -2.95120000000E-01
  40  10   4    7 N     2.89430000000E-01 -3.58050000000E-01  2.95120000000E-01

  41  11   1    7 N     3.97530000000E-01 -4.83910000000E-01 -4.35020000000E-01
  42  11   2    7 N    -4.88900000000E-02 -1.67450000000E-01  4.35020000000E-01
  43  11   3    7 N     4.83910000000E-01  4.88900000000E-02 -1.18560000000E-01
  44  11   4    7 N     1.67450000000E-01 -3.97530000000E-01  1.18560000000E-01

  45  12   1    7 N     4.35310000000E-01 -4.42980000000E-01 -1.81770000000E-01
  46  12   2    7 N    -2.61210000000E-01 -3.82920000000E-01  1.81770000000E-01
  47  12   3    7 N     4.42980000000E-01  2.61210000000E-01 -1.21710000000E-01
  48  12   4    7 N     3.82920000000E-01 -4.35310000000E-01  1.21710000000E-01

  49  13   1    7 N     4.44370000000E-01  4.58260000000E-01 -3.33090000000E-01
  50  13   2    7 N    -2.08650000000E-01 -2.22540000000E-01  3.33090000000E-01
  51  13   3    7 N    -4.58260000000E-01  2.08650000000E-01 -1.38900000000E-02
  52  13   4    7 N     2.22540000000E-01 -4.44370000000E-01  1.38900000000E-02

  53  14   1    7 N     2.09450000000E-01  7.30000000000E-04 -2.24000000000E-02
  54  14   2    7 N     2.31300000000E-02  2.31850000000E-01  2.24000000000E-02
  55  14   3    7 N    -7.30000000000E-04 -2.31300000000E-02  2.08720000000E-01
  56  14   4    7 N    -2.31850000000E-01 -2.09450000000E-01 -2.08720000000E-01

  57  15   1   17 CL    4.44900000000E-02 -2.99480000000E-01 -3.29270000000E-01
  58  15   2   17 CL    2.97900000000E-02  3.73760000000E-01  3.29270000000E-01
  59  15   3   17 CL    2.99480000000E-01 -2.97900000000E-02  3.43970000000E-01
  60  15   4   17 CL   -3.73760000000E-01 -4.44900000000E-02 -3.43970000000E-01

  61  16   1   30 ZN    2.50000000000E-01 -2.50000000000E-01 -5.00000000000E-01

  62  17   1   30 ZN   -5.00000000000E-01 -5.00000000000E-01  0.00000000000E+00

 NUMBER OF SYMMETRY OPERATORS         :    4
 *******************************************************************************
 * GEOMETRY EDITING - INPUT COORDINATES ARE GIVEN IN ANGSTROM         
 *******************************************************************************

 GEOMETRY NOW FULLY CONSISTENT WITH THE GROUP

 GCALCO - MAX INDICES DIRECT LATTICE VECTOR    14    14    16
 NO.OF VECTORS CREATED 6999 STARS  478 RMAX   201.80709 BOHR

 GEOMETRY FOR WAVE FUNCTION - DIMENSIONALITY OF THE SYSTEM    3
 (NON PERIODIC DIRECTION: LATTICE PARAMETER FORMALLY SET TO 500)
 *******************************************************************************
 LATTICE PARAMETERS (ANGSTROMS AND DEGREES) - BOHR = 0.5291772083 ANGSTROM
 PRIMITIVE CELL - CENTRING CODE 6/0 VOLUME=   722.267597 - DENSITY  1.949 g/cm^3
         A              B              C           ALPHA      BETA       GAMMA 
    10.13420548    10.13420548    10.13420548   121.186077 121.186077  87.957645
 *******************************************************************************
 ATOMS IN THE ASYMMETRIC UNIT   17 - ATOMS IN THE UNIT CELL:   62
     ATOM                 X/A                 Y/B                 Z/C    
 *******************************************************************************
      1 T   1 H    -3.849500000000E-01 -9.213000000000E-02  1.914200000000E-01
      2 F   1 H    -2.835500000000E-01  4.236300000000E-01 -1.914200000000E-01
      3 F   1 H     9.213000000000E-02  2.835500000000E-01 -2.928200000000E-01
      4 F   1 H    -4.236300000000E-01  3.849500000000E-01  2.928200000000E-01
      5 T   1 H    -4.152500000000E-01  1.761100000000E-01  3.865200000000E-01
      6 F   1 H    -2.104100000000E-01  1.982300000000E-01 -3.865200000000E-01
      7 F   1 H    -1.761100000000E-01  2.104100000000E-01  4.086400000000E-01
      8 F   1 H    -1.982300000000E-01  4.152500000000E-01 -4.086400000000E-01
      9 T   1 H     3.238400000000E-01  2.335700000000E-01  2.281700000000E-01
     10 F   1 H     5.400000000000E-03  9.567000000000E-02 -2.281700000000E-01
     11 F   1 H    -2.335700000000E-01 -5.400000000000E-03  9.027000000000E-02
     12 F   1 H    -9.567000000000E-02 -3.238400000000E-01 -9.027000000000E-02
     13 T   6 C     3.692400000000E-01 -1.805800000000E-01 -5.880000000000E-02
     14 F   6 C    -1.217800000000E-01  4.280400000000E-01  5.880000000000E-02
     15 F   6 C     1.805800000000E-01  1.217800000000E-01 -4.501800000000E-01
     16 F   6 C    -4.280400000000E-01 -3.692400000000E-01  4.501800000000E-01
     17 T   6 C     3.839400000000E-01 -3.229100000000E-01 -1.950100000000E-01
     18 F   6 C    -1.279000000000E-01 -4.210500000000E-01  1.950100000000E-01
     19 F   6 C     3.229100000000E-01  1.279000000000E-01 -2.931500000000E-01
     20 F   6 C     4.210500000000E-01 -3.839400000000E-01  2.931500000000E-01
     21 T   6 C    -4.983800000000E-01 -6.497000000000E-02  1.306900000000E-01
     22 F   6 C    -1.956600000000E-01  3.709300000000E-01 -1.306900000000E-01
     23 F   6 C     6.497000000000E-02  1.956600000000E-01 -4.334100000000E-01
     24 F   6 C    -3.709300000000E-01  4.983800000000E-01  4.334100000000E-01
     25 T   6 C     3.406500000000E-01  1.164000000000E-01  1.533300000000E-01
     26 F   6 C    -3.693000000000E-02  1.873200000000E-01 -1.533300000000E-01
     27 F   6 C    -1.164000000000E-01  3.693000000000E-02  2.242500000000E-01
     28 F   6 C    -1.873200000000E-01 -3.406500000000E-01 -2.242500000000E-01
     29 T   6 C     2.229100000000E-01 -1.428200000000E-01 -1.191500000000E-01
     30 F   6 C    -2.367000000000E-02  3.420600000000E-01  1.191500000000E-01
     31 F   6 C     1.428200000000E-01  2.367000000000E-02  3.657300000000E-01
     32 F   6 C    -3.420600000000E-01 -2.229100000000E-01 -3.657300000000E-01
     33 T   6 C    -1.538300000000E-01  2.481300000000E-01 -2.379800000000E-01
     34 F   6 C     4.861100000000E-01  8.415000000000E-02  2.379800000000E-01
     35 F   6 C    -2.481300000000E-01 -4.861100000000E-01 -4.019600000000E-01
     36 F   6 C    -8.415000000000E-02  1.538300000000E-01  4.019600000000E-01
     37 T   7 N     3.580500000000E-01 -3.468300000000E-01 -3.525200000000E-01
     38 F   7 N     5.690000000000E-03 -2.894300000000E-01  3.525200000000E-01
     39 F   7 N     3.468300000000E-01 -5.690000000000E-03 -2.951200000000E-01
     40 F   7 N     2.894300000000E-01 -3.580500000000E-01  2.951200000000E-01
     41 T   7 N     3.975300000000E-01 -4.839100000000E-01 -4.350200000000E-01
     42 F   7 N    -4.889000000000E-02 -1.674500000000E-01  4.350200000000E-01
     43 F   7 N     4.839100000000E-01  4.889000000000E-02 -1.185600000000E-01
     44 F   7 N     1.674500000000E-01 -3.975300000000E-01  1.185600000000E-01
     45 T   7 N     4.353100000000E-01 -4.429800000000E-01 -1.817700000000E-01
     46 F   7 N    -2.612100000000E-01 -3.829200000000E-01  1.817700000000E-01
     47 F   7 N     4.429800000000E-01  2.612100000000E-01 -1.217100000000E-01
     48 F   7 N     3.829200000000E-01 -4.353100000000E-01  1.217100000000E-01
     49 T   7 N     4.443700000000E-01  4.582600000000E-01 -3.330900000000E-01
     50 F   7 N    -2.086500000000E-01 -2.225400000000E-01  3.330900000000E-01
     51 F   7 N    -4.582600000000E-01  2.086500000000E-01 -1.389000000000E-02
     52 F   7 N     2.225400000000E-01 -4.443700000000E-01  1.389000000000E-02
     53 T   7 N     2.094500000000E-01  7.299999999999E-04 -2.240000000000E-02
     54 F   7 N     2.313000000000E-02  2.318500000000E-01  2.240000000000E-02
     55 F   7 N    -7.300000000000E-04 -2.313000000000E-02  2.087200000000E-01
     56 F   7 N    -2.318500000000E-01 -2.094500000000E-01 -2.087200000000E-01
     57 T  17 CL    4.449000000000E-02 -2.994800000000E-01 -3.292700000000E-01
     58 F  17 CL    2.979000000000E-02  3.737600000000E-01  3.292700000000E-01
     59 F  17 CL    2.994800000000E-01 -2.979000000000E-02  3.439700000000E-01
     60 F  17 CL   -3.737600000000E-01 -4.449000000000E-02 -3.439700000000E-01
     61 T  30 ZN    2.500000000000E-01 -2.500000000000E-01 -5.000000000000E-01
     62 T  30 ZN   -5.000000000000E-01 -5.000000000000E-01 -6.661338147751E-16

 TRANSFORMATION MATRIX PRIMITIVE-CRYSTALLOGRAPHIC CELL
  0.0000  1.0000  1.0000  1.0000  0.0000  1.0000  1.0000  1.0000  0.0000

 *******************************************************************************
 CRYSTALLOGRAPHIC CELL (VOLUME=       1444.53519378)
         A              B              C           ALPHA      BETA       GAMMA 
     9.95198445     9.95198445    14.58507779    90.000000  90.000000  90.000000

 COORDINATES IN THE CRYSTALLOGRAPHIC CELL
     ATOM                 X/A                 Y/B                 Z/C    
 *******************************************************************************
      1 T   1 H     2.421200000000E-01 -5.070000000000E-02 -3.342500000000E-01
      2 F   1 H    -2.421200000000E-01  5.070000000000E-02 -3.342500000000E-01
      3 F   1 H    -5.070000000000E-02 -2.421200000000E-01  3.342500000000E-01
      4 F   1 H     5.070000000000E-02  2.421200000000E-01  3.342500000000E-01
      5 T   1 H    -1.106000000000E-02  3.975800000000E-01  1.871700000000E-01
      6 F   1 H     1.106000000000E-02 -3.975800000000E-01  1.871700000000E-01
      7 F   1 H     3.975800000000E-01  1.106000000000E-02 -1.871700000000E-01
      8 F   1 H    -3.975800000000E-01 -1.106000000000E-02 -1.871700000000E-01
      9 T   1 H     6.895000000000E-02  1.592200000000E-01  1.646200000000E-01
     10 F   1 H    -6.895000000000E-02 -1.592200000000E-01  1.646200000000E-01
     11 F   1 H     1.592200000000E-01 -6.895000000000E-02 -1.646200000000E-01
     12 F   1 H    -1.592200000000E-01  6.895000000000E-02 -1.646200000000E-01
     13 T   6 C    -3.043100000000E-01  2.455100000000E-01  1.237300000000E-01
     14 F   6 C     3.043100000000E-01 -2.455100000000E-01  1.237300000000E-01
     15 F   6 C     2.455100000000E-01  3.043100000000E-01 -1.237300000000E-01
     16 F   6 C    -2.455100000000E-01 -3.043100000000E-01 -1.237300000000E-01
     17 T   6 C    -4.509300000000E-01  2.559200000000E-01  1.280200000000E-01
     18 F   6 C     4.509300000000E-01 -2.559200000000E-01  1.280200000000E-01
     19 F   6 C     2.559200000000E-01  4.509300000000E-01 -1.280200000000E-01
     20 F   6 C    -2.559200000000E-01 -4.509300000000E-01 -1.280200000000E-01
     21 T   6 C    -2.179500000000E-01  3.486400000000E-01  1.529800000000E-01
     22 F   6 C     2.179500000000E-01 -3.486400000000E-01  1.529800000000E-01
     23 F   6 C     3.486400000000E-01  2.179500000000E-01 -1.529800000000E-01
     24 F   6 C    -3.486400000000E-01 -2.179500000000E-01 -1.529800000000E-01
     25 T   6 C    -3.546000000000E-02  1.887900000000E-01  1.518600000000E-01
     26 F   6 C     3.546000000000E-02 -1.887900000000E-01  1.518600000000E-01
     27 F   6 C     1.887900000000E-01  3.546000000000E-02 -1.518600000000E-01
     28 F   6 C    -1.887900000000E-01 -3.546000000000E-02 -1.518600000000E-01
     29 T   6 C    -2.424400000000E-01  1.232900000000E-01  9.962000000000E-02
     30 F   6 C     2.424400000000E-01 -1.232900000000E-01  9.962000000000E-02
     31 F   6 C     1.232900000000E-01  2.424400000000E-01 -9.962000000000E-02
     32 F   6 C    -1.232900000000E-01 -2.424400000000E-01 -9.962000000000E-02
     33 T   6 C     8.199000000000E-02 -3.199700000000E-01  1.661400000000E-01
     34 F   6 C    -8.199000000000E-02  3.199700000000E-01  1.661400000000E-01
     35 F   6 C    -3.199700000000E-01 -8.199000000000E-02 -1.661400000000E-01
     36 F   6 C     3.199700000000E-01  8.199000000000E-02 -1.661400000000E-01
     37 T   7 N    -2.870000000000E-02 -3.238200000000E-01 -3.181300000000E-01
     38 F   7 N     2.870000000000E-02  3.238200000000E-01 -3.181300000000E-01
     39 F   7 N    -3.238200000000E-01  2.870000000000E-02  3.181300000000E-01
     40 F   7 N     3.238200000000E-01 -2.870000000000E-02  3.181300000000E-01
     41 T   7 N     3.417700000000E-01  2.232100000000E-01  1.743200000000E-01
     42 F   7 N    -3.417700000000E-01 -2.232100000000E-01  1.743200000000E-01
     43 F   7 N     2.232100000000E-01 -3.417700000000E-01 -1.743200000000E-01
     44 F   7 N    -2.232100000000E-01  3.417700000000E-01 -1.743200000000E-01
     45 T   7 N     4.699700000000E-01  3.482600000000E-01  8.705000000000E-02
     46 F   7 N    -4.699700000000E-01 -3.482600000000E-01  8.705000000000E-02
     47 F   7 N     3.482600000000E-01 -4.699700000000E-01 -8.705000000000E-02
     48 F   7 N    -3.482600000000E-01  4.699700000000E-01 -8.705000000000E-02
     49 T   7 N     3.404000000000E-01  3.265100000000E-01  1.178600000000E-01
     50 F   7 N    -3.404000000000E-01 -3.265100000000E-01  1.178600000000E-01
     51 F   7 N     3.265100000000E-01 -3.404000000000E-01 -1.178600000000E-01
     52 F   7 N    -3.265100000000E-01  3.404000000000E-01 -1.178600000000E-01
     53 T   7 N    -1.155600000000E-01  9.316000000000E-02  1.162900000000E-01
     54 F   7 N     1.155600000000E-01 -9.316000000000E-02  1.162900000000E-01
     55 F   7 N     9.316000000000E-02  1.155600000000E-01 -1.162900000000E-01
     56 F   7 N    -9.316000000000E-02 -1.155600000000E-01 -1.162900000000E-01
     57 T  17 CL   -3.366200000000E-01  7.350000000000E-03  3.714000000000E-02
     58 F  17 CL    3.366200000000E-01 -7.350000000000E-03  3.714000000000E-02
     59 F  17 CL    7.350000000000E-03  3.366200000000E-01 -3.714000000000E-02
     60 F  17 CL   -7.350000000000E-03 -3.366200000000E-01 -3.714000000000E-02
     61 T  30 ZN   -5.000000000000E-01 -4.722714139150E-17  2.500000000000E-01
     62 T  30 ZN    5.000000000000E-01  5.000000000000E-01  4.440892098501E-16

 T = ATOM BELONGING TO THE ASYMMETRIC UNIT

 ****    4 SYMMOPS - TRANSLATORS IN FRACTIONAL UNITS
 **** MATRICES AND TRANSLATORS IN THE CRYSTALLOGRAPHIC REFERENCE FRAME
   V INV                    ROTATION MATRICES                   TRANSLATORS
   1   1  1.00  0.00  0.00  0.00  1.00  0.00  0.00  0.00  1.00  0.00  0.00  0.00
   2   2  0.00  1.00 -1.00  1.00  0.00 -1.00  0.00  0.00 -1.00  0.00  0.00  0.00
   3   4 -0.00 -1.00  0.00 -0.00 -1.00  1.00  1.00 -1.00  0.00  0.00  0.00  0.00
   4   3 -1.00 -0.00  1.00 -1.00 -0.00  0.00 -1.00  1.00  0.00  0.00  0.00  0.00

 DIRECT LATTICE VECTORS CARTESIAN COMPONENTS (ANGSTROM)
          X                    Y                    Z
  -0.497599222355E+01   0.497599222355E+01   0.729253889735E+01
   0.497599222355E+01  -0.497599222355E+01   0.729253889735E+01
   0.497599222355E+01   0.497599222355E+01  -0.729253889735E+01


 CARTESIAN COORDINATES - PRIMITIVE CELL
 *******************************************************************************
 *      ATOM          X(ANGSTROM)         Y(ANGSTROM)         Z(ANGSTROM)
 *******************************************************************************
    1     1 H     2.409574474332E+00 -5.045656114680E-01 -4.875062252878E+00
    2     1 H    -2.409574474332E+00  5.045656114680E-01 -4.875062252878E+00
    3     1 H    -5.045656114680E-01 -2.409574474332E+00  4.875062252878E+00
    4     1 H     5.045656114680E-01  2.409574474332E+00  4.875062252878E+00
    5     1 H    -1.100689479849E-01  3.956709976478E+00  2.729889010834E+00
    6     1 H     1.100689479849E-01 -3.956709976478E+00  2.729889010834E+00
    7     1 H     3.956709976478E+00  1.100689479849E-01 -2.729889010834E+00
    8     1 H    -3.956709976478E+00 -1.100689479849E-01 -2.729889010834E+00
    9     1 H     6.861893276275E-01  1.584554963667E+00  2.400995506564E+00
   10     1 H    -6.861893276275E-01 -1.584554963667E+00  2.400995506564E+00
   11     1 H     1.584554963667E+00 -6.861893276275E-01 -2.400995506564E+00
   12     1 H    -1.584554963667E+00  6.861893276275E-01 -2.400995506564E+00
   13     6 C    -3.028488387097E+00  2.443311701608E+00  1.804611675538E+00
   14     6 C     3.028488387097E+00 -2.443311701608E+00  1.804611675538E+00
   15     6 C     2.443311701608E+00  3.028488387097E+00 -1.804611675538E+00
   16     6 C    -2.443311701608E+00 -3.028488387097E+00 -1.804611675538E+00
   17     6 C    -4.487648346731E+00  2.546911859702E+00  1.867181659277E+00
   18     6 C     4.487648346731E+00 -2.546911859702E+00  1.867181659277E+00
   19     6 C     2.546911859702E+00  4.487648346731E+00 -1.867181659277E+00
   20     6 C    -2.546911859702E+00 -4.487648346731E+00 -1.867181659277E+00
   21     6 C    -2.169035010245E+00  3.469659857637E+00  2.231225201033E+00
   22     6 C     2.169035010245E+00 -3.469659857637E+00  2.231225201033E+00
   23     6 C     3.469659857637E+00  2.169035010245E+00 -2.231225201033E+00
   24     6 C    -3.469659857637E+00 -2.169035010245E+00 -2.231225201033E+00
   25     6 C    -3.528973684942E-01  1.878835143768E+00  2.214889913903E+00
   26     6 C     3.528973684942E-01 -1.878835143768E+00  2.214889913903E+00
   27     6 C     1.878835143768E+00  3.528973684942E-01 -2.214889913903E+00
   28     6 C    -1.878835143768E+00 -3.528973684942E-01 -2.214889913903E+00
   29     6 C    -2.412759109355E+00  1.226980162483E+00  1.452965449908E+00
   30     6 C     2.412759109355E+00 -1.226980162483E+00  1.452965449908E+00
   31     6 C     1.226980162483E+00  2.412759109355E+00 -1.452965449908E+00
   32     6 C    -1.226980162483E+00 -2.412759109355E+00 -1.452965449908E+00
   33     6 C     8.159632048177E-01 -3.184336463539E+00  2.423164824811E+00
   34     6 C    -8.159632048177E-01  3.184336463539E+00  2.423164824811E+00
   35     6 C    -3.184336463539E+00 -8.159632048177E-01 -2.423164824811E+00
   36     6 C     3.184336463539E+00  8.159632048177E-01 -2.423164824811E+00
   37     7 N    -2.856219536318E-01 -3.222651603660E+00 -4.639950798828E+00
   38     7 N     2.856219536318E-01  3.222651603660E+00 -4.639950798828E+00
   39     7 N    -3.222651603660E+00  2.856219536318E-01  4.639950798828E+00
   40     7 N     3.222651603660E+00 -2.856219536318E-01  4.639950798828E+00
   41     7 N     3.401289724485E+00  2.221382448437E+00  2.542470761172E+00
   42     7 N    -3.401289724485E+00 -2.221382448437E+00  2.542470761172E+00
   43     7 N     2.221382448437E+00 -3.401289724485E+00 -2.542470761172E+00
   44     7 N    -2.221382448437E+00  3.401289724485E+00 -2.542470761172E+00
   45     7 N     4.677134130604E+00  3.465878103547E+00  1.269631022029E+00
   46     7 N    -4.677134130604E+00 -3.465878103547E+00  1.269631022029E+00
   47     7 N     3.465878103547E+00 -4.677134130604E+00 -1.269631022029E+00
   48     7 N    -3.465878103547E+00  4.677134130604E+00 -1.269631022029E+00
   49     7 N     3.387655505793E+00  3.249422441823E+00  1.718997268883E+00
   50     7 N    -3.387655505793E+00 -3.249422441823E+00  1.718997268883E+00
   51     7 N     3.249422441823E+00 -3.387655505793E+00 -1.718997268883E+00
   52     7 N    -3.249422441823E+00  3.387655505793E+00 -1.718997268883E+00
   53     7 N    -1.150051322707E+00  9.271268710918E-01  1.696098696746E+00
   54     7 N     1.150051322707E+00 -9.271268710918E-01  1.696098696746E+00
   55     7 N     9.271268710918E-01  1.150051322707E+00 -1.696098696746E+00
   56     7 N    -9.271268710918E-01 -1.150051322707E+00 -1.696098696746E+00
   57    17 CL   -3.350037004583E+00  7.314708568619E-02  5.416897892952E-01
   58    17 CL    3.350037004583E+00 -7.314708568619E-02  5.416897892952E-01
   59    17 CL    7.314708568619E-02  3.350037004583E+00 -5.416897892952E-01
   60    17 CL   -7.314708568619E-02 -3.350037004583E+00 -5.416897892952E-01
   61    30 ZN    4.975992223550E+00 -4.700037766092E-16 -1.093880834603E+01
   62    30 ZN   -4.975992223550E+00 -4.975992223550E+00  1.458507779470E+01

 *******************************************************************************
 STARTING BASIS SET HANDLING 
 *******************************************************************************

 Loading internal basis set: POB-DZVPP           

 Please cite in your publication:
 Peintinger, M. F., Oliveira, D. V. and Bredow, T. (2013), Generally applicable 
 solid-state Gaussian basis sets, in preparation                                
                                                                                
                    

 *******************************************************************************
 LOCAL ATOMIC FUNCTIONS BASIS SET
 *******************************************************************************
   ATOM   X(AU)   Y(AU)   Z(AU)  N. TYPE  EXPONENT  S COEF   P COEF   D/F/G COEF
 *******************************************************************************
   1 H    4.553  -0.953  -9.213
                                  1 S  
                                         2.263E+01 1.441E-02 0.000E+00 0.000E+00
                                         3.236E+00 1.072E-01 0.000E+00 0.000E+00
                                         7.304E-01 3.846E-01 0.000E+00 0.000E+00
                                  2 S  
                                         1.417E-01 1.000E+00 0.000E+00 0.000E+00
                           3-     5 P  
                                         3.944E-01 0.000E+00 1.000E+00 0.000E+00
                           6-     8 P  
                                         1.006E-01 0.000E+00 1.000E+00 0.000E+00
   2 H   -4.553   0.953  -9.213
   3 H   -0.953  -4.553   9.213
   4 H    0.953   4.553   9.213
   5 H   -0.208   7.477   5.159
   6 H    0.208  -7.477   5.159
   7 H    7.477   0.208  -5.159
   8 H   -7.477  -0.208  -5.159
   9 H    1.297   2.994   4.537
  10 H   -1.297  -2.994   4.537
  11 H    2.994  -1.297  -4.537
  12 H   -2.994   1.297  -4.537
  13 C   -5.723   4.617   3.410
                                 97 S  
                                         1.238E+03 5.457E-03 0.000E+00 0.000E+00
                                         1.863E+02 4.064E-02 0.000E+00 0.000E+00
                                         4.225E+01 1.803E-01 0.000E+00 0.000E+00
                                         1.168E+01 4.632E-01 0.000E+00 0.000E+00
                                         3.593E+00 4.409E-01 0.000E+00 0.000E+00
                                 98 S  
                                         5.281E+00 1.000E+00 0.000E+00 0.000E+00
                                 99 S  
                                         4.447E-01 1.000E+00 0.000E+00 0.000E+00
                         100-   102 P  
                                         9.468E+00 0.000E+00 3.839E-02 0.000E+00
                                         2.010E+00 0.000E+00 2.112E-01 0.000E+00
                                         5.477E-01 0.000E+00 5.133E-01 0.000E+00
                         103-   105 P  
                                         1.604E-01 0.000E+00 1.000E+00 0.000E+00
                         106-   110 D  
                                         6.070E-01 0.000E+00 0.000E+00 1.000E+00
                         111-   115 D  
                                         2.939E-01 0.000E+00 0.000E+00 1.000E+00
  14 C    5.723  -4.617   3.410
  15 C    4.617   5.723  -3.410
  16 C   -4.617  -5.723  -3.410
  17 C   -8.480   4.813   3.528
  18 C    8.480  -4.813   3.528
  19 C    4.813   8.480  -3.528
  20 C   -4.813  -8.480  -3.528
  21 C   -4.099   6.557   4.216
  22 C    4.099  -6.557   4.216
  23 C    6.557   4.099  -4.216
  24 C   -6.557  -4.099  -4.216
  25 C   -0.667   3.550   4.186
  26 C    0.667  -3.550   4.186
  27 C    3.550   0.667  -4.186
  28 C   -3.550  -0.667  -4.186
  29 C   -4.559   2.319   2.746
  30 C    4.559  -2.319   2.746
  31 C    2.319   4.559  -2.746
  32 C   -2.319  -4.559  -2.746
  33 C    1.542  -6.018   4.579
  34 C   -1.542   6.018   4.579
  35 C   -6.018  -1.542  -4.579
  36 C    6.018   1.542  -4.579
  37 N   -0.540  -6.090  -8.768
                                553 S  
                                         1.713E+03-5.393E-03 0.000E+00 0.000E+00
                                         2.576E+02-4.022E-02 0.000E+00 0.000E+00
                                         5.846E+01-1.793E-01 0.000E+00 0.000E+00
                                         1.620E+01-4.638E-01 0.000E+00 0.000E+00
                                         5.005E+00-4.417E-01 0.000E+00 0.000E+00
                                554 S  
                                         6.217E-01 1.000E+00 0.000E+00 0.000E+00
                                555 S  
                                         2.921E-01 1.000E+00 0.000E+00 0.000E+00
                         556-   558 P  
                                         1.357E+01 0.000E+00-4.007E-02 0.000E+00
                                         2.926E+00 0.000E+00-2.181E-01 0.000E+00
                                         7.993E-01 0.000E+00-5.129E-01 0.000E+00
                         559-   561 P  
                                         2.244E-01 0.000E+00 1.000E+00 0.000E+00
                         562-   566 D  
                                         3.118E-01 0.000E+00 0.000E+00 1.000E+00
  38 N    0.540   6.090  -8.768
  39 N   -6.090   0.540   8.768
  40 N    6.090  -0.540   8.768
  41 N    6.428   4.198   4.805
  42 N   -6.428  -4.198   4.805
  43 N    4.198  -6.428  -4.805
  44 N   -4.198   6.428  -4.805
  45 N    8.839   6.550   2.399
  46 N   -8.839  -6.550   2.399
  47 N    6.550  -8.839  -2.399
  48 N   -6.550   8.839  -2.399
  49 N    6.402   6.141   3.248
  50 N   -6.402  -6.141   3.248
  51 N    6.141  -6.402  -3.248
  52 N   -6.141   6.402  -3.248
  53 N   -2.173   1.752   3.205
  54 N    2.173  -1.752   3.205
  55 N    1.752   2.173  -3.205
  56 N   -1.752  -2.173  -3.205
  57 CL  -6.331   0.138   1.024
                                833 S  
                                         1.045E+04 1.971E-03 0.000E+00 0.000E+00
                                         1.572E+03 1.475E-02 0.000E+00 0.000E+00
                                         3.571E+02 6.668E-02 0.000E+00 0.000E+00
                                         1.003E+02 1.723E-01 0.000E+00 0.000E+00
                                         3.081E+01 1.588E-01 0.000E+00 0.000E+00
                                834 S  
                                         5.192E+01-1.001E-01 0.000E+00 0.000E+00
                                         5.705E+00 6.084E-01 0.000E+00 0.000E+00
                                         2.351E+00 5.435E-01 0.000E+00 0.000E+00
                                835 S  
                                         4.886E-01 1.000E+00 0.000E+00 0.000E+00
                                836 S  
                                         1.984E-01 1.000E+00 0.000E+00 0.000E+00
                         837-   839 P  
                                         3.077E+02 0.000E+00-8.780E-03 0.000E+00
                                         7.210E+01 0.000E+00-6.356E-02 0.000E+00
                                         2.253E+01 0.000E+00-2.402E-01 0.000E+00
                                         7.899E+00 0.000E+00-4.780E-01 0.000E+00
                                         2.877E+00 0.000E+00-3.852E-01 0.000E+00
                         840-   842 P  
                                         9.483E-01 0.000E+00 1.000E+00 0.000E+00
                         843-   845 P  
                                         2.521E-01 0.000E+00 1.000E+00 0.000E+00
                         846-   850 D  
                                         9.722E-01 0.000E+00 0.000E+00 1.000E+00
                         851-   855 D  
                                         2.060E-01 0.000E+00 0.000E+00 1.000E+00
  58 CL   6.331  -0.138   1.024
  59 CL   0.138   6.331  -1.024
  60 CL  -0.138  -6.331  -1.024
  61 ZN   9.403  -0.000 -20.671
                                925 S  
                                         8.200E+04 1.421E-03 0.000E+00 0.000E+00
                                         1.231E+04 1.089E-02 0.000E+00 0.000E+00
                                         2.801E+03 5.406E-02 0.000E+00 0.000E+00
                                         7.910E+02 1.885E-01 0.000E+00 0.000E+00
                                         2.576E+02 3.835E-01 0.000E+00 0.000E+00
                                         8.881E+01 2.972E-01 0.000E+00 0.000E+00
                                926 S  
                                         1.719E+02-1.105E-01 0.000E+00 0.000E+00
                                         2.030E+01 6.461E-01 0.000E+00 0.000E+00
                                         8.346E+00 4.422E-01 0.000E+00 0.000E+00
                                927 S  
                                         1.485E+01-2.271E-01 0.000E+00 0.000E+00
                                         2.450E+00 7.243E-01 0.000E+00 0.000E+00
                                         9.985E-01 4.484E-01 0.000E+00 0.000E+00
                                928 S  
                                         1.493E+00 1.000E+00 0.000E+00 0.000E+00
                                929 S  
                                         1.830E-01 1.000E+00 0.000E+00 0.000E+00
                         930-   932 P  
                                         1.072E+03 0.000E+00 9.277E-03 0.000E+00
                                         2.527E+02 0.000E+00 6.954E-02 0.000E+00
                                         8.010E+01 0.000E+00 2.716E-01 0.000E+00
                                         2.890E+01 0.000E+00 5.340E-01 0.000E+00
                                         1.077E+01 0.000E+00 3.450E-01 0.000E+00
                         933-   935 P  
                                         5.645E+00 0.000E+00 3.413E-01 0.000E+00
                                         2.168E+00 0.000E+00 5.639E-01 0.000E+00
                                         8.054E-01 0.000E+00 2.368E-01 0.000E+00
                         936-   938 P  
                                         2.721E-01 0.000E+00 1.000E+00 0.000E+00
                         939-   943 D  
                                         5.609E+01 0.000E+00 0.000E+00 2.959E-02
                                         1.575E+01 0.000E+00 0.000E+00 1.587E-01
                                         5.312E+00 0.000E+00 0.000E+00 3.798E-01
                                         1.774E+00 0.000E+00 0.000E+00 4.690E-01
                         944-   948 D  
                                         5.073E-01 0.000E+00 0.000E+00 1.000E+00
                         949-   955 F  
                                         2.814E+00 0.000E+00 0.000E+00 1.000E+00
                         956-   962 F  
                                         1.300E+00 0.000E+00 0.000E+00 1.000E+00
  62 ZN  -9.403  -9.403  27.562

 *******************************************************************************
 FINISHED BASIS SET HANDLING 
 *******************************************************************************

 INFORMATION **** SET_MPP **** PCRYSTAL CALCULATION
 INFORMATION **** READM2 **** NEW DEFAULT: FOCK/KS MATRIX MIXING SET TO 30 %
 INFORMATION **** READM2 **** NEW DEFAULT: FULL DIRECT SCF MODE
 INFORMATION **** READM2 **** NEW DEFAULT: COULOMB BIPOLAR BUFFER SET TO 32 Mb
 INFORMATION **** READM2 **** NEW DEFAULT: EXCHANGE BIPOLAR BUFFER SET TO 32 Mb

 *******************************************************************************
 NEW DEFAULT: DFT INTEGRATION GRID INCREASED TO XLGRID
 NEW DEFAULT: DIIS ACCELERATOR ACTIVE
 USE KEYWORD NODIIS TO TURN IT OFF
 *******************************************************************************

 INFORMATION **** DFTD3_INPUT **** PERFORM DISPERSION CORRECTION DFT-D3(BJ) IN THE BECKE-JOHNSON DAMPING SCHEME

 PLEASE CITE:
 (1) DFT-D3 Reference
  S. Grimme, J. Antony, S. Ehrlich, and H. Krieg, J. Chem. Phys. 132 (2010), 154104
 (2) BJ-Damping Reference
  S. Grimme, S. Ehrlich, and L. Goerigk, J. Comput. Chem. 32 (2011), 1456-1465
 (3) General DFT-D Review
  S. Grimme, A. Hansen, J. G. Brandenburg, and C. Bannwarth,
  Chem. Rev. 116 (2016), 5105-5154

 INFORMATION **** TOLINTEG **** COULOMB AND EXCHANGE SERIES TOLERANCES MODIFIED
 INFORMATION **** BIPOSIZE **** COULOMB BIPOLAR BUFFER SET TO   100000000
 INFORMATION **** MAXCYCLE **** MAX NUMBER OF SCF CYCLES SET TO          50
 *******************************************************************************
 N. OF ATOMS PER CELL        62  COULOMB OVERLAP TOL         (T1) 10**  -12
 NUMBER OF SHELLS           396  COULOMB PENETRATION TOL     (T2) 10**  -12
 NUMBER OF AO              1000  EXCHANGE OVERLAP TOL        (T3) 10**   20
 N. OF ELECTRONS PER CELL   424  EXCHANGE PSEUDO OVP (F(G))  (T4) 10**   20
 CORE ELECTRONS PER CELL    164  EXCHANGE PSEUDO OVP (P(G))  (T5) 10**   20
 N. OF SYMMETRY OPERATORS     4  POLE ORDER IN MONO ZONE                  4
 *******************************************************************************
 TYPE OF CALCULATION :  RESTRICTED CLOSED SHELL
 KOHN-SHAM HAMILTONIAN

 (EXCHANGE)[CORRELATION] FUNCTIONAL:(PERDEW-BURKE-ERNZERHOF)[PERDEW-BURKE-ERNZERHOF]


 CAPPA:IS1  3;IS2  3;IS3  3; K PTS MONK NET   6; SYMMOPS:K SPACE   8;G SPACE   4

 *******************************************************************************
 MAX NUMBER OF SCF CYCLES      50  CONVERGENCE ON DELTAP        10**-16
 WEIGHT OF F(I) IN F(I+1)      30% CONVERGENCE ON ENERGY        10**- 6
 SHRINK. FACT.(MONKH.)    3  3  3  NUMBER OF K POINTS IN THE IBZ      6
 SHRINKING FACTOR(GILAT NET)    3  NUMBER OF K POINTS(GILAT NET)      6
 *******************************************************************************
 *** K POINTS COORDINATES (OBLIQUE COORDINATES IN UNITS OF IS =  3)
   1-R(  0  0  0)   2-C(  1  0  0)   3-C(  1  1  0)   4-C(  2  1  0)
   5-C(  2  1  1)   6-C(  2  2  1)

 DIRECT LATTICE VECTORS COMPON. (A.U.)     RECIP. LATTICE VECTORS COMPON. (A.U.) 
        X            Y            Z              X            Y            Z
   -9.4032625    9.4032625   13.7809013      0.0000000    0.3340960    0.2279671
    9.4032625   -9.4032625   13.7809013      0.3340960    0.0000000    0.2279671
    9.4032625    9.4032625  -13.7809013      0.3340960    0.3340960    0.0000000

 DISK SPACE FOR EIGENVECTORS (FTN 10)    11000000 REALS

 SYMMETRY ADAPTION OF THE BLOCH FUNCTIONS ENABLED
 TTTTTTTTTTTTTTTTTTTTTTTTTTTTTT gordsh1     TELAPSE        4.23 TCPU        0.08

 MATRIX SIZE: P(G) 1866180, F(G)  933878, P(G) IRR  235913, F(G) IRR  235913
 MAX G-VECTOR INDEX FOR 1- AND 2-ELECTRON INTEGRALS 201

 TTTTTTTTTTTTTTTTTTTTTTTTTTTTTT INPUT       TELAPSE        5.62 TCPU        1.46

 NEIGHBORS OF THE NON-EQUIVALENT ATOMS

 N = NUMBER OF NEIGHBORS AT DISTANCE R
    ATOM  N     R/ANG      R/AU   NEIGHBORS (ATOM LABELS AND CELL INDICES)
   1 H    1     1.0937     2.0668   21 C   -1 0 0
   1 H    1     2.1685     4.0979   13 C   -1 0 0
   1 H    1     2.1727     4.1059   34 C   -1 0 0
   1 H    1     2.4780     4.6827   50 N    0 0 1
   1 H    1     2.5291     4.7792    5 H   -1 0 0
   1 H    1     2.6143     4.9403   11 H    0 0 0

   5 H    1     1.0904     2.0605   34 C    0 0 0
   5 H    1     2.0504     3.8747    6 H    1 0 1
   5 H    1     2.1545     4.0714   25 C    0 0 0
   5 H    1     2.1738     4.1078   21 C    0 0 0
   5 H    2     2.3369     4.4161    7 H    1 0 0    8 H    1 1 1
   5 H    1     2.5238     4.7692    9 H    0 0 0

   9 H    1     1.0959     2.0709   25 C    0 0 0
   9 H    1     2.0739     3.9190   53 N    0 0 0
   9 H    1     2.1946     4.1472   34 C    0 0 0
   9 H    1     2.5238     4.7692    5 H    0 0 0
   9 H    1     2.6143     4.9403    4 H    0 0 0
   9 H    1     2.6496     5.0071   54 N    0 0 0

  13 C    1     1.4050     2.6551   21 C    0 0 0
  13 C    1     1.4079     2.6606   29 C    0 0 0
  13 C    1     1.4642     2.7669   17 C    0 0 0
  13 C    1     2.1685     4.0979    1 H    1 0 0
  13 C    1     2.4139     4.5616   34 C    0 0 0
  13 C    1     2.4164     4.5664   53 N    0 0 0

  17 C    1     1.3495     2.5503   45 N    0-1-1
  17 C    1     1.3585     2.5673   37 N    1 0 0
  17 C    1     1.4642     2.7669   13 C    0 0 0
  17 C    1     2.1950     4.1480   41 N    0-1-1
  17 C    1     2.1973     4.1523   49 N    0-1-1
  17 C    1     2.4938     4.7126   29 C    0 0 0

  21 C    1     1.0937     2.0668    1 H    1 0 0
  21 C    1     1.3961     2.6382   34 C    0 0 0
  21 C    1     1.4050     2.6551   13 C    0 0 0
  21 C    1     2.1738     4.1078    5 H    0 0 0
  21 C    1     2.3864     4.5096   29 C    0 0 0
  21 C    1     2.4144     4.5626   25 C    0 0 0

  25 C    1     1.0959     2.0709    9 H    0 0 0
  25 C    1     1.3455     2.5426   53 N    0 0 0
  25 C    1     1.4008     2.6471   34 C    0 0 0
  25 C    1     2.1545     4.0714    5 H    0 0 0
  25 C    1     2.2910     4.3293   29 C    0 0 0
  25 C    1     2.4144     4.5626   21 C    0 0 0

  29 C    1     1.3204     2.4952   53 N    0 0 0
  29 C    1     1.4079     2.6606   13 C    0 0 0
  29 C    1     1.7436     3.2950   57 CL   0 0 0
  29 C    1     2.2910     4.3293   25 C    0 0 0
  29 C    1     2.3864     4.5096   21 C    0 0 0
  29 C    1     2.4938     4.7126   17 C    0 0 0

  33 C    1     1.0904     2.0605    6 H    0 0 0
  33 C    1     1.3961     2.6382   22 C    0 0 0
  33 C    1     1.4008     2.6471   26 C    0 0 0
  33 C    1     2.1727     4.1059    2 H    0 1 0
  33 C    1     2.1946     4.1472   10 H    0 0 0
  33 C    1     2.3948     4.5256   54 N    0 0 0

  37 N    1     1.3585     2.5673   17 C   -1 0 0
  37 N    1     1.3758     2.5999   41 N   -1-1-1
  37 N    1     2.0355     3.8465   61 ZN   0 0-1
  37 N    1     2.1925     4.1432   49 N   -1-1-1
  37 N    1     2.2013     4.1598   45 N   -1-1-1
  37 N    1     2.4864     4.6985   13 C   -1 0 0

  41 N    1     1.3173     2.4893   49 N    0 0 0
  41 N    1     1.3758     2.5999   37 N    1 1 1
  41 N    1     2.1901     4.1387   45 N    0 0 0
  41 N    1     2.1950     4.1480   17 C    0 1 1
  41 N    1     2.7924     5.2768    9 H    0 0 0
  41 N    1     2.9381     5.5523   61 ZN   1 1 0

  45 N    1     1.3495     2.5503   17 C    0 1 1
  45 N    1     1.3826     2.6127   49 N    0 0 0
  45 N    1     1.9954     3.7708   62 ZN   0 0 2
  45 N    1     2.1901     4.1387   41 N    0 0 0
  45 N    1     2.2013     4.1598   37 N    1 1 1
  45 N    1     2.5255     4.7724   13 C    0 1 1

  49 N    1     1.3173     2.4893   41 N    0 0 0
  49 N    1     1.3826     2.6127   45 N    0 0 0
  49 N    1     2.1925     4.1432   37 N    1 1 1
  49 N    1     2.1973     4.1523   17 C    0 1 1
  49 N    1     2.4780     4.6827    2 H    1 1 1
  49 N    1     2.9084     5.4961   62 ZN   0 0 2

  53 N    1     1.3204     2.4952   29 C    0 0 0
  53 N    1     1.3455     2.5426   25 C    0 0 0
  53 N    1     2.0739     3.9190    9 H    0 0 0
  53 N    1     2.3948     4.5256   34 C    0 0 0
  53 N    1     2.4164     4.5664   13 C    0 0 0
  53 N    1     2.6271     4.9646   57 CL   0 0 0

  57 CL   1     1.7436     3.2950   29 C    0 0 0
  57 CL   1     2.6271     4.9646   53 N    0 0 0
  57 CL   1     2.7048     5.1114   13 C    0 0 0
  57 CL   1     3.0283     5.7227   17 C    0 0 0
  57 CL   1     3.0448     5.7538   42 N    0 0 0
  57 CL   1     3.0965     5.8516   38 N    0 0-1

  61 ZN   4     2.0355     3.8465   37 N    0 0 1   38 N   -1 0 0   39 N   -1 0 1
                                    40 N   -1-1 0
  61 ZN   4     2.9381     5.5523   41 N   -1-1 0   42 N   -1 0 1   43 N    0 0 1
                                    44 N   -1 0 0
  61 ZN   4     3.1449     5.9430   17 C   -1 0 1   18 C   -1-1 0   19 C   -1 0 0
                                    20 C    0 0 1
  61 ZN   4     3.5054     6.6242   57 CL  -1 0 1   58 CL  -1-1 0   59 CL  -1 0 0
                                    60 CL   0 0 1
  61 ZN   4     3.5897     6.7836   29 C   -1 0 1   30 C   -1-1 0   31 C   -1 0 0
                                    32 C    0 0 1
  61 ZN   4     3.6269     6.8538   13 C   -1 0 1   14 C   -1-1 0   15 C   -1 0 0
                                    16 C    0 0 1

  62 ZN   4     1.9954     3.7708   45 N    0 0-2   46 N    1 1 0   47 N    1 0-1
                                    48 N    0 1-1
  62 ZN   4     2.9084     5.4961   49 N    0 0-2   50 N    1 1 0   51 N    1 0-1
                                    52 N    0 1-1
  62 ZN   4     3.1025     5.8628   17 C    0 1-1   18 C    1 0-1   19 C    0 0-2
                                    20 C    1 1 0
  62 ZN   4     3.4503     6.5202    1 H    1 1-1    2 H    1 1-1    3 H    0 0-1
                                     4 H    0 0-1
  62 ZN   4     3.6693     6.9340   13 C    0 1-1   14 C    1 0-1   15 C    0 0-2
                                    16 C    1 1 0
  62 ZN   4     3.8893     7.3497   21 C    0 1-1   22 C    1 0-1   23 C    0 0-2
                                    24 C    1 1 0


 SYMMETRY ALLOWED INTERNAL DEGREE(S) OF FREEDOM:  45
 TTTTTTTTTTTTTTTTTTTTTTTTTTTTTT SYMM        TELAPSE        5.64 TCPU        1.48
 TTTTTTTTTTTTTTTTTTTTTTTTTTTTTT INT_SCREEN  TELAPSE        5.65 TCPU        1.49
 INFORMATION **** EXCBUF **** EXCH. BIPO BUFFER: WORDS USED =           0

 DFT PARAMETERS

     ATOM       ELECTRONS   NET CHARGE   R(ANGSTROM)
   1   1  H       1.0000      0.0000     1.11000000
  13   6  C       6.0000      0.0000     0.77000000
  37   7  N       7.0000      0.0000     0.74000000
  57  17  CL     17.0000      0.0000     0.99000000
  61  30  ZN     30.0000      0.0000     1.37000000

 SIZE OF GRID=     455831
 TTTTTTTTTTTTTTTTTTTTTTTTTTTTTT MAKE_GRID2  TELAPSE        6.61 TCPU        2.45
 BECKE WEIGHT FUNCTION
 RADSAFE =     2.00
 TOLERANCES - DENSITY:10**- 6; POTENTIAL:10**- 9; GRID WGT:10**-14

 RADIAL INTEGRATION  - INTERVALS (POINTS,UPPER LIMIT):            1( 75,  4.0*R)

 ANGULAR INTEGRATION - INTERVALS (ACCURACY LEVEL [N. POINTS] UPPER LIMIT):
  1(  4[  86]   0.2)  2(  8[ 194]   0.5)  3( 12[ 350]   0.9)  4( 16[ 974]   3.5)
  5( 12[ 350]9999.0)
 TTTTTTTTTTTTTTTTTTTTTTTTTTTTTT INT_CALC    TELAPSE        6.66 TCPU        2.50
 EEEEEEEEEE INT_CALC TERMINATION  DATE 08 12 2023 TIME 22:38:20.8

 *******************************************************************************
 Z:\home\sanoj\Downloads\tmp_p\newconn.mol                                       
 CRYSTAL - SCF - TYPE OF CALCULATION :  RESTRICTED CLOSED SHELL
 *******************************************************************************

 CAPPA:IS1  3;IS2  3;IS3  3; K PTS MONK NET   6; SYMMOPS:K SPACE   8;G SPACE   4

 TTTTTTTTTTTTTTTTTTTTTTTTTTTTTT SDIK        TELAPSE        6.88 TCPU        2.72

 AAAAAAAAAAAAAAAAAAAAAAAAAAAAAAAAAAAAAAAAAAAAAAAAAAAAAAAAAAAAAAAAAAAAAAAAAAAAAAA
         ATOMIC WAVEFUNCTION(S)


 NUCLEAR CHARGE  1.0  SYMMETRY SPECIES            S
 N. ELECTRONS    1.0  NUMBER OF PRIMITIVE GTOS    4
                      NUMBER OF CONTRACTED GTOS   2
                      NUMBER OF CLOSED SHELLS     0
                      OPEN SHELL OCCUPATION       1

  ZNUC SCFIT  TOTAL HF ENERGY   KINETIC ENERGY   VIRIAL THEOREM ACCURACY
   1.0   1   -4.946643675E-01  4.917913167E-01 -2.005842012E+00  9.4E-17

 NUCLEAR CHARGE  6.0  SYMMETRY SPECIES            S    P
 N. ELECTRONS    6.0  NUMBER OF PRIMITIVE GTOS    7    4
                      NUMBER OF CONTRACTED GTOS   3    2
                      NUMBER OF CLOSED SHELLS     2    0
                      OPEN SHELL OCCUPATION       0    2

  ZNUC SCFIT  TOTAL HF ENERGY   KINETIC ENERGY   VIRIAL THEOREM ACCURACY
   6.0   6   -3.750912652E+01  3.905246519E+01 -1.960480378E+00  3.7E-06

 NUCLEAR CHARGE  7.0  SYMMETRY SPECIES            S    P
 N. ELECTRONS    7.0  NUMBER OF PRIMITIVE GTOS    7    4
                      NUMBER OF CONTRACTED GTOS   3    2
                      NUMBER OF CLOSED SHELLS     2    0
                      OPEN SHELL OCCUPATION       0    3

  ZNUC SCFIT  TOTAL HF ENERGY   KINETIC ENERGY   VIRIAL THEOREM ACCURACY
   7.0   9   -5.432196661E+01  5.425066284E+01 -2.001314339E+00  1.2E-06

 NUCLEAR CHARGE 17.0  SYMMETRY SPECIES            S    P
 N. ELECTRONS   17.0  NUMBER OF PRIMITIVE GTOS   10    7
                      NUMBER OF CONTRACTED GTOS   4    3
                      NUMBER OF CLOSED SHELLS     3    1
                      OPEN SHELL OCCUPATION       0    5

  ZNUC SCFIT  TOTAL HF ENERGY   KINETIC ENERGY   VIRIAL THEOREM ACCURACY
  17.0   9   -4.593005957E+02  4.593991532E+02 -1.999785464E+00  2.3E-06

 NUCLEAR CHARGE 30.0  SYMMETRY SPECIES            S    P    D
 N. ELECTRONS   30.0  NUMBER OF PRIMITIVE GTOS   14    9    5
                      NUMBER OF CONTRACTED GTOS   5    3    2
                      NUMBER OF CLOSED SHELLS     4    2    1
                      OPEN SHELL OCCUPATION       0    0    0

  ZNUC SCFIT  TOTAL HF ENERGY   KINETIC ENERGY   VIRIAL THEOREM ACCURACY
  30.0  10   -1.777404290E+03  1.777325716E+03 -2.000044209E+00  2.5E-06

 AAAAAAAAAAAAAAAAAAAAAAAAAAAAAAAAAAAAAAAAAAAAAAAAAAAAAAAAAAAAAAAAAAAAAAAAAAAAAAA

 TOTAL ATOMIC CHARGES:
   1.0000000   1.0000000   1.0000000   1.0000000   1.0000000   1.0000000
   1.0000000   1.0000000   1.0000000   1.0000000   1.0000000   1.0000000
   6.0000000   6.0000000   6.0000000   6.0000000   6.0000000   6.0000000
   6.0000000   6.0000000   6.0000000   6.0000000   6.0000000   6.0000000
   6.0000000   6.0000000   6.0000000   6.0000000   6.0000000   6.0000000
   6.0000000   6.0000000   6.0000000   6.0000000   6.0000000   6.0000000
   7.0000000   7.0000000   7.0000000   7.0000000   7.0000000   7.0000000
   7.0000000   7.0000000   7.0000000   7.0000000   7.0000000   7.0000000
   7.0000000   7.0000000   7.0000000   7.0000000   7.0000000   7.0000000
   7.0000000   7.0000000  17.0000000  17.0000000  17.0000000  17.0000000
  30.0000000  30.0000000
 TTTTTTTTTTTTTTTTTTTTTTTTTTTTTT MOQGAD      TELAPSE       10.45 TCPU        6.28
 TTTTTTTTTTTTTTTTTTTTTTTTTTTTTT SHELLXN     TELAPSE      101.79 TCPU       89.07
 TTTTTTTTTTTTTTTTTTTTTTTTTTTTTT MONMO3      TELAPSE      108.04 TCPU       95.30
 NUMERICALLY INTEGRATED DENSITY    423.9999278265
 TTTTTTTTTTTTTTTTTTTTTTTTTTTTTT NUMDFT      TELAPSE      110.67 TCPU       97.92
 CYC   0 ETOT(AU) -7.413741232912E+03 DETOT -7.41E+03 tst  0.00E+00 PX  1.00E+00
 TTTTTTTTTTTTTTTTTTTTTTTTTTTTTT DIIS        TELAPSE      110.76 TCPU       98.00
 TTTTTTTTTTTTTTTTTTTTTTTTTTTTTT FDIK        TELAPSE      144.83 TCPU      127.21
 INSULATING STATE
 TOP OF VALENCE BANDS -    BAND    212; K    3; EIG -1.2641495E-01 AU
 TOP OF VALENCE BANDS -    BAND    212; K    1; EIG -1.2839677E-01 AU
 BOTTOM OF VIRTUAL BANDS - BAND    213; K    1; EIG -1.0602597E-01 AU
 INDIRECT ENERGY BAND GAP:   0.5548 eV
 TTTTTTTTTTTTTTTTTTTTTTTTTTTTTT PDIG        TELAPSE      145.41 TCPU      127.78
 TOTAL ATOMIC CHARGES:
   1.2513990   1.2513990   1.2513990   1.2513990   1.1830488   1.1830488
   1.1830488   1.1830488   1.2697434   1.2697434   1.2697434   1.2697434
   6.1892183   6.1892183   6.1892183   6.1892183   5.4805431   5.4805431
   5.4805431   5.4805431   6.0629266   6.0629266   6.0629266   6.0629266
   5.6743164   5.6743164   5.6743164   5.6743164   5.0349671   5.0349671
   5.0349671   5.0349671   5.9491595   5.9491595   5.9491595   5.9491595
   7.4058314   7.4058314   7.4058314   7.4058314   7.1763000   7.1763000
   7.1763000   7.1763000   7.3675475   7.3675475   7.3675475   7.3675475
   7.1828220   7.1828220   7.1828220   7.1828220   7.5449320   7.5449320
   7.5449320   7.5449320  17.2852229  17.2852229  17.2852229  17.2852229
  27.8880842  27.8800040
 TTTTTTTTTTTTTTTTTTTTTTTTTTTTTT MOQGAD      TELAPSE      145.46 TCPU      127.84
 TTTTTTTTTTTTTTTTTTTTTTTTTTTTTT SHELLXN     TELAPSE      245.52 TCPU      223.40
 TTTTTTTTTTTTTTTTTTTTTTTTTTTTTT MONMO3      TELAPSE      251.45 TCPU      229.31
 NUMERICALLY INTEGRATED DENSITY    423.9999760474
 TTTTTTTTTTTTTTTTTTTTTTTTTTTTTT NUMDFT      TELAPSE      258.84 TCPU      236.67
 CYC   1 ETOT(AU) -7.408850439561E+03 DETOT  4.89E+00 tst  0.00E+00 PX  1.00E+00
 TTTTTTTTTTTTTTTTTTTTTTTTTTTTTT DIIS        TELAPSE      259.00 TCPU      236.83
 DIIS TEST: 0.11538E+02 AT SCF   CYCLE   1 - MIX   30 %
 TTTTTTTTTTTTTTTTTTTTTTTTTTTTTT FDIK        TELAPSE      272.12 TCPU      245.34
 INSULATING STATE
 TOP OF VALENCE BANDS -    BAND    212; K    1; EIG -1.5274859E-01 AU
 BOTTOM OF VIRTUAL BANDS - BAND    213; K    1; EIG -1.2302391E-01 AU
 DIRECT ENERGY BAND GAP:   0.8088 eV
 TTTTTTTTTTTTTTTTTTTTTTTTTTTTTT PDIG        TELAPSE      272.69 TCPU      245.91
 TOTAL ATOMIC CHARGES:
   1.1959722   1.1959722   1.1959722   1.1959722   1.1319822   1.1319822
   1.1319822   1.1319822   1.2369086   1.2369086   1.2369086   1.2369086
   6.4068409   6.4068409   6.4068409   6.4068409   6.3098310   6.3098310
   6.3098310   6.3098310   6.1688041   6.1688041   6.1688041   6.1688041
   6.0057805   6.0057805   6.0057805   6.0057805   6.2972103   6.2972103
   6.2972103   6.2972103   5.6789349   5.6789349   5.6789349   5.6789349
   6.9745601   6.9745601   6.9745601   6.9745601   6.7986674   6.7986674
   6.7986674   6.7986674   6.9204507   6.9204507   6.9204507   6.9204507
   6.8163331   6.8163331   6.8163331   6.8163331   5.9953005   5.9953005
   5.9953005   5.9953005  17.1980057  17.1980057  17.1980057  17.1980057
  29.7455500  29.7121213
 TTTTTTTTTTTTTTTTTTTTTTTTTTTTTT MOQGAD      TELAPSE      272.74 TCPU      245.96
 TTTTTTTTTTTTTTTTTTTTTTTTTTTTTT SHELLXN     TELAPSE      370.74 TCPU      341.52
 TTTTTTTTTTTTTTTTTTTTTTTTTTTTTT MONMO3      TELAPSE      376.87 TCPU      347.62
 NUMERICALLY INTEGRATED DENSITY    423.9999879545
 TTTTTTTTTTTTTTTTTTTTTTTTTTTTTT NUMDFT      TELAPSE      384.29 TCPU      354.95
 CYC   2 ETOT(AU) -7.407104118072E+03 DETOT  1.75E+00 tst  5.51E-02 PX  7.12E-01
 TTTTTTTTTTTTTTTTTTTTTTTTTTTTTT DIIS        TELAPSE      384.44 TCPU      355.09
 DIIS TEST: 0.22705E+02 AT SCF   CYCLE   2 - DIIS ACTIVE - HISTORY:     2 CYCLES
 TTTTTTTTTTTTTTTTTTTTTTTTTTTTTT FDIK        TELAPSE      399.04 TCPU      365.48
 INSULATING STATE
 TOP OF VALENCE BANDS -    BAND    212; K    5; EIG -2.3138250E-01 AU
 TOP OF VALENCE BANDS -    BAND    212; K    1; EIG -2.3703102E-01 AU
 BOTTOM OF VIRTUAL BANDS - BAND    213; K    1; EIG -1.1821130E-01 AU
 INDIRECT ENERGY BAND GAP:   3.0795 eV
 TTTTTTTTTTTTTTTTTTTTTTTTTTTTTT PDIG        TELAPSE      399.62 TCPU      366.05
 TOTAL ATOMIC CHARGES:
   1.1858618   1.1858618   1.1858618   1.1858618   1.0991745   1.0991745
   1.0991745   1.0991745   1.1677644   1.1677644   1.1677644   1.1677644
   5.9168586   5.9168586   5.9168586   5.9168586   5.7985144   5.7985144
   5.7985144   5.7985144   6.0142256   6.0142256   6.0142256   6.0142256
   6.0880791   6.0880791   6.0880791   6.0880791   5.4837958   5.4837958
   5.4837958   5.4837958   5.9205045   5.9205045   5.9205045   5.9205045
   6.9415896   6.9415896   6.9415896   6.9415896   7.1267061   7.1267061
   7.1267061   7.1267061   6.9801547   6.9801547   6.9801547   6.9801547
   7.1765915   7.1765915   7.1765915   7.1765915   7.3980341   7.3980341
   7.3980341   7.3980341  17.0909467  17.0909467  17.0909467  17.0909467
  29.2013383  29.2434556
 TTTTTTTTTTTTTTTTTTTTTTTTTTTTTT MOQGAD      TELAPSE      399.67 TCPU      366.10
 TTTTTTTTTTTTTTTTTTTTTTTTTTTTTT SHELLXN     TELAPSE      498.73 TCPU      461.71
 TTTTTTTTTTTTTTTTTTTTTTTTTTTTTT MONMO3      TELAPSE      504.52 TCPU      467.49
 NUMERICALLY INTEGRATED DENSITY    423.9999818819
 TTTTTTTTTTTTTTTTTTTTTTTTTTTTTT NUMDFT      TELAPSE      511.96 TCPU      474.90
 CYC   3 ETOT(AU) -7.410198483040E+03 DETOT -3.09E+00 tst  1.36E-02 PX  5.02E-01
 TTTTTTTTTTTTTTTTTTTTTTTTTTTTTT DIIS        TELAPSE      512.11 TCPU      475.05
 DIIS TEST: 0.39758E+01 AT SCF   CYCLE   3 - DIIS ACTIVE - HISTORY:     3 CYCLES
 TTTTTTTTTTTTTTTTTTTTTTTTTTTTTT FDIK        TELAPSE      526.68 TCPU      485.30
 INSULATING STATE
 TOP OF VALENCE BANDS -    BAND    212; K    1; EIG -2.2599516E-01 AU
 BOTTOM OF VIRTUAL BANDS - BAND    213; K    6; EIG -1.1759674E-01 AU
 INDIRECT ENERGY BAND GAP:   2.9497 eV
 BOTTOM OF VIRTUAL BANDS - BAND    213; K    1; EIG -1.1700906E-01 AU
 TTTTTTTTTTTTTTTTTTTTTTTTTTTTTT PDIG        TELAPSE      527.26 TCPU      485.88
 TOTAL ATOMIC CHARGES:
   1.1583157   1.1583157   1.1583157   1.1583157   1.1250366   1.1250366
   1.1250366   1.1250366   1.2161761   1.2161761   1.2161761   1.2161761
   6.3011647   6.3011647   6.3011647   6.3011647   5.7920152   5.7920152
   5.7920152   5.7920152   6.1710855   6.1710855   6.1710855   6.1710855
   5.7655893   5.7655893   5.7655893   5.7655893   5.4752559   5.4752559
   5.4752559   5.4752559   5.9454644   5.9454644   5.9454644   5.9454644
   7.2450307   7.2450307   7.2450307   7.2450307   7.0228590   7.0228590
   7.0228590   7.0228590   7.1747913   7.1747913   7.1747913   7.1747913
   7.0305527   7.0305527   7.0305527   7.0305527   6.9771991   6.9771991
   6.9771991   6.9771991  17.2017888  17.2017888  17.2017888  17.2017888
  28.7903793  28.8003205
 TTTTTTTTTTTTTTTTTTTTTTTTTTTTTT MOQGAD      TELAPSE      527.31 TCPU      485.93
 TTTTTTTTTTTTTTTTTTTTTTTTTTTTTT SHELLXN     TELAPSE      626.71 TCPU      580.88
 TTTTTTTTTTTTTTTTTTTTTTTTTTTTTT MONMO3      TELAPSE      633.18 TCPU      587.32
 NUMERICALLY INTEGRATED DENSITY    423.9999846693
 TTTTTTTTTTTTTTTTTTTTTTTTTTTTTT NUMDFT      TELAPSE      640.63 TCPU      594.75
 CYC   4 ETOT(AU) -7.410646200421E+03 DETOT -4.48E-01 tst  4.41E-03 PX  2.38E-01
 TTTTTTTTTTTTTTTTTTTTTTTTTTTTTT DIIS        TELAPSE      640.79 TCPU      594.91
 DIIS TEST: 0.93575E+00 AT SCF   CYCLE   4 - DIIS ACTIVE - HISTORY:     4 CYCLES
 TTTTTTTTTTTTTTTTTTTTTTTTTTTTTT FDIK        TELAPSE      653.00 TCPU      604.84
 INSULATING STATE
 TOP OF VALENCE BANDS -    BAND    212; K    5; EIG -2.4547742E-01 AU
 TOP OF VALENCE BANDS -    BAND    212; K    1; EIG -2.4735597E-01 AU
 BOTTOM OF VIRTUAL BANDS - BAND    213; K    6; EIG -1.2113622E-01 AU
 INDIRECT ENERGY BAND GAP:   3.3835 eV
 BOTTOM OF VIRTUAL BANDS - BAND    213; K    1; EIG -1.1939384E-01 AU
 TTTTTTTTTTTTTTTTTTTTTTTTTTTTTT PDIG        TELAPSE      653.58 TCPU      605.42
 TOTAL ATOMIC CHARGES:
   1.1714617   1.1714617   1.1714617   1.1714617   1.1149171   1.1149171
   1.1149171   1.1149171   1.2048487   1.2048487   1.2048487   1.2048487
   6.2006481   6.2006481   6.2006481   6.2006481   5.8115799   5.8115799
   5.8115799   5.8115799   6.0919023   6.0919023   6.0919023   6.0919023
   5.8968004   5.8968004   5.8968004   5.8968004   5.5874394   5.5874394
   5.5874394   5.5874394   5.8618377   5.8618377   5.8618377   5.8618377
   7.1162251   7.1162251   7.1162251   7.1162251   7.0549801   7.0549801
   7.0549801   7.0549801   7.1082385   7.1082385   7.1082385   7.1082385
   7.1030800   7.1030800   7.1030800   7.1030800   7.0652047   7.0652047
   7.0652047   7.0652047  17.1884219  17.1884219  17.1884219  17.1884219
  28.8409748  28.8486829
 TTTTTTTTTTTTTTTTTTTTTTTTTTTTTT MOQGAD      TELAPSE      653.63 TCPU      605.47
 TTTTTTTTTTTTTTTTTTTTTTTTTTTTTT SHELLXN     TELAPSE      750.81 TCPU      700.16
 TTTTTTTTTTTTTTTTTTTTTTTTTTTTTT MONMO3      TELAPSE      757.56 TCPU      706.86
 NUMERICALLY INTEGRATED DENSITY    423.9999828276
 TTTTTTTTTTTTTTTTTTTTTTTTTTTTTT NUMDFT      TELAPSE      764.91 TCPU      714.17
 CYC   5 ETOT(AU) -7.410782522277E+03 DETOT -1.36E-01 tst  6.44E-04 PX  1.16E-01
 TTTTTTTTTTTTTTTTTTTTTTTTTTTTTT DIIS        TELAPSE      765.08 TCPU      714.34
 DIIS TEST: 0.89435E-01 AT SCF   CYCLE   5 - DIIS ACTIVE - HISTORY:     5 CYCLES
 TTTTTTTTTTTTTTTTTTTTTTTTTTTTTT FDIK        TELAPSE      776.48 TCPU      723.57
 INSULATING STATE
 TOP OF VALENCE BANDS -    BAND    212; K    1; EIG -2.4253124E-01 AU
 BOTTOM OF VIRTUAL BANDS - BAND    213; K    6; EIG -1.1950253E-01 AU
 INDIRECT ENERGY BAND GAP:   3.3478 eV
 BOTTOM OF VIRTUAL BANDS - BAND    213; K    1; EIG -1.1885323E-01 AU
 TTTTTTTTTTTTTTTTTTTTTTTTTTTTTT PDIG        TELAPSE      777.06 TCPU      724.15
 TOTAL ATOMIC CHARGES:
   1.1714578   1.1714578   1.1714578   1.1714578   1.1102264   1.1102264
   1.1102264   1.1102264   1.2046011   1.2046011   1.2046011   1.2046011
   6.1847863   6.1847863   6.1847863   6.1847863   5.8173628   5.8173628
   5.8173628   5.8173628   6.1325370   6.1325370   6.1325370   6.1325370
   5.8874029   5.8874029   5.8874029   5.8874029   5.5005314   5.5005314
   5.5005314   5.5005314   5.9356589   5.9356589   5.9356589   5.9356589
   7.1435980   7.1435980   7.1435980   7.1435980   7.0468254   7.0468254
   7.0468254   7.0468254   7.1119021   7.1119021   7.1119021   7.1119021
   7.0686398   7.0686398   7.0686398   7.0686398   7.0579924   7.0579924
   7.0579924   7.0579924  17.1853045  17.1853045  17.1853045  17.1853045
  28.8748826  28.8898106
 TTTTTTTTTTTTTTTTTTTTTTTTTTTTTT MOQGAD      TELAPSE      777.11 TCPU      724.20
 TTTTTTTTTTTTTTTTTTTTTTTTTTTTTT SHELLXN     TELAPSE      874.47 TCPU      819.14
 TTTTTTTTTTTTTTTTTTTTTTTTTTTTTT MONMO3      TELAPSE      880.97 TCPU      825.62
 NUMERICALLY INTEGRATED DENSITY    423.9999830382
 TTTTTTTTTTTTTTTTTTTTTTTTTTTTTT NUMDFT      TELAPSE      888.60 TCPU      833.23
 CYC   6 ETOT(AU) -7.410791213829E+03 DETOT -8.69E-03 tst  1.08E-04 PX  2.61E-02
 TTTTTTTTTTTTTTTTTTTTTTTTTTTTTT DIIS        TELAPSE      888.78 TCPU      833.40
 DIIS TEST: 0.33096E-01 AT SCF   CYCLE   6 - DIIS ACTIVE - HISTORY:     6 CYCLES
 TTTTTTTTTTTTTTTTTTTTTTTTTTTTTT FDIK        TELAPSE      897.57 TCPU      842.10
 INSULATING STATE
 TOP OF VALENCE BANDS -    BAND    212; K    5; EIG -2.4213364E-01 AU
 TOP OF VALENCE BANDS -    BAND    212; K    1; EIG -2.4434299E-01 AU
 BOTTOM OF VIRTUAL BANDS - BAND    213; K    6; EIG -1.1962677E-01 AU
 INDIRECT ENERGY BAND GAP:   3.3336 eV
 BOTTOM OF VIRTUAL BANDS - BAND    213; K    1; EIG -1.1854588E-01 AU
 TTTTTTTTTTTTTTTTTTTTTTTTTTTTTT PDIG        TELAPSE      898.15 TCPU      842.68
 TOTAL ATOMIC CHARGES:
   1.1698035   1.1698035   1.1698035   1.1698035   1.1109166   1.1109166
   1.1109166   1.1109166   1.2039231   1.2039231   1.2039231   1.2039231
   6.1945504   6.1945504   6.1945504   6.1945504   5.8214019   5.8214019
   5.8214019   5.8214019   6.1144290   6.1144290   6.1144290   6.1144290
   5.8749400   5.8749400   5.8749400   5.8749400   5.5361419   5.5361419
   5.5361419   5.5361419   5.9030361   5.9030361   5.9030361   5.9030361
   7.1401268   7.1401268   7.1401268   7.1401268   7.0465849   7.0465849
   7.0465849   7.0465849   7.1080913   7.1080913   7.1080913   7.1080913
   7.0766155   7.0766155   7.0766155   7.0766155   7.0836005   7.0836005
   7.0836005   7.0836005  17.1725826  17.1725826  17.1725826  17.1725826
  28.8808642  28.8921594
 TTTTTTTTTTTTTTTTTTTTTTTTTTTTTT MOQGAD      TELAPSE      898.20 TCPU      842.73
 TTTTTTTTTTTTTTTTTTTTTTTTTTTTTT SHELLXN     TELAPSE      995.22 TCPU      937.32
 TTTTTTTTTTTTTTTTTTTTTTTTTTTTTT MONMO3      TELAPSE     1005.75 TCPU      947.82
 NUMERICALLY INTEGRATED DENSITY    423.9999831340
 TTTTTTTTTTTTTTTTTTTTTTTTTTTTTT NUMDFT      TELAPSE     1013.38 TCPU      955.43
 CYC   7 ETOT(AU) -7.410795031095E+03 DETOT -3.82E-03 tst  2.23E-05 PX  1.14E-02
 TTTTTTTTTTTTTTTTTTTTTTTTTTTTTT DIIS        TELAPSE     1013.56 TCPU      955.61
 DIIS TEST: 0.56626E-02 AT SCF   CYCLE   7 - DIIS ACTIVE - HISTORY:     7 CYCLES
 TTTTTTTTTTTTTTTTTTTTTTTTTTTTTT FDIK        TELAPSE     1027.14 TCPU      965.02
 INSULATING STATE
 TOP OF VALENCE BANDS -    BAND    212; K    5; EIG -2.4240847E-01 AU
 TOP OF VALENCE BANDS -    BAND    212; K    1; EIG -2.4267539E-01 AU
 BOTTOM OF VIRTUAL BANDS - BAND    213; K    6; EIG -1.1936981E-01 AU
 INDIRECT ENERGY BAND GAP:   3.3481 eV
 BOTTOM OF VIRTUAL BANDS - BAND    213; K    1; EIG -1.1818089E-01 AU
 TTTTTTTTTTTTTTTTTTTTTTTTTTTTTT PDIG        TELAPSE     1027.72 TCPU      965.59
 TOTAL ATOMIC CHARGES:
   1.1695587   1.1695587   1.1695587   1.1695587   1.1115205   1.1115205
   1.1115205   1.1115205   1.2028786   1.2028786   1.2028786   1.2028786
   6.1868231   6.1868231   6.1868231   6.1868231   5.8145222   5.8145222
   5.8145222   5.8145222   6.1172983   6.1172983   6.1172983   6.1172983
   5.8903335   5.8903335   5.8903335   5.8903335   5.5352407   5.5352407
   5.5352407   5.5352407   5.9102072   5.9102072   5.9102072   5.9102072
   7.1251702   7.1251702   7.1251702   7.1251702   7.0493680   7.0493680
   7.0493680   7.0493680   7.1116952   7.1116952   7.1116952   7.1116952
   7.0887018   7.0887018   7.0887018   7.0887018   7.0622346   7.0622346
   7.0622346   7.0622346  17.1812945  17.1812945  17.1812945  17.1812945
  28.8792405  28.8933712
 TTTTTTTTTTTTTTTTTTTTTTTTTTTTTT MOQGAD      TELAPSE     1027.77 TCPU      965.64
 TTTTTTTTTTTTTTTTTTTTTTTTTTTTTT SHELLXN     TELAPSE     1125.05 TCPU     1060.37
 TTTTTTTTTTTTTTTTTTTTTTTTTTTTTT MONMO3      TELAPSE     1131.56 TCPU     1066.85
 NUMERICALLY INTEGRATED DENSITY    423.9999832269
 TTTTTTTTTTTTTTTTTTTTTTTTTTTTTT NUMDFT      TELAPSE     1138.92 TCPU     1074.19
 CYC   8 ETOT(AU) -7.410795474079E+03 DETOT -4.43E-04 tst  2.77E-06 PX  6.03E-03
 TTTTTTTTTTTTTTTTTTTTTTTTTTTTTT DIIS        TELAPSE     1139.11 TCPU     1074.38
 DIIS TEST: 0.25745E-02 AT SCF   CYCLE   8 - DIIS ACTIVE - HISTORY:     8 CYCLES
 TTTTTTTTTTTTTTTTTTTTTTTTTTTTTT FDIK        TELAPSE     1150.07 TCPU     1083.19
 INSULATING STATE
 TOP OF VALENCE BANDS -    BAND    212; K    5; EIG -2.4274736E-01 AU
 TOP OF VALENCE BANDS -    BAND    212; K    1; EIG -2.4376133E-01 AU
 BOTTOM OF VIRTUAL BANDS - BAND    213; K    6; EIG -1.1964030E-01 AU
 INDIRECT ENERGY BAND GAP:   3.3499 eV
 BOTTOM OF VIRTUAL BANDS - BAND    213; K    1; EIG -1.1854094E-01 AU
 TTTTTTTTTTTTTTTTTTTTTTTTTTTTTT PDIG        TELAPSE     1150.65 TCPU     1083.77
 TOTAL ATOMIC CHARGES:
   1.1692167   1.1692167   1.1692167   1.1692167   1.1113199   1.1113199
   1.1113199   1.1113199   1.2027519   1.2027519   1.2027519   1.2027519
   6.1891018   6.1891018   6.1891018   6.1891018   5.8140809   5.8140809
   5.8140809   5.8140809   6.1155624   6.1155624   6.1155624   6.1155624
   5.8875917   5.8875917   5.8875917   5.8875917   5.5312479   5.5312479
   5.5312479   5.5312479   5.9089479   5.9089479   5.9089479   5.9089479
   7.1399903   7.1399903   7.1399903   7.1399903   7.0522666   7.0522666
   7.0522666   7.0522666   7.1072103   7.1072103   7.1072103   7.1072103
   7.0743472   7.0743472   7.0743472   7.0743472   7.0713967   7.0713967
   7.0713967   7.0713967  17.1816511  17.1816511  17.1816511  17.1816511
  28.8804539  28.8928131
 TTTTTTTTTTTTTTTTTTTTTTTTTTTTTT MOQGAD      TELAPSE     1150.70 TCPU     1083.82
 TTTTTTTTTTTTTTTTTTTTTTTTTTTTTT SHELLXN     TELAPSE     1246.84 TCPU     1178.21
 TTTTTTTTTTTTTTTTTTTTTTTTTTTTTT MONMO3      TELAPSE     1253.71 TCPU     1185.06
 NUMERICALLY INTEGRATED DENSITY    423.9999832195
 TTTTTTTTTTTTTTTTTTTTTTTTTTTTTT NUMDFT      TELAPSE     1261.08 TCPU     1192.41
 CYC   9 ETOT(AU) -7.410795710728E+03 DETOT -2.37E-04 tst  2.54E-06 PX  3.78E-03
 TTTTTTTTTTTTTTTTTTTTTTTTTTTTTT DIIS        TELAPSE     1261.42 TCPU     1192.75
 DIIS TEST: 0.97286E-03 AT SCF   CYCLE   9 - DIIS ACTIVE - HISTORY:     9 CYCLES
 TTTTTTTTTTTTTTTTTTTTTTTTTTTTTT FDIK        TELAPSE     1273.46 TCPU     1202.63
 INSULATING STATE
 TOP OF VALENCE BANDS -    BAND    212; K    5; EIG -2.4260964E-01 AU
 TOP OF VALENCE BANDS -    BAND    212; K    1; EIG -2.4387602E-01 AU
 BOTTOM OF VIRTUAL BANDS - BAND    213; K    6; EIG -1.1963705E-01 AU
 INDIRECT ENERGY BAND GAP:   3.3463 eV
 BOTTOM OF VIRTUAL BANDS - BAND    213; K    1; EIG -1.1855622E-01 AU
 TTTTTTTTTTTTTTTTTTTTTTTTTTTTTT PDIG        TELAPSE     1274.04 TCPU     1203.20
 TOTAL ATOMIC CHARGES:
   1.1690619   1.1690619   1.1690619   1.1690619   1.1112143   1.1112143
   1.1112143   1.1112143   1.2030597   1.2030597   1.2030597   1.2030597
   6.1906511   6.1906511   6.1906511   6.1906511   5.8160086   5.8160086
   5.8160086   5.8160086   6.1171253   6.1171253   6.1171253   6.1171253
   5.8842836   5.8842836   5.8842836   5.8842836   5.5300833   5.5300833
   5.5300833   5.5300833   5.9089861   5.9089861   5.9089861   5.9089861
   7.1332942   7.1332942   7.1332942   7.1332942   7.0461383   7.0461383
   7.0461383   7.0461383   7.1119108   7.1119108   7.1119108   7.1119108
   7.0813387   7.0813387   7.0813387   7.0813387   7.0738774   7.0738774
   7.0738774   7.0738774  17.1796716  17.1796716  17.1796716  17.1796716
  28.8803749  28.8928061
 TTTTTTTTTTTTTTTTTTTTTTTTTTTTTT MOQGAD      TELAPSE     1274.09 TCPU     1203.25
 TTTTTTTTTTTTTTTTTTTTTTTTTTTTTT SHELLXN     TELAPSE     1370.99 TCPU     1297.77
 TTTTTTTTTTTTTTTTTTTTTTTTTTTTTT MONMO3      TELAPSE     1378.18 TCPU     1304.94
 NUMERICALLY INTEGRATED DENSITY    423.9999830987
 TTTTTTTTTTTTTTTTTTTTTTTTTTTTTT NUMDFT      TELAPSE     1385.70 TCPU     1312.44
 CYC  10 ETOT(AU) -7.410795835998E+03 DETOT -1.25E-04 tst  8.51E-07 PX  1.92E-03
 TTTTTTTTTTTTTTTTTTTTTTTTTTTTTT DIIS        TELAPSE     1385.92 TCPU     1312.66
 DIIS TEST: 0.18467E-03 AT SCF   CYCLE  10 - DIIS ACTIVE - HISTORY:    10 CYCLES
 TTTTTTTTTTTTTTTTTTTTTTTTTTTTTT FDIK        TELAPSE     1397.52 TCPU     1324.18
 INSULATING STATE
 TOP OF VALENCE BANDS -    BAND    212; K    5; EIG -2.4258121E-01 AU
 TOP OF VALENCE BANDS -    BAND    212; K    1; EIG -2.4366837E-01 AU
 BOTTOM OF VIRTUAL BANDS - BAND    213; K    6; EIG -1.1959784E-01 AU
 INDIRECT ENERGY BAND GAP:   3.3465 eV
 BOTTOM OF VIRTUAL BANDS - BAND    213; K    1; EIG -1.1850306E-01 AU
 TTTTTTTTTTTTTTTTTTTTTTTTTTTTTT PDIG        TELAPSE     1398.10 TCPU     1324.76
 TOTAL ATOMIC CHARGES:
   1.1690938   1.1690938   1.1690938   1.1690938   1.1110145   1.1110145
   1.1110145   1.1110145   1.2030784   1.2030784   1.2030784   1.2030784
   6.1890241   6.1890241   6.1890241   6.1890241   5.8162810   5.8162810
   5.8162810   5.8162810   6.1173601   6.1173601   6.1173601   6.1173601
   5.8851056   5.8851056   5.8851056   5.8851056   5.5321373   5.5321373
   5.5321373   5.5321373   5.9096141   5.9096141   5.9096141   5.9096141
   7.1334756   7.1334756   7.1334756   7.1334756   7.0500761   7.0500761
   7.0500761   7.0500761   7.1086000   7.1086000   7.1086000   7.1086000
   7.0812891   7.0812891   7.0812891   7.0812891   7.0715444   7.0715444
   7.0715444   7.0715444  17.1793687  17.1793687  17.1793687  17.1793687
  28.8797456  28.8920033
 TTTTTTTTTTTTTTTTTTTTTTTTTTTTTT MOQGAD      TELAPSE     1398.15 TCPU     1324.81
 TTTTTTTTTTTTTTTTTTTTTTTTTTTTTT SHELLXN     TELAPSE     1495.22 TCPU     1419.50
 TTTTTTTTTTTTTTTTTTTTTTTTTTTTTT MONMO3      TELAPSE     1501.93 TCPU     1426.19
 NUMERICALLY INTEGRATED DENSITY    423.9999831394
 TTTTTTTTTTTTTTTTTTTTTTTTTTTTTT NUMDFT      TELAPSE     1509.71 TCPU     1433.95
 CYC  11 ETOT(AU) -7.410795858527E+03 DETOT -2.25E-05 tst  8.60E-08 PX  1.04E-03
 TTTTTTTTTTTTTTTTTTTTTTTTTTTTTT DIIS        TELAPSE     1509.90 TCPU     1434.13
 DIIS TEST: 0.35306E-04 AT SCF   CYCLE  11 - DIIS ACTIVE - HISTORY:    11 CYCLES
 TTTTTTTTTTTTTTTTTTTTTTTTTTTTTT FDIK        TELAPSE     1518.82 TCPU     1442.95
 INSULATING STATE
 TOP OF VALENCE BANDS -    BAND    212; K    5; EIG -2.4258244E-01 AU
 TOP OF VALENCE BANDS -    BAND    212; K    1; EIG -2.4365369E-01 AU
 BOTTOM OF VIRTUAL BANDS - BAND    213; K    6; EIG -1.1959476E-01 AU
 INDIRECT ENERGY BAND GAP:   3.3467 eV
 BOTTOM OF VIRTUAL BANDS - BAND    213; K    1; EIG -1.1849089E-01 AU
 TTTTTTTTTTTTTTTTTTTTTTTTTTTTTT PDIG        TELAPSE     1519.40 TCPU     1443.52
 TOTAL ATOMIC CHARGES:
   1.1692546   1.1692546   1.1692546   1.1692546   1.1110214   1.1110214
   1.1110214   1.1110214   1.2030076   1.2030076   1.2030076   1.2030076
   6.1890657   6.1890657   6.1890657   6.1890657   5.8156233   5.8156233
   5.8156233   5.8156233   6.1166496   6.1166496   6.1166496   6.1166496
   5.8860364   5.8860364   5.8860364   5.8860364   5.5316083   5.5316083
   5.5316083   5.5316083   5.9093938   5.9093938   5.9093938   5.9093938
   7.1344664   7.1344664   7.1344664   7.1344664   7.0485718   7.0485718
   7.0485718   7.0485718   7.1106312   7.1106312   7.1106312   7.1106312
   7.0801929   7.0801929   7.0801929   7.0801929   7.0714729   7.0714729
   7.0714729   7.0714729  17.1800495  17.1800495  17.1800495  17.1800495
  28.8795372  28.8922811
 TTTTTTTTTTTTTTTTTTTTTTTTTTTTTT MOQGAD      TELAPSE     1519.45 TCPU     1443.57
 TTTTTTTTTTTTTTTTTTTTTTTTTTTTTT SHELLXN     TELAPSE     1614.61 TCPU     1538.34
 TTTTTTTTTTTTTTTTTTTTTTTTTTTTTT MONMO3      TELAPSE     1621.08 TCPU     1544.80
 NUMERICALLY INTEGRATED DENSITY    423.9999831637
 TTTTTTTTTTTTTTTTTTTTTTTTTTTTTT NUMDFT      TELAPSE     1628.43 TCPU     1552.13
 CYC  12 ETOT(AU) -7.410795862947E+03 DETOT -4.42E-06 tst  4.43E-08 PX  4.25E-04
 TTTTTTTTTTTTTTTTTTTTTTTTTTTTTT DIIS        TELAPSE     1628.62 TCPU     1552.31
 DIIS TEST: 0.10615E-04 AT SCF   CYCLE  12 - DIIS ACTIVE - HISTORY:    12 CYCLES
 TTTTTTTTTTTTTTTTTTTTTTTTTTTTTT FDIK        TELAPSE     1639.57 TCPU     1563.18
 INSULATING STATE
 TOP OF VALENCE BANDS -    BAND    212; K    5; EIG -2.4259028E-01 AU
 TOP OF VALENCE BANDS -    BAND    212; K    1; EIG -2.4367691E-01 AU
 BOTTOM OF VIRTUAL BANDS - BAND    213; K    6; EIG -1.1958571E-01 AU
 INDIRECT ENERGY BAND GAP:   3.3471 eV
 BOTTOM OF VIRTUAL BANDS - BAND    213; K    1; EIG -1.1848908E-01 AU
 TTTTTTTTTTTTTTTTTTTTTTTTTTTTTT PDIG        TELAPSE     1640.15 TCPU     1563.75
 TOTAL ATOMIC CHARGES:
   1.1691707   1.1691707   1.1691707   1.1691707   1.1110934   1.1110934
   1.1110934   1.1110934   1.2030378   1.2030378   1.2030378   1.2030378
   6.1895706   6.1895706   6.1895706   6.1895706   5.8157777   5.8157777
   5.8157777   5.8157777   6.1169355   6.1169355   6.1169355   6.1169355
   5.8854761   5.8854761   5.8854761   5.8854761   5.5313814   5.5313814
   5.5313814   5.5313814   5.9093694   5.9093694   5.9093694   5.9093694
   7.1339651   7.1339651   7.1339651   7.1339651   7.0489642   7.0489642
   7.0489642   7.0489642   7.1097250   7.1097250   7.1097250   7.1097250
   7.0806704   7.0806704   7.0806704   7.0806704   7.0717583   7.0717583
   7.0717583   7.0717583  17.1800080  17.1800080  17.1800080  17.1800080
  28.8799155  28.8924694
 TTTTTTTTTTTTTTTTTTTTTTTTTTTTTT MOQGAD      TELAPSE     1640.20 TCPU     1563.80
 TTTTTTTTTTTTTTTTTTTTTTTTTTTTTT SHELLXN     TELAPSE     1737.33 TCPU     1658.52
 TTTTTTTTTTTTTTTTTTTTTTTTTTTTTT MONMO3      TELAPSE     1743.98 TCPU     1665.16
[...]
 DIIS TEST: 0.29263E-02 AT CPHF  CYCLE   9 - DIIS ACTIVE - HISTORY:     9 CYCLES
 CYCLE   9   ALPHA 1003.201220  EPSILON    3.586445  DELTA    2.0278E-01
 TTTTTTTTTTTTTTTTTTTTTTTTTTTTTT MOQGAD      TELAPSE   188506.86 TCPU   187510.89
 TTTTTTTTTTTTTTTTTTTTTTTTTTTTTT CP_MONMON   TELAPSE   188541.02 TCPU   187544.95
 DIIS TEST: 0.53037E-03 AT CPHF  CYCLE  10 - DIIS ACTIVE - HISTORY:    10 CYCLES
 CYCLE  10   ALPHA 1003.128371  EPSILON    3.586257  DELTA   -7.2849E-02
 TTTTTTTTTTTTTTTTTTTTTTTTTTTTTT MOQGAD      TELAPSE   190411.52 TCPU   189402.93
 TTTTTTTTTTTTTTTTTTTTTTTTTTTTTT CP_MONMON   TELAPSE   190445.93 TCPU   189437.26
 DIIS TEST: 0.10235E-03 AT CPHF  CYCLE  11 - DIIS ACTIVE - HISTORY:    11 CYCLES
 CYCLE  11   ALPHA 1003.105935  EPSILON    3.586199  DELTA   -2.2436E-02
 TTTTTTTTTTTTTTTTTTTTTTTTTTTTTT MOQGAD      TELAPSE   192237.28 TCPU   191218.51
 TTTTTTTTTTTTTTTTTTTTTTTTTTTTTT CP_MONMON   TELAPSE   192271.73 TCPU   191252.88
 DIIS TEST: 0.84575E-05 AT CPHF  CYCLE  12 - DIIS ACTIVE - HISTORY:    12 CYCLES
 CYCLE  12   ALPHA 1003.087287  EPSILON    3.586151  DELTA   -1.8648E-02
 TTTTTTTTTTTTTTTTTTTTTTTTTTTTTT MOQGAD      TELAPSE   194078.80 TCPU   193052.81
 TTTTTTTTTTTTTTTTTTTTTTTTTTTTTT CP_MONMON   TELAPSE   194112.88 TCPU   193086.76
 DIIS TEST: 0.72406E-06 AT CPHF  CYCLE  13 - DIIS ACTIVE - HISTORY:    13 CYCLES
 CYCLE  13   ALPHA 1003.083460  EPSILON    3.586141  DELTA   -3.8269E-03
 TTTTTTTTTTTTTTTTTTTTTTTTTTTTTT MOQGAD      TELAPSE   195925.97 TCPU   194889.51
 TTTTTTTTTTTTTTTTTTTTTTTTTTTTTT CP_MONMON   TELAPSE   195960.37 TCPU   194923.80
 DIIS TEST: 0.79366E-07 AT CPHF  CYCLE  14 - DIIS ACTIVE - HISTORY:    14 CYCLES
 CYCLE  14   ALPHA 1003.082502  EPSILON    3.586138  DELTA   -9.5831E-04
 TTTTTTTTTTTTTTTTTTTTTTTTTTTTTT CP_SC       TELAPSE   196070.51 TCPU   195029.74

 *******************************************************************************

 ELECTRIC FIELD APPLIED ALONG CARTESIAN DIRECTION Z

 *******************************************************************************
 THE NUMBER OF SYMMETRY OPERATORS HAS BEEN REDUCED FROM  4 TO  1

 NEW GRID IN RECIPROCAL SPACE
 *******************************************************************************
 POINTS IN THE IBZ                  14 SHRINKING FACTORS               3  3  3
 *******************************************************************************
 *** K POINTS COORDINATES (OBLIQUE COORDINATES IN UNITS OF SHRINK FAC. )
   1-R(  0  0  0)   2-C(  1  0  0)   3-C(  0  1  2)   4-C(  2  0  1)
   5-C(  0  2  0)   6-C(  1  1  0)   7-C(  1  1  1)   8-C(  1  0  1)
   9-C(  0  1  1)  10-C(  2  1  0)  11-C(  0  0  2)  12-C(  2  1  1)
  13-C(  2  1  2)  14-C(  2  2  1)

 GCALCO - MAX INDICES DIRECT LATTICE VECTOR    14    14    16
 NO.OF VECTORS CREATED 6999 STARS  478 RMAX   201.80709 BOHR
 TTTTTTTTTTTTTTTTTTTTTTTTTTTTTT gordsh1     TELAPSE   196123.47 TCPU   195082.18

 MATRIX SIZE: P(G) 1866180, F(G)  933878, P(G) IRR  935584, F(G) IRR  935584
 MAX G-VECTOR INDEX FOR 1- AND 2-ELECTRON INTEGRALS 201

 TTTTTTTTTTTTTTTTTTTTTTTTTTTTTT INPUT       TELAPSE   196147.90 TCPU   195106.45
 TTTTTTTTTTTTTTTTTTTTTTTTTTTTTT SYMM        TELAPSE   196147.90 TCPU   195106.45

 ***** NEW REFERENCE GEOMETRY *****
 TTTTTTTTTTTTTTTTTTTTTTTTTTTTTT INT_SCREEN  TELAPSE   196147.92 TCPU   195106.47
 INFORMATION **** EXCBUF **** EXCH. BIPO BUFFER: WORDS USED =           0

 DFT PARAMETERS

     ATOM       ELECTRONS   NET CHARGE   R(ANGSTROM)
   1   1  H       1.0000      0.0000     1.11000000
  13   6  C       6.0000      0.0000     0.77000000
  37   7  N       7.0000      0.0000     0.74000000
  57  17  CL     17.0000      0.0000     0.99000000
  61  30  ZN     30.0000      0.0000     1.37000000

 SIZE OF GRID=    1823098
 TTTTTTTTTTTTTTTTTTTTTTTTTTTTTT MAKE_GRID2  TELAPSE   196150.37 TCPU   195108.91
 BECKE WEIGHT FUNCTION
 RADSAFE =     2.00
 TOLERANCES - DENSITY:10**- 6; POTENTIAL:10**- 9; GRID WGT:10**-14

 RADIAL INTEGRATION  - INTERVALS (POINTS,UPPER LIMIT):            1( 75,  4.0*R)

 ANGULAR INTEGRATION - INTERVALS (ACCURACY LEVEL [N. POINTS] UPPER LIMIT):
  1(  4[  86]   0.2)  2(  8[ 194]   0.5)  3( 12[ 350]   0.9)  4( 16[ 974]   3.5)
  5( 12[ 350]9999.0)
 TTTTTTTTTTTTTTTTTTTTTTTTTTTTTT INT_CALC    TELAPSE   196150.49 TCPU   195109.03
 CYCLE   0   ALPHA  820.200644  EPSILON    3.114634  DELTA    8.2020E+02
 TTTTTTTTTTTTTTTTTTTTTTTTTTTTTT MOQGAD      TELAPSE   197928.70 TCPU   196881.27
 TTTTTTTTTTTTTTTTTTTTTTTTTTTTTT CP_MONMON   TELAPSE   197962.87 TCPU   196915.34
 DIIS TEST: 0.18711E+03 AT CPHF  CYCLE   1 - MIX    0 %
 CYCLE   1   ALPHA  144.031955  EPSILON    1.371342  DELTA   -6.7617E+02
 TTTTTTTTTTTTTTTTTTTTTTTTTTTTTT MOQGAD      TELAPSE   199774.97 TCPU   198718.10
 TTTTTTTTTTTTTTTTTTTTTTTTTTTTTT CP_MONMON   TELAPSE   199809.18 TCPU   198752.13
 DIIS TEST: 0.18937E+04 AT CPHF  CYCLE   2 - DIIS ACTIVE - HISTORY:     2 CYCLES
 CYCLE   2   ALPHA  543.016248  EPSILON    2.400000  DELTA    3.9898E+02
 TTTTTTTTTTTTTTTTTTTTTTTTTTTTTT MOQGAD      TELAPSE   201611.41 TCPU   200547.46
 TTTTTTTTTTTTTTTTTTTTTTTTTTTTTT CP_MONMON   TELAPSE   201645.59 TCPU   200581.55
 DIIS TEST: 0.37240E+02 AT CPHF  CYCLE   3 - DIIS ACTIVE - HISTORY:     3 CYCLES
 CYCLE   3   ALPHA  588.980700  EPSILON    2.518505  DELTA    4.5964E+01
 TTTTTTTTTTTTTTTTTTTTTTTTTTTTTT MOQGAD      TELAPSE   203470.76 TCPU   202396.08
 TTTTTTTTTTTTTTTTTTTTTTTTTTTTTT CP_MONMON   TELAPSE   203504.94 TCPU   202430.18
 DIIS TEST: 0.12772E+02 AT CPHF  CYCLE   4 - DIIS ACTIVE - HISTORY:     4 CYCLES
 CYCLE   4   ALPHA  594.486133  EPSILON    2.532699  DELTA    5.5054E+00
 TTTTTTTTTTTTTTTTTTTTTTTTTTTTTT MOQGAD      TELAPSE   205342.70 TCPU   204252.02
 TTTTTTTTTTTTTTTTTTTTTTTTTTTTTT CP_MONMON   TELAPSE   205376.92 TCPU   204286.15
 DIIS TEST: 0.73062E+00 AT CPHF  CYCLE   5 - DIIS ACTIVE - HISTORY:     5 CYCLES
 CYCLE   5   ALPHA  595.362701  EPSILON    2.534959  DELTA    8.7657E-01
 TTTTTTTTTTTTTTTTTTTTTTTTTTTTTT MOQGAD      TELAPSE   207142.91 TCPU   206043.99
 TTTTTTTTTTTTTTTTTTTTTTTTTTTTTT CP_MONMON   TELAPSE   207177.04 TCPU   206078.02
 DIIS TEST: 0.15785E+00 AT CPHF  CYCLE   6 - DIIS ACTIVE - HISTORY:     6 CYCLES
 CYCLE   6   ALPHA  595.937050  EPSILON    2.536440  DELTA    5.7435E-01
 TTTTTTTTTTTTTTTTTTTTTTTTTTTTTT MOQGAD      TELAPSE   208948.32 TCPU   207841.37
 TTTTTTTTTTTTTTTTTTTTTTTTTTTTTT CP_MONMON   TELAPSE   208982.51 TCPU   207875.44
 DIIS TEST: 0.18368E+01 AT CPHF  CYCLE   7 - DIIS ACTIVE - HISTORY:     7 CYCLES
 CYCLE   7   ALPHA  596.374028  EPSILON    2.537566  DELTA    4.3698E-01
 TTTTTTTTTTTTTTTTTTTTTTTTTTTTTT MOQGAD      TELAPSE   210742.21 TCPU   209621.91
 TTTTTTTTTTTTTTTTTTTTTTTTTTTTTT CP_MONMON   TELAPSE   210776.43 TCPU   209656.01
 DIIS TEST: 0.32573E-01 AT CPHF  CYCLE   8 - DIIS ACTIVE - HISTORY:     8 CYCLES
 CYCLE   8   ALPHA  596.538266  EPSILON    2.537990  DELTA    1.6424E-01
 TTTTTTTTTTTTTTTTTTTTTTTTTTTTTT MOQGAD      TELAPSE   212565.40 TCPU   211436.58
 TTTTTTTTTTTTTTTTTTTTTTTTTTTTTT CP_MONMON   TELAPSE   212599.62 TCPU   211470.68
 DIIS TEST: 0.34947E-02 AT CPHF  CYCLE   9 - DIIS ACTIVE - HISTORY:     9 CYCLES
 CYCLE   9   ALPHA  596.640486  EPSILON    2.538253  DELTA    1.0222E-01
 TTTTTTTTTTTTTTTTTTTTTTTTTTTTTT MOQGAD      TELAPSE   214368.63 TCPU   213231.09
 TTTTTTTTTTTTTTTTTTTTTTTTTTTTTT CP_MONMON   TELAPSE   214402.50 TCPU   213264.86
 DIIS TEST: 0.34009E-03 AT CPHF  CYCLE  10 - DIIS ACTIVE - HISTORY:    10 CYCLES
 CYCLE  10   ALPHA  596.620361  EPSILON    2.538201  DELTA   -2.0125E-02
 TTTTTTTTTTTTTTTTTTTTTTTTTTTTTT MOQGAD      TELAPSE   216233.96 TCPU   215086.37
 TTTTTTTTTTTTTTTTTTTTTTTTTTTTTT CP_MONMON   TELAPSE   216268.13 TCPU   215120.42
 DIIS TEST: 0.62608E-04 AT CPHF  CYCLE  11 - DIIS ACTIVE - HISTORY:    11 CYCLES
 CYCLE  11   ALPHA  596.597296  EPSILON    2.538142  DELTA   -2.3065E-02
 TTTTTTTTTTTTTTTTTTTTTTTTTTTTTT MOQGAD      TELAPSE   218028.89 TCPU   216868.81
 TTTTTTTTTTTTTTTTTTTTTTTTTTTTTT CP_MONMON   TELAPSE   218063.12 TCPU   216902.87
 DIIS TEST: 0.68203E-05 AT CPHF  CYCLE  12 - DIIS ACTIVE - HISTORY:    12 CYCLES
 CYCLE  12   ALPHA  596.590360  EPSILON    2.538124  DELTA   -6.9356E-03
 TTTTTTTTTTTTTTTTTTTTTTTTTTTTTT MOQGAD      TELAPSE   219832.50 TCPU   218664.51
 TTTTTTTTTTTTTTTTTTTTTTTTTTTTTT CP_MONMON   TELAPSE   219866.69 TCPU   218698.60
 DIIS TEST: 0.94358E-06 AT CPHF  CYCLE  13 - DIIS ACTIVE - HISTORY:    13 CYCLES
 CYCLE  13   ALPHA  596.588127  EPSILON    2.538118  DELTA   -2.2331E-03
 TTTTTTTTTTTTTTTTTTTTTTTTTTTTTT MOQGAD      TELAPSE   221694.36 TCPU   220518.32
 TTTTTTTTTTTTTTTTTTTTTTTTTTTTTT CP_MONMON   TELAPSE   221728.27 TCPU   220552.05
 DIIS TEST: 0.94214E-07 AT CPHF  CYCLE  14 - DIIS ACTIVE - HISTORY:    14 CYCLES
 CYCLE  14   ALPHA  596.587951  EPSILON    2.538118  DELTA   -1.7643E-04
 TTTTTTTTTTTTTTTTTTTTTTTTTTTTTT CP_SC       TELAPSE   221825.40 TCPU   220647.13

 *******************************************************************************

 POLARIZABILITY (ALPHA), DIELECTRIC (EPSILON) AND FIRST-ORDER ELECTRIC
 SUSCEPTIBILITY (CHI(1)) TENSORS (INDEPENDENT COMPONENTS)

  FR.(eV) COMP.   ALPHA(Re,Im)           EPSILON(Re,Im)                CHI(1)
  2.331   XX    1003.0822       0.0000       3.5861       0.0000       2.5861
  2.331   XY       0.0007       0.0000       0.0000       0.0000       0.0000
  2.331   XZ      -0.0000       0.0000      -0.0000       0.0000      -0.0000
  2.331   YY    1003.0825       0.0000       3.5861       0.0000       2.5861
  2.331   YZ       0.0000       0.0000       0.0000       0.0000       0.0000
  2.331   ZZ     596.5880       0.0000       2.5381       0.0000       1.5381

 DIELECTRIC TENSOR

 TENSOR IN PRINCIPAL AXES SYSTEM
 AA  3.586136E+00 BB  3.586140E+00 CC  2.538118E+00

 REFRACTIVE INDICES 
 AA  1.593147E+00 BB  1.893710E+00 CC  1.893711E+00

 OPTICALLY ANISOTROPIC - UNIAXIAL CRYSTAL

 BIREFRINGENCE =  0.3006 (NEGATIVE) - OBLATE OPTICAL ELLIPSOID

 EPSILON=N**2=1+CHI(1)=1+ALPHA*4*PI/V,   4*PI/V=   0.00258 BOHR**(-3)
 ALPHA IN BOHR**3; EPSILON AND CHI(1) ARE DIMENSIONLESS.
 *******************************************************************************


  Pockels Effect beta(-omega;omega,0) with omega=   1.1653 eV


 SIZE OF GRID=    1823098
 TTTTTTTTTTTTTTTTTTTTTTTTTTTTTT MAKE_GRID2  TELAPSE   222257.78 TCPU   221076.39
 BECKE WEIGHT FUNCTION
 RADSAFE =     2.00
 TOLERANCES - DENSITY:10**- 6; POTENTIAL:10**- 9; GRID WGT:10**-14

 RADIAL INTEGRATION  - INTERVALS (POINTS,UPPER LIMIT):            1( 75,  4.0*R)

 ANGULAR INTEGRATION - INTERVALS (ACCURACY LEVEL [N. POINTS] UPPER LIMIT):
  1(  4[  86]   0.2)  2(  8[ 194]   0.5)  3( 12[ 350]   0.9)  4( 16[ 974]   3.5)
  5( 12[ 350]9999.0)

 SIZE OF GRID=    1823098
 TTTTTTTTTTTTTTTTTTTTTTTTTTTTTT MAKE_GRID2  TELAPSE   222261.26 TCPU   221079.48
 BECKE WEIGHT FUNCTION
 RADSAFE =     2.00
 TOLERANCES - DENSITY:10**- 6; POTENTIAL:10**- 9; GRID WGT:10**-14

 RADIAL INTEGRATION  - INTERVALS (POINTS,UPPER LIMIT):            1( 75,  4.0*R)

 ANGULAR INTEGRATION - INTERVALS (ACCURACY LEVEL [N. POINTS] UPPER LIMIT):
  1(  4[  86]   0.2)  2(  8[ 194]   0.5)  3( 12[ 350]   0.9)  4( 16[ 974]   3.5)
  5( 12[ 350]9999.0)
 *******************************************************************************

 DC-POCKELS AND SECOND ELECTRIC SUSCEPTIBILITY (CHI(2))
 TENSORS (INDEPENDENT COMPONENTS)

BETA                                         CHI(2)       d(MKS)       d(cgs)
 *******************************************************************************

     XXX          0.4404E-02   0.5677E-05   0.5520E-05   0.1317E-06
     XXY         -0.9322E-03  -0.1202E-05  -0.1168E-05  -0.2787E-07
     XXZ         -0.1822E+03  -0.2349E+00  -0.2284E+00  -0.5449E-02
     XYX          0.3847E-03   0.4959E-06   0.4822E-06   0.1150E-07
     XYY          0.4156E-04   0.5358E-07   0.5210E-07   0.1243E-08
     XYZ          0.4781E+03   0.6163E+00   0.5993E+00   0.1430E-01
     XZX         -0.2001E+03  -0.2580E+00  -0.2508E+00  -0.5984E-02
     XZY          0.4714E+03   0.6077E+00   0.5909E+00   0.1410E-01
     XZZ          0.8168E-04   0.1053E-06   0.1024E-06   0.2442E-08
     YXX          0.4171E-03   0.5376E-06   0.5228E-06   0.1247E-07
     YXY         -0.6970E-04  -0.8985E-07  -0.8736E-07  -0.2084E-08
     YXZ          0.4781E+03   0.6163E+00   0.5993E+00   0.1430E-01
     YYX          0.3270E-02   0.4215E-05   0.4098E-05   0.9778E-07
     YYY         -0.3573E-04  -0.4605E-07  -0.4478E-07  -0.1068E-08
     YYZ          0.1822E+03   0.2349E+00   0.2284E+00   0.5449E-02
     YZX          0.4714E+03   0.6077E+00   0.5909E+00   0.1410E-01
     YZY          0.2001E+03   0.2580E+00   0.2508E+00   0.5984E-02
     YZZ          0.3797E-03   0.4894E-06   0.4759E-06   0.1135E-07
     ZXX         -0.2001E+03  -0.2580E+00  -0.2509E+00  -0.5985E-02
     ZXY          0.4714E+03   0.6077E+00   0.5909E+00   0.1410E-01
     ZXZ          0.1178E-03   0.1519E-06   0.1477E-06   0.3524E-08
     ZYX          0.4714E+03   0.6077E+00   0.5909E+00   0.1410E-01
     ZYY          0.2001E+03   0.2580E+00   0.2509E+00   0.5985E-02
     ZYZ          0.4131E-03   0.5326E-06   0.5178E-06   0.1235E-07
     ZZX          0.4968E-02   0.6404E-05   0.6227E-05   0.1486E-06
     ZZY         -0.1524E-02  -0.1964E-05  -0.1910E-05  -0.4556E-07
     ZZZ          0.7511E-02   0.9682E-05   0.9415E-05   0.2246E-06
 *******************************************************************************
 CHI(2) = BETA*2PI/V

 BETA AND CHI(2) IN A.U.:    [BETA] = M**(-1/2) L**(7/2) T
                             [CHI(2)] = 1/F
                             (L=LENGTH, M=MASS, T=TIME, F=FIELD INTENSITY)

 ELECTRIC SUSCEPTIBILITY IN THE SECOND HARMONIC GENERATION (SHG) CONVENTION IS:
                   d(A.U.)= 1/2 CHI(2)
                   d(MKS) = d(A.U.)/0.514220632 pm/V
                   d(CGS) = d(A.U.)/(4PI*1.7152535)  10**(-7) esu

 FIELD INTENSITY: 1 A.U. = 0.514220632*10**(11) V/m = 1.7152535*10**7 esu
 BEWARE:                CHI(2)=P/(E0*F**2)   (MKS)
                        CHI(2)=P/F**2        (CGS)
 WHERE P IS THE POLARIZATION VECTOR AND F IS THE APPLIED ELECTRIC FIELD.
 CONSISTENCY IS  PRESERVED BY MULTIPLYING THE CGS VALUE TIMES THE PERMITTIVITY
 OF THE VACUUM, E0 (CONVERSION FACTORS FROM www.physics.nist.gov/constants).
 IN PARENTHESIS: BETA BEFORE SYMMETRIZATION.

  SHG Effect beta(-2omega;omega,omega) with omega=   1.1653 eV


 SIZE OF GRID=    1823098
 TTTTTTTTTTTTTTTTTTTTTTTTTTTTTT MAKE_GRID2  TELAPSE   222616.33 TCPU   221432.36
 BECKE WEIGHT FUNCTION
 RADSAFE =     2.00
 TOLERANCES - DENSITY:10**- 6; POTENTIAL:10**- 9; GRID WGT:10**-14

 RADIAL INTEGRATION  - INTERVALS (POINTS,UPPER LIMIT):            1( 75,  4.0*R)

 ANGULAR INTEGRATION - INTERVALS (ACCURACY LEVEL [N. POINTS] UPPER LIMIT):
  1(  4[  86]   0.2)  2(  8[ 194]   0.5)  3( 12[ 350]   0.9)  4( 16[ 974]   3.5)
  5( 12[ 350]9999.0)

 SIZE OF GRID=    1823098
 TTTTTTTTTTTTTTTTTTTTTTTTTTTTTT MAKE_GRID2  TELAPSE   222619.16 TCPU   221435.18
 BECKE WEIGHT FUNCTION
 RADSAFE =     2.00
 TOLERANCES - DENSITY:10**- 6; POTENTIAL:10**- 9; GRID WGT:10**-14

 RADIAL INTEGRATION  - INTERVALS (POINTS,UPPER LIMIT):            1( 75,  4.0*R)

 ANGULAR INTEGRATION - INTERVALS (ACCURACY LEVEL [N. POINTS] UPPER LIMIT):
  1(  4[  86]   0.2)  2(  8[ 194]   0.5)  3( 12[ 350]   0.9)  4( 16[ 974]   3.5)
  5( 12[ 350]9999.0)
 *******************************************************************************

 SECOND HARMONIC GENERATION (SHG)  AND SECOND ELECTRIC SUSCEPTIBILITY (CHI(2))
 TENSORS (INDEPENDENT COMPONENTS)

BETA                                         CHI(2)       d(MKS)       d(cgs)
 *******************************************************************************

     XXX          0.1315E-02   0.1695E-05   0.1648E-05   0.3933E-07
     XXY          0.2562E-03   0.3303E-06   0.3212E-06   0.7662E-08
     XXZ         -0.1119E+03  -0.1443E+00  -0.1403E+00  -0.3347E-02
     XYX          0.2562E-03   0.3303E-06   0.3212E-06   0.7662E-08
     XYY          0.6415E-04   0.8269E-07   0.8040E-07   0.1918E-08
     XYZ          0.5732E+03   0.7389E+00   0.7185E+00   0.1714E-01
     XZX         -0.1119E+03  -0.1443E+00  -0.1403E+00  -0.3347E-02
     XZY          0.5732E+03   0.7389E+00   0.7185E+00   0.1714E-01
     XZZ         -0.7571E-05  -0.9760E-08  -0.9490E-08  -0.2264E-09
     YXX          0.4492E-03   0.5790E-06   0.5630E-06   0.1343E-07
     YXY         -0.1648E-03  -0.2124E-06  -0.2066E-06  -0.4928E-08
     YXZ          0.5732E+03   0.7389E+00   0.7185E+00   0.1714E-01
     YYX         -0.1648E-03  -0.2124E-06  -0.2066E-06  -0.4928E-08
     YYY          0.1557E-02   0.2007E-05   0.1951E-05   0.4655E-07
     YYZ          0.1119E+03   0.1443E+00   0.1403E+00   0.3347E-02
     YZX          0.5732E+03   0.7389E+00   0.7185E+00   0.1714E-01
     YZY          0.1119E+03   0.1443E+00   0.1403E+00   0.3347E-02
     YZZ          0.3932E-03   0.5069E-06   0.4928E-06   0.1176E-07
     ZXX         -0.1977E+03  -0.2549E+00  -0.2478E+00  -0.5913E-02
     ZXY          0.5685E+03   0.7329E+00   0.7126E+00   0.1700E-01
     ZXZ          0.1274E-03   0.1642E-06   0.1597E-06   0.3810E-08
     ZYX          0.5685E+03   0.7329E+00   0.7126E+00   0.1700E-01
     ZYY          0.1977E+03   0.2549E+00   0.2478E+00   0.5913E-02
     ZYZ          0.4513E-03   0.5818E-06   0.5657E-06   0.1350E-07
     ZZX          0.1274E-03   0.1642E-06   0.1597E-06   0.3810E-08
     ZZY          0.4513E-03   0.5818E-06   0.5657E-06   0.1350E-07
     ZZZ          0.7255E-02   0.9352E-05   0.9094E-05   0.2169E-06
 *******************************************************************************
 CHI(2) = BETA*2PI/V

 BETA AND CHI(2) IN A.U.:    [BETA] = M**(-1/2) L**(7/2) T
                             [CHI(2)] = 1/F
                             (L=LENGTH, M=MASS, T=TIME, F=FIELD INTENSITY)

 ELECTRIC SUSCEPTIBILITY IN THE SECOND HARMONIC GENERATION (SHG) CONVENTION IS:
                   d(A.U.)= 1/2 CHI(2)
                   d(MKS) = d(A.U.)/0.514220632 pm/V
                   d(CGS) = d(A.U.)/(4PI*1.7152535)  10**(-7) esu

 FIELD INTENSITY: 1 A.U. = 0.514220632*10**(11) V/m = 1.7152535*10**7 esu
 BEWARE:                CHI(2)=P/(E0*F**2)   (MKS)
                        CHI(2)=P/F**2        (CGS)
 WHERE P IS THE POLARIZATION VECTOR AND F IS THE APPLIED ELECTRIC FIELD.
 CONSISTENCY IS  PRESERVED BY MULTIPLYING THE CGS VALUE TIMES THE PERMITTIVITY
 OF THE VACUUM, E0 (CONVERSION FACTORS FROM www.physics.nist.gov/constants).
 IN PARENTHESIS: BETA BEFORE SYMMETRIZATION.

 *******************************************************************************


 GCALCO - MAX INDICES DIRECT LATTICE VECTOR    14    14    16
 NO.OF VECTORS CREATED 6999 STARS  478 RMAX   201.80709 BOHR

 CAPPA:IS1  3;IS2  3;IS3  3; K PTS MONK NET   6; SYMMOPS:K SPACE   8;G SPACE   4

 TTTTTTTTTTTTTTTTTTTTTTTTTTTTTT END         TELAPSE   222619.52 TCPU   221435.53
 EEEEEEEEEE TERMINATION  DATE 11 12 2023 TIME 12:28:33.7
NODE    0 CPU TIME =    221435.531
NODE    1 CPU TIME =    221740.396
NODE    2 CPU TIME =    221179.838
NODE    3 CPU TIME =    221199.555
NODE    4 CPU TIME =    221508.474
NODE    5 CPU TIME =    221719.176
NODE    6 CPU TIME =    221225.600
NODE    7 CPU TIME =    221172.545
NODE    8 CPU TIME =    221504.016
NODE    9 CPU TIME =    221741.231
NODE   10 CPU TIME =    221147.483
NODE   11 CPU TIME =    221108.911
NODE   12 CPU TIME =    221374.654
NODE   13 CPU TIME =    221640.021
NODE   14 CPU TIME =    221058.414
NODE   15 CPU TIME =    221093.669
NODE   16 CPU TIME =    221373.753
NODE   17 CPU TIME =    221642.016
NODE   18 CPU TIME =    221103.786
NODE   19 CPU TIME =    221068.440
NODE   20 CPU TIME =    221388.695
NODE   21 CPU TIME =    221628.953
NODE   22 CPU TIME =    221068.626
NODE   23 CPU TIME =    221055.410
    TOTAL CPU TIME =   5312179.193
trying normal rsh (/usr/bin/rsh)
exec: No such file or directory
trying normal rsh (/usr/bin/rsh)
exec: No such file or directory
trying normal rsh (/usr/bin/rsh)
exec: No such file or directory
trying normal rsh (/usr/bin/rsh)
exec: No such file or directory
