Loading crystal17/1.0.2/intel/19.0
  Loading requirement: intel/19.0 ompi/4.0.1/intel/19.0
 PROCESS            0  OF           24  WORKING
 PROCESS            2  OF           24  WORKING
 PROCESS            3  OF           24  WORKING
 PROCESS            5  OF           24  WORKING
 PROCESS            6  OF           24  WORKING
 PROCESS            9  OF           24  WORKING
 PROCESS           10  OF           24  WORKING
 PROCESS           11  OF           24  WORKING
 PROCESS           12  OF           24  WORKING
 PROCESS           13  OF           24  WORKING
 PROCESS           14  OF           24  WORKING
 PROCESS           15  OF           24  WORKING
 PROCESS           16  OF           24  WORKING
 PROCESS           17  OF           24  WORKING
 PROCESS           18  OF           24  WORKING
 PROCESS           19  OF           24  WORKING
 PROCESS           20  OF           24  WORKING
 PROCESS           21  OF           24  WORKING
 PROCESS           22  OF           24  WORKING
 PROCESS           23  OF           24  WORKING
 PROCESS            1  OF           24  WORKING
 PROCESS            4  OF           24  WORKING
 PROCESS            7  OF           24  WORKING
 PROCESS            8  OF           24  WORKING

         
 *******************************************************************************
 *                                                                             *
 *                               CRYSTAL17                                     *
 *                      public : 1.0.2 - March 1st, 2018                       *
 *                       HTTP://WWW.CRYSTAL.UNITO.IT                           *
 *                                                                             *
 *                              MAIN AUTHORS                                   *
 *                                                                             *
 *  R. DOVESI(1,11), V.R. SAUNDERS(2), C. ROETTI(1,11), R. ORLANDO(1,11),      *
 *  C.M. ZICOVICH-WILSON(1,3), F. PASCALE(4), B. CIVALLERI(1,11),              *
 *  K. DOLL(5), N.M. HARRISON(2,6), I.J. BUSH(7), Ph. D'ARCO(8),               *
 *  M. LLUNELL(9), M. CAUSA'(10), Y. NOEL(8), L. MASCHIO(1,11), A. ERBA(1,11)  *
 *  M. RE'RAT(14), S. CASASSA(1,11)                                            *
 *                                                                             *
 *        CONTRIBUTIONS TO THE CODE HAVE ALSO BEEN GIVEN BY                    *
 *                                                                             *
 *  M. FERRABONE(1,11), M. DE LA PIERRE(1,11), M. FERRERO(1,11),               *
 *  J. BAIMA(1,11), E. ALBANESE(1,11), M.F. PEINTINGER(12), R. BAST(13),       *
 *  B. KIRTMAN(15), V. LACIVITA(1,11), R. DEMICHELIS(1,16)                     *
 *  G. BRANDEBURG(17), S. SALUSTRO(1,11), G. SANSONE(1,11)                     *
 *  M.T. RUGGIERO(18)                                                          *
 *                                                                             *
 * (1) THEORETICAL CHEMISTRY GROUP - UNIVERSITA' DI TORINO - TORINO (ITALY)    *
 * (2) COMPUTATIONAL SCIENCE & ENGINEERING DEPARTMENT - STFC DARESBURY (UK)    *
 * (3) UNIVERSIDAD AUTONOMA DEL ESTADO DE MORELOS - CUERNAVACA (MEXICO)        *
 * (4) UNIVERSITE' DE LORRAINE - NANCY (FRANCE)                                *
 * (5) UNIVERSITAET STUTTGART- STUTTGART (GERMANY)                             *
 * (6) IMPERIAL COLLEGE - LONDON (UK)                                          *
 * (7) OXFORD E-RESEARCH CENTRE - OXFORD (UK)                                  *
 * (8) UPMC - SORBONNE UNIVERSITES - PARIS (FRANCE)                            *
 * (9) UNIVERSIDAD DE BARCELONA - BARCELONA (SPAIN)                            *
 *(10) UNIVERSITA' DI NAPOLI "FEDERICO II" - NAPOLI (ITALY)                    *
 *(11) NIS - NANOSTRUCTURED INTERFACES AND SURFACES - TORINO (ITALY)           *
 *(12) MPI FUER CHEMISCHE ENERGIEKONVERSION - MUELHEIM AN DER RUHR (GERMANY)   *
 *(13) UNIVERSITY OF TROMSO - TROMSO (NORWAY)                                  *
 *(14) UNIVERSITE' DE PAU ET DES PAYS DE L'ADOUR - PAU (FRANCE)                *
 *(15) UNIVERSITY OF CALIFORNIA SANTA BARBARA - SANTA BARBARA (USA)            *
 *(16) CURTIN UNIVERSITY - PERTH (AUSTRALIA)                                   *
 *(17) UNIVERSITY COLLEGE LONDON - LONDON (UK)                                 *
 *(18) CAMBRIDGE UNIVERSITY - CAMBRIDGE (UK)                                   *
 *                                                                             *
 *******************************************************************************
 EEEEEEEEEE STARTING  DATE 08 12 2023 TIME 22:51:33.3
 Z:\home\sanoj\Downloads\tmp_p\newconn.mol                                       

 CRYSTAL CALCULATION
 (INPUT ACCORDING TO THE INTERNATIONAL TABLES FOR X-RAY CRYSTALLOGRAPHY)
 CRYSTAL FAMILY                       :  TETRAGONAL  
 CRYSTAL CLASS  (GROTH - 1921)        :  TETRAGONAL DISPHENOIDAL              

 SPACE GROUP (NONCENTROSYMMETRIC)     :  I -4            

 LATTICE PARAMETERS  (ANGSTROMS AND DEGREES) - CONVENTIONAL CELL
        A           B           C        ALPHA        BETA       GAMMA
    10.62471    10.62471    12.73142    90.00000    90.00000    90.00000


 NUMBER OF IRREDUCIBLE ATOMS IN THE CONVENTIONAL CELL:   17

 INPUT COORDINATES

 ATOM AT. N.              COORDINATES
   1   1     9.415000000000E-02  7.397900000000E-01  3.654000000000E-01
   2   1     4.808000000000E-01  8.540200000000E-01  4.221300000000E-01
   3   1     4.018000000000E-01  4.732300000000E-01  3.822900000000E-01
   4   6     2.833200000000E-01  8.152300000000E-01  3.917500000000E-01
   5   6     2.563600000000E-01 -5.072000000000E-02  3.808100000000E-01
   6   6     1.937900000000E-01  7.189900000000E-01  3.776900000000E-01
   7   6     3.678600000000E-01  5.706400000000E-01  3.860700000000E-01
   8   6     4.102700000000E-01  7.817500000000E-01  4.061700000000E-01
   9   6     7.606400000000E-01  4.041900000000E-01  3.748400000000E-01
  10   7     3.397700000000E-01  2.906000000000E-02  3.345000000000E-01
  11   7     2.869000000000E-01  1.473600000000E-01  3.361300000000E-01
  12   7     1.538700000000E-01  1.614000000000E-02  4.100800000000E-01
  13   7     1.753100000000E-01  1.398500000000E-01  3.806200000000E-01
  14   7     4.519800000000E-01  6.629200000000E-01  4.022500000000E-01
  15  17     1.447400000000E-01  4.652700000000E-01  3.525400000000E-01
  16  30     0.000000000000E+00  5.000000000000E-01  7.500000000000E-01
  17  30     0.000000000000E+00  0.000000000000E+00  5.000000000000E-01

 *******************************************************************************

 << INFORMATION >>: FROM NOW ON, ALL COORDINATES REFER TO THE PRIMITIVE CELL

 *******************************************************************************

 LATTICE PARAMETERS  (ANGSTROMS AND DEGREES) - PRIMITIVE CELL
       A          B          C        ALPHA      BETA     GAMMA        VOLUME
    9.84706    9.84706    9.84706   114.70260 114.70260  99.44979    718.590158

 COORDINATES OF THE EQUIVALENT ATOMS (FRACTIONAL UNITS)

 N. ATOM EQUIV AT. N.          X                  Y                  Z

   1   1   1    1 H     1.05190000000E-01  4.59550000000E-01 -1.66060000000E-01
   2   1   2    1 H    -3.74390000000E-01  2.71250000000E-01  1.66060000000E-01
   3   1   3    1 H    -4.59550000000E-01  3.74390000000E-01 -3.54360000000E-01
   4   1   4    1 H    -2.71250000000E-01 -1.05190000000E-01  3.54360000000E-01

   5   2   1    1 H     2.76150000000E-01 -9.70700000000E-02  3.34820000000E-01
   6   2   2    1 H    -4.31890000000E-01 -5.86700000000E-02 -3.34820000000E-01
   7   2   3    1 H     9.70700000000E-02  4.31890000000E-01  3.73220000000E-01
   8   2   4    1 H     5.86700000000E-02 -2.76150000000E-01 -3.73220000000E-01

   9   3   1    1 H    -1.44480000000E-01 -2.15910000000E-01 -1.24970000000E-01
  10   3   2    1 H    -9.09400000000E-02 -1.95100000000E-02  1.24970000000E-01
  11   3   3    1 H     2.15910000000E-01  9.09400000000E-02  7.14300000000E-02
  12   3   4    1 H     1.95100000000E-02  1.44480000000E-01 -7.14300000000E-02

  13   4   1    6 C     2.06980000000E-01 -3.24930000000E-01  9.85500000000E-02
  14   4   2    6 C    -4.23480000000E-01  1.08430000000E-01 -9.85500000000E-02
  15   4   3    6 C     3.24930000000E-01  4.23480000000E-01 -4.68090000000E-01
  16   4   4    6 C    -1.08430000000E-01 -2.06980000000E-01  4.68090000000E-01

  17   5   1    6 C     3.30090000000E-01 -3.62830000000E-01  2.05640000000E-01
  18   5   2    6 C     4.31530000000E-01  1.24450000000E-01 -2.05640000000E-01
  19   5   3    6 C     3.62830000000E-01 -4.31530000000E-01 -3.07080000000E-01
  20   5   4    6 C    -1.24450000000E-01 -3.30090000000E-01  3.07080000000E-01

  21   6   1    6 C     9.66800000000E-02 -4.28520000000E-01 -8.72200000000E-02
  22   6   2    6 C    -3.41300000000E-01  1.83900000000E-01  8.72200000000E-02
  23   6   3    6 C     4.28520000000E-01  3.41300000000E-01 -4.74800000000E-01
  24   6   4    6 C    -1.83900000000E-01 -9.66800000000E-02  4.74800000000E-01

  25   7   1    6 C    -4.32900000000E-02 -2.46070000000E-01 -6.15000000000E-02
  26   7   2    6 C    -1.84570000000E-01  1.82100000000E-02  6.15000000000E-02
  27   7   3    6 C     2.46070000000E-01  1.84570000000E-01  2.02780000000E-01
  28   7   4    6 C    -1.82100000000E-02  4.32900000000E-02 -2.02780000000E-01

  29   8   1    6 C     1.87920000000E-01 -1.83560000000E-01  1.92020000000E-01
  30   8   2    6 C    -3.75580000000E-01 -4.10000000000E-03 -1.92020000000E-01
  31   8   3    6 C     1.83560000000E-01  3.75580000000E-01  3.71480000000E-01
  32   8   4    6 C     4.10000000000E-03 -1.87920000000E-01 -3.71480000000E-01

  33   9   1    6 C    -2.20970000000E-01  1.35480000000E-01  1.64830000000E-01
  34   9   2    6 C    -2.93500000000E-02 -3.85800000000E-01 -1.64830000000E-01
  35   9   3    6 C    -1.35480000000E-01  2.93500000000E-02 -3.56450000000E-01
  36   9   4    6 C     3.85800000000E-01  2.20970000000E-01  3.56450000000E-01

  37  10   1    7 N     3.63560000000E-01 -3.25730000000E-01  3.68830000000E-01
  38  10   2    7 N     3.05440000000E-01 -5.27000000000E-03 -3.68830000000E-01
  39  10   3    7 N     3.25730000000E-01 -3.05440000000E-01 -3.10710000000E-01
  40  10   4    7 N     5.27000000000E-03 -3.63560000000E-01  3.10710000000E-01

  41  11   1    7 N     4.83490000000E-01 -3.76970000000E-01  4.34260000000E-01
  42  11   2    7 N     1.88770000000E-01  4.92300000000E-02 -4.34260000000E-01
  43  11   3    7 N     3.76970000000E-01 -1.88770000000E-01 -1.39540000000E-01
  44  11   4    7 N    -4.92300000000E-02 -4.83490000000E-01  1.39540000000E-01

  45  12   1    7 N     4.26220000000E-01 -4.36050000000E-01  1.70010000000E-01
  46  12   2    7 N     3.93940000000E-01  2.56210000000E-01 -1.70010000000E-01
  47  12   3    7 N     4.36050000000E-01 -3.93940000000E-01 -1.37730000000E-01
  48  12   4    7 N    -2.56210000000E-01 -4.26220000000E-01  1.37730000000E-01

  49  13   1    7 N    -4.79530000000E-01 -4.44070000000E-01  3.15160000000E-01
  50  13   2    7 N     2.40770000000E-01  2.05310000000E-01 -3.15160000000E-01
  51  13   3    7 N     4.44070000000E-01 -2.40770000000E-01 -3.54600000000E-02
  52  13   4    7 N    -2.05310000000E-01  4.79530000000E-01  3.54600000000E-02

  53  14   1    7 N     6.51700000000E-02 -1.45770000000E-01  1.14900000000E-01
  54  14   2    7 N    -2.60670000000E-01 -4.97300000000E-02 -1.14900000000E-01
  55  14   3    7 N     1.45770000000E-01  2.60670000000E-01  2.10940000000E-01
  56  14   4    7 N     4.97300000000E-02 -6.51700000000E-02 -2.10940000000E-01

  57  15   1   17 CL   -1.82190000000E-01  4.97280000000E-01 -3.89990000000E-01
  58  15   2   17 CL   -1.12730000000E-01  2.07800000000E-01  3.89990000000E-01
  59  15   3   17 CL   -4.97280000000E-01  1.12730000000E-01  3.20530000000E-01
  60  15   4   17 CL   -2.07800000000E-01  1.82190000000E-01 -3.20530000000E-01

  61  16   1   30 ZN    2.50000000000E-01 -2.50000000000E-01 -5.00000000000E-01

  62  17   1   30 ZN   -5.00000000000E-01 -5.00000000000E-01  0.00000000000E+00

 NUMBER OF SYMMETRY OPERATORS         :    4
 *******************************************************************************
 * GEOMETRY EDITING - INPUT COORDINATES ARE GIVEN IN ANGSTROM         
 *******************************************************************************

 GEOMETRY NOW FULLY CONSISTENT WITH THE GROUP

 GCALCO - MAX INDICES DIRECT LATTICE VECTOR    14    14    16
 NO.OF VECTORS CREATED 6999 STARS  485 RMAX   201.67655 BOHR

 GEOMETRY FOR WAVE FUNCTION - DIMENSIONALITY OF THE SYSTEM    3
 (NON PERIODIC DIRECTION: LATTICE PARAMETER FORMALLY SET TO 500)
 *******************************************************************************
 LATTICE PARAMETERS (ANGSTROMS AND DEGREES) - BOHR = 0.5291772083 ANGSTROM
 PRIMITIVE CELL - CENTRING CODE 6/0 VOLUME=   718.590158 - DENSITY  1.959 g/cm^3
         A              B              C           ALPHA      BETA       GAMMA 
     9.84705715     9.84705715     9.84705715   114.702603 114.702603  99.449794
 *******************************************************************************
 ATOMS IN THE ASYMMETRIC UNIT   17 - ATOMS IN THE UNIT CELL:   62
     ATOM                 X/A                 Y/B                 Z/C    
 *******************************************************************************
      1 T   1 H     1.051900000000E-01  4.595500000000E-01 -1.660600000000E-01
      2 F   1 H    -3.743900000000E-01  2.712500000000E-01  1.660600000000E-01
      3 F   1 H    -4.595500000000E-01  3.743900000000E-01 -3.543600000000E-01
      4 F   1 H    -2.712500000000E-01 -1.051900000000E-01  3.543600000000E-01
      5 T   1 H     2.761500000000E-01 -9.707000000000E-02  3.348200000000E-01
      6 F   1 H    -4.318900000000E-01 -5.867000000000E-02 -3.348200000000E-01
      7 F   1 H     9.707000000000E-02  4.318900000000E-01  3.732200000000E-01
      8 F   1 H     5.867000000000E-02 -2.761500000000E-01 -3.732200000000E-01
      9 T   1 H    -1.444800000000E-01 -2.159100000000E-01 -1.249700000000E-01
     10 F   1 H    -9.094000000000E-02 -1.951000000000E-02  1.249700000000E-01
     11 F   1 H     2.159100000000E-01  9.094000000000E-02  7.143000000000E-02
     12 F   1 H     1.951000000000E-02  1.444800000000E-01 -7.143000000000E-02
     13 T   6 C     2.069800000000E-01 -3.249300000000E-01  9.855000000000E-02
     14 F   6 C    -4.234800000000E-01  1.084300000000E-01 -9.855000000000E-02
     15 F   6 C     3.249300000000E-01  4.234800000000E-01 -4.680900000000E-01
     16 F   6 C    -1.084300000000E-01 -2.069800000000E-01  4.680900000000E-01
     17 T   6 C     3.300900000000E-01 -3.628300000000E-01  2.056400000000E-01
     18 F   6 C     4.315300000000E-01  1.244500000000E-01 -2.056400000000E-01
     19 F   6 C     3.628300000000E-01 -4.315300000000E-01 -3.070800000000E-01
     20 F   6 C    -1.244500000000E-01 -3.300900000000E-01  3.070800000000E-01
     21 T   6 C     9.668000000000E-02 -4.285200000000E-01 -8.722000000000E-02
     22 F   6 C    -3.413000000000E-01  1.839000000000E-01  8.722000000000E-02
     23 F   6 C     4.285200000000E-01  3.413000000000E-01 -4.748000000000E-01
     24 F   6 C    -1.839000000000E-01 -9.668000000000E-02  4.748000000000E-01
     25 T   6 C    -4.329000000000E-02 -2.460700000000E-01 -6.150000000000E-02
     26 F   6 C    -1.845700000000E-01  1.821000000000E-02  6.150000000000E-02
     27 F   6 C     2.460700000000E-01  1.845700000000E-01  2.027800000000E-01
     28 F   6 C    -1.821000000000E-02  4.329000000000E-02 -2.027800000000E-01
     29 T   6 C     1.879200000000E-01 -1.835600000000E-01  1.920200000000E-01
     30 F   6 C    -3.755800000000E-01 -4.100000000000E-03 -1.920200000000E-01
     31 F   6 C     1.835600000000E-01  3.755800000000E-01  3.714800000000E-01
     32 F   6 C     4.100000000000E-03 -1.879200000000E-01 -3.714800000000E-01
     33 T   6 C    -2.209700000000E-01  1.354800000000E-01  1.648300000000E-01
     34 F   6 C    -2.935000000000E-02 -3.858000000000E-01 -1.648300000000E-01
     35 F   6 C    -1.354800000000E-01  2.935000000000E-02 -3.564500000000E-01
     36 F   6 C     3.858000000000E-01  2.209700000000E-01  3.564500000000E-01
     37 T   7 N     3.635600000000E-01 -3.257300000000E-01  3.688300000000E-01
     38 F   7 N     3.054400000000E-01 -5.270000000000E-03 -3.688300000000E-01
     39 F   7 N     3.257300000000E-01 -3.054400000000E-01 -3.107100000000E-01
     40 F   7 N     5.270000000000E-03 -3.635600000000E-01  3.107100000000E-01
     41 T   7 N     4.834900000000E-01 -3.769700000000E-01  4.342600000000E-01
     42 F   7 N     1.887700000000E-01  4.923000000000E-02 -4.342600000000E-01
     43 F   7 N     3.769700000000E-01 -1.887700000000E-01 -1.395400000000E-01
     44 F   7 N    -4.923000000000E-02 -4.834900000000E-01  1.395400000000E-01
     45 T   7 N     4.262200000000E-01 -4.360500000000E-01  1.700100000000E-01
     46 F   7 N     3.939400000000E-01  2.562100000000E-01 -1.700100000000E-01
     47 F   7 N     4.360500000000E-01 -3.939400000000E-01 -1.377300000000E-01
     48 F   7 N    -2.562100000000E-01 -4.262200000000E-01  1.377300000000E-01
     49 T   7 N    -4.795300000000E-01 -4.440700000000E-01  3.151600000000E-01
     50 F   7 N     2.407700000000E-01  2.053100000000E-01 -3.151600000000E-01
     51 F   7 N     4.440700000000E-01 -2.407700000000E-01 -3.546000000000E-02
     52 F   7 N    -2.053100000000E-01  4.795300000000E-01  3.546000000000E-02
     53 T   7 N     6.517000000000E-02 -1.457700000000E-01  1.149000000000E-01
     54 F   7 N    -2.606700000000E-01 -4.973000000000E-02 -1.149000000000E-01
     55 F   7 N     1.457700000000E-01  2.606700000000E-01  2.109400000000E-01
     56 F   7 N     4.973000000000E-02 -6.517000000000E-02 -2.109400000000E-01
     57 T  17 CL   -1.821900000000E-01  4.972800000000E-01 -3.899900000000E-01
     58 F  17 CL   -1.127300000000E-01  2.078000000000E-01  3.899900000000E-01
     59 F  17 CL   -4.972800000000E-01  1.127300000000E-01  3.205300000000E-01
     60 F  17 CL   -2.078000000000E-01  1.821900000000E-01 -3.205300000000E-01
     61 T  30 ZN    2.500000000000E-01 -2.500000000000E-01 -5.000000000000E-01
     62 T  30 ZN   -5.000000000000E-01 -5.000000000000E-01  0.000000000000E+00

 TRANSFORMATION MATRIX PRIMITIVE-CRYSTALLOGRAPHIC CELL
  0.0000  1.0000  1.0000  1.0000  0.0000  1.0000  1.0000  1.0000  0.0000

 *******************************************************************************
 CRYSTALLOGRAPHIC CELL (VOLUME=       1437.18031501)
         A              B              C           ALPHA      BETA       GAMMA 
    10.62471134    10.62471134    12.73142397    90.000000  90.000000  90.000000

 COORDINATES IN THE CRYSTALLOGRAPHIC CELL
     ATOM                 X/A                 Y/B                 Z/C    
 *******************************************************************************
      1 T   1 H    -4.058500000000E-01  2.397900000000E-01 -1.346000000000E-01
      2 F   1 H     4.058500000000E-01 -2.397900000000E-01 -1.346000000000E-01
      3 F   1 H     2.397900000000E-01  4.058500000000E-01  1.346000000000E-01
      4 F   1 H    -2.397900000000E-01 -4.058500000000E-01  1.346000000000E-01
      5 T   1 H    -1.920000000000E-02  3.540200000000E-01 -7.787000000000E-02
      6 F   1 H     1.920000000000E-02 -3.540200000000E-01 -7.787000000000E-02
      7 F   1 H     3.540200000000E-01  1.920000000000E-02  7.787000000000E-02
      8 F   1 H    -3.540200000000E-01 -1.920000000000E-02  7.787000000000E-02
      9 T   1 H    -9.820000000000E-02 -2.677000000000E-02 -1.177100000000E-01
     10 F   1 H     9.820000000000E-02  2.677000000000E-02 -1.177100000000E-01
     11 F   1 H    -2.677000000000E-02  9.820000000000E-02  1.177100000000E-01
     12 F   1 H     2.677000000000E-02 -9.820000000000E-02  1.177100000000E-01
     13 T   6 C    -2.166800000000E-01  3.152300000000E-01 -1.082500000000E-01
     14 F   6 C     2.166800000000E-01 -3.152300000000E-01 -1.082500000000E-01
     15 F   6 C     3.152300000000E-01  2.166800000000E-01  1.082500000000E-01
     16 F   6 C    -3.152300000000E-01 -2.166800000000E-01  1.082500000000E-01
     17 T   6 C     2.563600000000E-01 -5.072000000000E-02  3.808100000000E-01
     18 F   6 C    -2.563600000000E-01  5.072000000000E-02  3.808100000000E-01
     19 F   6 C    -5.072000000000E-02 -2.563600000000E-01 -3.808100000000E-01
     20 F   6 C     5.072000000000E-02  2.563600000000E-01 -3.808100000000E-01
     21 T   6 C    -3.062100000000E-01  2.189900000000E-01 -1.223100000000E-01
     22 F   6 C     3.062100000000E-01 -2.189900000000E-01 -1.223100000000E-01
     23 F   6 C     2.189900000000E-01  3.062100000000E-01  1.223100000000E-01
     24 F   6 C    -2.189900000000E-01 -3.062100000000E-01  1.223100000000E-01
     25 T   6 C    -1.321400000000E-01  7.064000000000E-02 -1.139300000000E-01
     26 F   6 C     1.321400000000E-01 -7.064000000000E-02 -1.139300000000E-01
     27 F   6 C     7.064000000000E-02  1.321400000000E-01  1.139300000000E-01
     28 F   6 C    -7.064000000000E-02 -1.321400000000E-01  1.139300000000E-01
     29 T   6 C    -8.973000000000E-02  2.817500000000E-01 -9.383000000000E-02
     30 F   6 C     8.973000000000E-02 -2.817500000000E-01 -9.383000000000E-02
     31 F   6 C     2.817500000000E-01  8.973000000000E-02  9.383000000000E-02
     32 F   6 C    -2.817500000000E-01 -8.973000000000E-02  9.383000000000E-02
     33 T   6 C     2.606400000000E-01 -9.581000000000E-02 -1.251600000000E-01
     34 F   6 C    -2.606400000000E-01  9.581000000000E-02 -1.251600000000E-01
     35 F   6 C    -9.581000000000E-02 -2.606400000000E-01  1.251600000000E-01
     36 F   6 C     9.581000000000E-02  2.606400000000E-01  1.251600000000E-01
     37 T   7 N     3.397700000000E-01  2.906000000000E-02  3.345000000000E-01
     38 F   7 N    -3.397700000000E-01 -2.906000000000E-02  3.345000000000E-01
     39 F   7 N     2.906000000000E-02 -3.397700000000E-01 -3.345000000000E-01
     40 F   7 N    -2.906000000000E-02  3.397700000000E-01 -3.345000000000E-01
     41 T   7 N    -2.131000000000E-01 -3.526400000000E-01 -1.638700000000E-01
     42 F   7 N     2.131000000000E-01  3.526400000000E-01 -1.638700000000E-01
     43 F   7 N    -3.526400000000E-01  2.131000000000E-01  1.638700000000E-01
     44 F   7 N     3.526400000000E-01 -2.131000000000E-01  1.638700000000E-01
     45 T   7 N     1.538700000000E-01  1.614000000000E-02  4.100800000000E-01
     46 F   7 N    -1.538700000000E-01 -1.614000000000E-02  4.100800000000E-01
     47 F   7 N     1.614000000000E-02 -1.538700000000E-01 -4.100800000000E-01
     48 F   7 N    -1.614000000000E-02  1.538700000000E-01 -4.100800000000E-01
     49 T   7 N    -3.246900000000E-01 -3.601500000000E-01 -1.193800000000E-01
     50 F   7 N     3.246900000000E-01  3.601500000000E-01 -1.193800000000E-01
     51 F   7 N    -3.601500000000E-01  3.246900000000E-01  1.193800000000E-01
     52 F   7 N     3.601500000000E-01 -3.246900000000E-01  1.193800000000E-01
     53 T   7 N    -4.802000000000E-02  1.629200000000E-01 -9.775000000000E-02
     54 F   7 N     4.802000000000E-02 -1.629200000000E-01 -9.775000000000E-02
     55 F   7 N     1.629200000000E-01  4.802000000000E-02  9.775000000000E-02
     56 F   7 N    -1.629200000000E-01 -4.802000000000E-02  9.775000000000E-02
     57 T  17 CL   -3.552600000000E-01 -3.473000000000E-02 -1.474600000000E-01
     58 F  17 CL    3.552600000000E-01  3.473000000000E-02 -1.474600000000E-01
     59 F  17 CL   -3.473000000000E-02  3.552600000000E-01  1.474600000000E-01
     60 F  17 CL    3.473000000000E-02 -3.552600000000E-01  1.474600000000E-01
     61 T  30 ZN   -5.000000000000E-01  0.000000000000E+00  2.500000000000E-01
     62 T  30 ZN    0.000000000000E+00  0.000000000000E+00 -5.000000000000E-01

 T = ATOM BELONGING TO THE ASYMMETRIC UNIT

 ****    4 SYMMOPS - TRANSLATORS IN FRACTIONAL UNITS
 **** MATRICES AND TRANSLATORS IN THE CRYSTALLOGRAPHIC REFERENCE FRAME
   V INV                    ROTATION MATRICES                   TRANSLATORS
   1   1  1.00  0.00  0.00  0.00  1.00  0.00  0.00  0.00  1.00  0.00  0.00  0.00
   2   2  0.00  1.00 -1.00  1.00  0.00 -1.00  0.00  0.00 -1.00  0.00  0.00  0.00
   3   4  0.00 -1.00  0.00  0.00 -1.00  1.00  1.00 -1.00  0.00  0.00  0.00  0.00
   4   3 -1.00  0.00  1.00 -1.00  0.00  0.00 -1.00  1.00  0.00  0.00  0.00  0.00

 DIRECT LATTICE VECTORS CARTESIAN COMPONENTS (ANGSTROM)
          X                    Y                    Z
  -0.531235567025E+01   0.531235567025E+01   0.636571198310E+01
   0.531235567025E+01  -0.531235567025E+01   0.636571198310E+01
   0.531235567025E+01   0.531235567025E+01  -0.636571198310E+01


 CARTESIAN COORDINATES - PRIMITIVE CELL
 *******************************************************************************
 *      ATOM          X(ANGSTROM)         Y(ANGSTROM)         Z(ANGSTROM)
 *******************************************************************************
    1     1 H    -4.312039097542E+00  2.547699532338E+00 -1.713649665851E+00
    2     1 H     4.312039097542E+00 -2.547699532338E+00 -1.713649665851E+00
    3     1 H     2.547699532338E+00  4.312039097542E+00  1.713649665851E+00
    4     1 H    -2.547699532338E+00 -4.312039097542E+00  1.713649665851E+00
    5     1 H    -2.039944577376E-01  3.761360308764E+00 -9.913959842480E-01
    6     1 H     2.039944577376E-01 -3.761360308764E+00 -9.913959842480E-01
    7     1 H     3.761360308764E+00  2.039944577376E-01  9.913959842480E-01
    8     1 H    -3.761360308764E+00 -2.039944577376E-01  9.913959842480E-01
    9     1 H    -1.043346653637E+00 -2.844235225852E-01 -1.498615915061E+00
   10     1 H     1.043346653637E+00  2.844235225852E-01 -1.498615915061E+00
   11     1 H    -2.844235225852E-01  1.043346653637E+00  1.498615915061E+00
   12     1 H     2.844235225852E-01 -1.043346653637E+00  1.498615915061E+00
   13     6 C    -2.302162453260E+00  3.349227755866E+00 -1.378176644341E+00
   14     6 C     2.302162453260E+00 -3.349227755866E+00 -1.378176644341E+00
   15     6 C     3.349227755866E+00  2.302162453260E+00  1.378176644341E+00
   16     6 C    -3.349227755866E+00 -2.302162453260E+00  1.378176644341E+00
   17     6 C     2.723750999251E+00 -5.388853591902E-01  4.848253560569E+00
   18     6 C    -2.723750999251E+00  5.388853591902E-01  4.848253560569E+00
   19     6 C    -5.388853591902E-01 -2.723750999251E+00 -4.848253560569E+00
   20     6 C     5.388853591902E-01  2.723750999251E+00 -4.848253560569E+00
   21     6 C    -3.253392859575E+00  2.326705536456E+00 -1.557180465306E+00
   22     6 C     3.253392859575E+00 -2.326705536456E+00 -1.557180465306E+00
   23     6 C     2.326705536456E+00  3.253392859575E+00  1.557180465306E+00
   24     6 C    -2.326705536456E+00 -3.253392859575E+00  1.557180465306E+00
   25     6 C    -1.403949356534E+00  7.505296090929E-01 -1.450491132469E+00
   26     6 C     1.403949356534E+00 -7.505296090929E-01 -1.450491132469E+00
   27     6 C     7.505296090929E-01  1.403949356534E+00  1.450491132469E+00
   28     6 C    -7.505296090929E-01 -1.403949356534E+00  1.450491132469E+00
   29     6 C    -9.533553485831E-01  2.993512420186E+00 -1.194589510749E+00
   30     6 C     9.533553485831E-01 -2.993512420186E+00 -1.194589510749E+00
   31     6 C     2.993512420186E+00  9.533553485831E-01  1.194589510749E+00
   32     6 C    -2.993512420186E+00 -9.533553485831E-01  1.194589510749E+00
   33     6 C     2.769224763788E+00 -1.017953593533E+00 -1.593465023610E+00
   34     6 C    -2.769224763788E+00  1.017953593533E+00 -1.593465023610E+00
   35     6 C    -1.017953593533E+00 -2.769224763788E+00  1.593465023610E+00
   36     6 C     1.017953593533E+00  2.769224763788E+00  1.593465023610E+00
   37     7 N     3.609958172162E+00  3.087541115549E-01  4.258661316694E+00
   38     7 N    -3.609958172162E+00 -3.087541115549E-01  4.258661316694E+00
   39     7 N     3.087541115549E-01 -3.609958172162E+00 -4.258661316694E+00
   40     7 N    -3.087541115549E-01  3.609958172162E+00 -4.258661316694E+00
   41     7 N    -2.264125986661E+00 -3.746698207114E+00 -2.086298445341E+00
   42     7 N     2.264125986661E+00  3.746698207114E+00 -2.086298445341E+00
   43     7 N    -3.746698207114E+00  2.264125986661E+00  2.086298445341E+00
   44     7 N     3.746698207114E+00 -2.264125986661E+00  2.086298445341E+00
   45     7 N     1.634824333963E+00  1.714828410357E-01  5.220902340059E+00
   46     7 N    -1.634824333963E+00 -1.714828410357E-01  5.220902340059E+00
   47     7 N     1.714828410357E-01 -1.634824333963E+00 -5.220902340059E+00
   48     7 N    -1.714828410357E-01  1.634824333963E+00 -5.220902340059E+00
   49     7 N    -3.449737525147E+00 -3.826489789281E+00 -1.519877393085E+00
   50     7 N     3.449737525147E+00  3.826489789281E+00 -1.519877393085E+00
   51     7 N    -3.826489789281E+00  3.449737525147E+00  1.519877393085E+00
   52     7 N     3.826489789281E+00 -3.449737525147E+00  1.519877393085E+00
   53     7 N    -5.101986385708E-01  1.730977971594E+00 -1.244496692696E+00
   54     7 N     5.101986385708E-01 -1.730977971594E+00 -1.244496692696E+00
   55     7 N     1.730977971594E+00  5.101986385708E-01  1.244496692696E+00
   56     7 N    -1.730977971594E+00 -5.101986385708E-01  1.244496692696E+00
   57    17 CL   -3.774534950826E+00 -3.689962248556E-01 -1.877375778056E+00
   58    17 CL    3.774534950826E+00  3.689962248556E-01 -1.877375778056E+00
   59    17 CL   -3.689962248556E-01  3.774534950826E+00  1.877375778056E+00
   60    17 CL    3.689962248556E-01 -3.774534950826E+00  1.877375778056E+00
   61    30 ZN    5.312355670250E+00  0.000000000000E+00 -9.548567974650E+00
   62    30 ZN    0.000000000000E+00  0.000000000000E+00  6.365711983100E+00

 *******************************************************************************
 STARTING BASIS SET HANDLING 
 *******************************************************************************

 Loading internal basis set: POB-DZVPP           

 Please cite in your publication:
 Peintinger, M. F., Oliveira, D. V. and Bredow, T. (2013), Generally applicable 
 solid-state Gaussian basis sets, in preparation                                
                                                                                
                    

 *******************************************************************************
 LOCAL ATOMIC FUNCTIONS BASIS SET
 *******************************************************************************
   ATOM   X(AU)   Y(AU)   Z(AU)  N. TYPE  EXPONENT  S COEF   P COEF   D/F/G COEF
 *******************************************************************************
   1 H   -8.149   4.814  -3.238
                                  1 S  
                                         2.263E+01 1.441E-02 0.000E+00 0.000E+00
                                         3.236E+00 1.072E-01 0.000E+00 0.000E+00
                                         7.304E-01 3.846E-01 0.000E+00 0.000E+00
                                  2 S  
                                         1.417E-01 1.000E+00 0.000E+00 0.000E+00
                           3-     5 P  
                                         3.944E-01 0.000E+00 1.000E+00 0.000E+00
                           6-     8 P  
                                         1.006E-01 0.000E+00 1.000E+00 0.000E+00
   2 H    8.149  -4.814  -3.238
   3 H    4.814   8.149   3.238
   4 H   -4.814  -8.149   3.238
   5 H   -0.385   7.108  -1.873
   6 H    0.385  -7.108  -1.873
   7 H    7.108   0.385   1.873
   8 H   -7.108  -0.385   1.873
   9 H   -1.972  -0.537  -2.832
  10 H    1.972   0.537  -2.832
  11 H   -0.537   1.972   2.832
  12 H    0.537  -1.972   2.832
  13 C   -4.350   6.329  -2.604
                                 97 S  
                                         1.238E+03 5.457E-03 0.000E+00 0.000E+00
                                         1.863E+02 4.064E-02 0.000E+00 0.000E+00
                                         4.225E+01 1.803E-01 0.000E+00 0.000E+00
                                         1.168E+01 4.632E-01 0.000E+00 0.000E+00
                                         3.593E+00 4.409E-01 0.000E+00 0.000E+00
                                 98 S  
                                         5.281E+00 1.000E+00 0.000E+00 0.000E+00
                                 99 S  
                                         4.447E-01 1.000E+00 0.000E+00 0.000E+00
                         100-   102 P  
                                         9.468E+00 0.000E+00 3.839E-02 0.000E+00
                                         2.010E+00 0.000E+00 2.112E-01 0.000E+00
                                         5.477E-01 0.000E+00 5.133E-01 0.000E+00
                         103-   105 P  
                                         1.604E-01 0.000E+00 1.000E+00 0.000E+00
                         106-   110 D  
                                         6.070E-01 0.000E+00 0.000E+00 1.000E+00
                         111-   115 D  
                                         2.939E-01 0.000E+00 0.000E+00 1.000E+00
  14 C    4.350  -6.329  -2.604
  15 C    6.329   4.350   2.604
  16 C   -6.329  -4.350   2.604
  17 C    5.147  -1.018   9.162
  18 C   -5.147   1.018   9.162
  19 C   -1.018  -5.147  -9.162
  20 C    1.018   5.147  -9.162
  21 C   -6.148   4.397  -2.943
  22 C    6.148  -4.397  -2.943
  23 C    4.397   6.148   2.943
  24 C   -4.397  -6.148   2.943
  25 C   -2.653   1.418  -2.741
  26 C    2.653  -1.418  -2.741
  27 C    1.418   2.653   2.741
  28 C   -1.418  -2.653   2.741
  29 C   -1.802   5.657  -2.257
  30 C    1.802  -5.657  -2.257
  31 C    5.657   1.802   2.257
  32 C   -5.657  -1.802   2.257
  33 C    5.233  -1.924  -3.011
  34 C   -5.233   1.924  -3.011
  35 C   -1.924  -5.233   3.011
  36 C    1.924   5.233   3.011
  37 N    6.822   0.583   8.048
                                553 S  
                                         1.713E+03-5.393E-03 0.000E+00 0.000E+00
                                         2.576E+02-4.022E-02 0.000E+00 0.000E+00
                                         5.846E+01-1.793E-01 0.000E+00 0.000E+00
                                         1.620E+01-4.638E-01 0.000E+00 0.000E+00
                                         5.005E+00-4.417E-01 0.000E+00 0.000E+00
                                554 S  
                                         6.217E-01 1.000E+00 0.000E+00 0.000E+00
                                555 S  
                                         2.921E-01 1.000E+00 0.000E+00 0.000E+00
                         556-   558 P  
                                         1.357E+01 0.000E+00-4.007E-02 0.000E+00
                                         2.926E+00 0.000E+00-2.181E-01 0.000E+00
                                         7.993E-01 0.000E+00-5.129E-01 0.000E+00
                         559-   561 P  
                                         2.244E-01 0.000E+00 1.000E+00 0.000E+00
                         562-   566 D  
                                         3.118E-01 0.000E+00 0.000E+00 1.000E+00
  38 N   -6.822  -0.583   8.048
  39 N    0.583  -6.822  -8.048
  40 N   -0.583   6.822  -8.048
  41 N   -4.279  -7.080  -3.943
  42 N    4.279   7.080  -3.943
  43 N   -7.080   4.279   3.943
  44 N    7.080  -4.279   3.943
  45 N    3.089   0.324   9.866
  46 N   -3.089  -0.324   9.866
  47 N    0.324  -3.089  -9.866
  48 N   -0.324   3.089  -9.866
  49 N   -6.519  -7.231  -2.872
  50 N    6.519   7.231  -2.872
  51 N   -7.231   6.519   2.872
  52 N    7.231  -6.519   2.872
  53 N   -0.964   3.271  -2.352
  54 N    0.964  -3.271  -2.352
  55 N    3.271   0.964   2.352
  56 N   -3.271  -0.964   2.352
  57 CL  -7.133  -0.697  -3.548
                                833 S  
                                         1.045E+04 1.971E-03 0.000E+00 0.000E+00
                                         1.572E+03 1.475E-02 0.000E+00 0.000E+00
                                         3.571E+02 6.668E-02 0.000E+00 0.000E+00
                                         1.003E+02 1.723E-01 0.000E+00 0.000E+00
                                         3.081E+01 1.588E-01 0.000E+00 0.000E+00
                                834 S  
                                         5.192E+01-1.001E-01 0.000E+00 0.000E+00
                                         5.705E+00 6.084E-01 0.000E+00 0.000E+00
                                         2.351E+00 5.435E-01 0.000E+00 0.000E+00
                                835 S  
                                         4.886E-01 1.000E+00 0.000E+00 0.000E+00
                                836 S  
                                         1.984E-01 1.000E+00 0.000E+00 0.000E+00
                         837-   839 P  
                                         3.077E+02 0.000E+00-8.780E-03 0.000E+00
                                         7.210E+01 0.000E+00-6.356E-02 0.000E+00
                                         2.253E+01 0.000E+00-2.402E-01 0.000E+00
                                         7.899E+00 0.000E+00-4.780E-01 0.000E+00
                                         2.877E+00 0.000E+00-3.852E-01 0.000E+00
                         840-   842 P  
                                         9.483E-01 0.000E+00 1.000E+00 0.000E+00
                         843-   845 P  
                                         2.521E-01 0.000E+00 1.000E+00 0.000E+00
                         846-   850 D  
                                         9.722E-01 0.000E+00 0.000E+00 1.000E+00
                         851-   855 D  
                                         2.060E-01 0.000E+00 0.000E+00 1.000E+00
  58 CL   7.133   0.697  -3.548
  59 CL  -0.697   7.133   3.548
  60 CL   0.697  -7.133   3.548
  61 ZN  10.039   0.000 -18.044
                                925 S  
                                         8.200E+04 1.421E-03 0.000E+00 0.000E+00
                                         1.231E+04 1.089E-02 0.000E+00 0.000E+00
                                         2.801E+03 5.406E-02 0.000E+00 0.000E+00
                                         7.910E+02 1.885E-01 0.000E+00 0.000E+00
                                         2.576E+02 3.835E-01 0.000E+00 0.000E+00
                                         8.881E+01 2.972E-01 0.000E+00 0.000E+00
                                926 S  
                                         1.719E+02-1.105E-01 0.000E+00 0.000E+00
                                         2.030E+01 6.461E-01 0.000E+00 0.000E+00
                                         8.346E+00 4.422E-01 0.000E+00 0.000E+00
                                927 S  
                                         1.485E+01-2.271E-01 0.000E+00 0.000E+00
                                         2.450E+00 7.243E-01 0.000E+00 0.000E+00
                                         9.985E-01 4.484E-01 0.000E+00 0.000E+00
                                928 S  
                                         1.493E+00 1.000E+00 0.000E+00 0.000E+00
                                929 S  
                                         1.830E-01 1.000E+00 0.000E+00 0.000E+00
                         930-   932 P  
                                         1.072E+03 0.000E+00 9.277E-03 0.000E+00
                                         2.527E+02 0.000E+00 6.954E-02 0.000E+00
                                         8.010E+01 0.000E+00 2.716E-01 0.000E+00
                                         2.890E+01 0.000E+00 5.340E-01 0.000E+00
                                         1.077E+01 0.000E+00 3.450E-01 0.000E+00
                         933-   935 P  
                                         5.645E+00 0.000E+00 3.413E-01 0.000E+00
                                         2.168E+00 0.000E+00 5.639E-01 0.000E+00
                                         8.054E-01 0.000E+00 2.368E-01 0.000E+00
                         936-   938 P  
                                         2.721E-01 0.000E+00 1.000E+00 0.000E+00
                         939-   943 D  
                                         5.609E+01 0.000E+00 0.000E+00 2.959E-02
                                         1.575E+01 0.000E+00 0.000E+00 1.587E-01
                                         5.312E+00 0.000E+00 0.000E+00 3.798E-01
                                         1.774E+00 0.000E+00 0.000E+00 4.690E-01
                         944-   948 D  
                                         5.073E-01 0.000E+00 0.000E+00 1.000E+00
                         949-   955 F  
                                         2.814E+00 0.000E+00 0.000E+00 1.000E+00
                         956-   962 F  
                                         1.300E+00 0.000E+00 0.000E+00 1.000E+00
  62 ZN   0.000   0.000  12.029

 *******************************************************************************
 FINISHED BASIS SET HANDLING 
 *******************************************************************************

 INFORMATION **** SET_MPP **** PCRYSTAL CALCULATION
 INFORMATION **** READM2 **** NEW DEFAULT: FOCK/KS MATRIX MIXING SET TO 30 %
 INFORMATION **** READM2 **** NEW DEFAULT: FULL DIRECT SCF MODE
 INFORMATION **** READM2 **** NEW DEFAULT: COULOMB BIPOLAR BUFFER SET TO 32 Mb
 INFORMATION **** READM2 **** NEW DEFAULT: EXCHANGE BIPOLAR BUFFER SET TO 32 Mb

 *******************************************************************************
 NEW DEFAULT: DFT INTEGRATION GRID INCREASED TO XLGRID
 NEW DEFAULT: DIIS ACCELERATOR ACTIVE
 USE KEYWORD NODIIS TO TURN IT OFF
 *******************************************************************************

 INFORMATION **** DFTD3_INPUT **** PERFORM DISPERSION CORRECTION DFT-D3(BJ) IN THE BECKE-JOHNSON DAMPING SCHEME

 PLEASE CITE:
 (1) DFT-D3 Reference
  S. Grimme, J. Antony, S. Ehrlich, and H. Krieg, J. Chem. Phys. 132 (2010), 154104
 (2) BJ-Damping Reference
  S. Grimme, S. Ehrlich, and L. Goerigk, J. Comput. Chem. 32 (2011), 1456-1465
 (3) General DFT-D Review
  S. Grimme, A. Hansen, J. G. Brandenburg, and C. Bannwarth,
  Chem. Rev. 116 (2016), 5105-5154

 INFORMATION **** TOLINTEG **** COULOMB AND EXCHANGE SERIES TOLERANCES MODIFIED
 INFORMATION **** BIPOSIZE **** COULOMB BIPOLAR BUFFER SET TO   100000000
 INFORMATION **** MAXCYCLE **** MAX NUMBER OF SCF CYCLES SET TO          50
 *******************************************************************************
 N. OF ATOMS PER CELL        62  COULOMB OVERLAP TOL         (T1) 10**  -12
 NUMBER OF SHELLS           396  COULOMB PENETRATION TOL     (T2) 10**  -12
 NUMBER OF AO              1000  EXCHANGE OVERLAP TOL        (T3) 10**   20
 N. OF ELECTRONS PER CELL   424  EXCHANGE PSEUDO OVP (F(G))  (T4) 10**   20
 CORE ELECTRONS PER CELL    164  EXCHANGE PSEUDO OVP (P(G))  (T5) 10**   20
 N. OF SYMMETRY OPERATORS     4  POLE ORDER IN MONO ZONE                  4
 *******************************************************************************
 TYPE OF CALCULATION :  RESTRICTED CLOSED SHELL
 KOHN-SHAM HAMILTONIAN

 (EXCHANGE)[CORRELATION] FUNCTIONAL:(PERDEW-BURKE-ERNZERHOF)[PERDEW-BURKE-ERNZERHOF]


 CAPPA:IS1  3;IS2  3;IS3  3; K PTS MONK NET   6; SYMMOPS:K SPACE   8;G SPACE   4

 *******************************************************************************
 MAX NUMBER OF SCF CYCLES      50  CONVERGENCE ON DELTAP        10**-16
 WEIGHT OF F(I) IN F(I+1)      30% CONVERGENCE ON ENERGY        10**- 6
 SHRINK. FACT.(MONKH.)    3  3  3  NUMBER OF K POINTS IN THE IBZ      6
 SHRINKING FACTOR(GILAT NET)    3  NUMBER OF K POINTS(GILAT NET)      6
 *******************************************************************************
 *** K POINTS COORDINATES (OBLIQUE COORDINATES IN UNITS OF IS =  3)
   1-R(  0  0  0)   2-C(  1  0  0)   3-C(  1  1  0)   4-C(  2  1  0)
   5-C(  2  1  1)   6-C(  2  2  1)

 DIRECT LATTICE VECTORS COMPON. (A.U.)     RECIP. LATTICE VECTORS COMPON. (A.U.) 
        X            Y            Z              X            Y            Z
  -10.0388973   10.0388973   12.0294523      0.0000000    0.3129420    0.2611584
   10.0388973  -10.0388973   12.0294523      0.3129420    0.0000000    0.2611584
   10.0388973   10.0388973  -12.0294523      0.3129420    0.3129420    0.0000000

 DISK SPACE FOR EIGENVECTORS (FTN 10)    11000000 REALS

 SYMMETRY ADAPTION OF THE BLOCH FUNCTIONS ENABLED
 TTTTTTTTTTTTTTTTTTTTTTTTTTTTTT gordsh1     TELAPSE        4.54 TCPU        0.08

 MATRIX SIZE: P(G) 1869048, F(G)  935288, P(G) IRR  236391, F(G) IRR  236391
 MAX G-VECTOR INDEX FOR 1- AND 2-ELECTRON INTEGRALS  59

 TTTTTTTTTTTTTTTTTTTTTTTTTTTTTT INPUT       TELAPSE        5.11 TCPU        0.65

 NEIGHBORS OF THE NON-EQUIVALENT ATOMS

 N = NUMBER OF NEIGHBORS AT DISTANCE R
    ATOM  N     R/ANG      R/AU   NEIGHBORS (ATOM LABELS AND CELL INDICES)
   1 H    1     1.0927     2.0650   21 C    0 0 0
   1 H    1     2.1760     4.1120   34 C    0 0 0
   1 H    1     2.1897     4.1379   13 C    0 0 0
   1 H    1     2.8218     5.3325   17 C    0-1 0
   1 H    1     2.9703     5.6131   57 CL   0 0 0
   1 H    1     3.0195     5.7060   60 CL   0-1 0

   5 H    1     1.0920     2.0635   29 C    0 0 0
   5 H    1     2.0689     3.9096   53 N    0 0 0
   5 H    1     2.1730     4.1063   13 C    0 0 0
   5 H    1     2.5342     4.7889   38 N    0 0 1
   5 H    1     2.6360     4.9813   37 N    0-1 0
   5 H    1     2.6434     4.9953   17 C    0-1 0

   9 H    1     1.0970     2.0731   25 C    0 0 0
   9 H    1     2.1002     3.9687   53 N    0 0 0
   9 H    1     2.1379     4.0400   54 N    0 0 0
   9 H    1     2.1628     4.0872   10 H    0 0 0
   9 H    1     2.1642     4.0898   34 C    0 0 0
   9 H    1     2.4918     4.7087   26 C    0 0 0

  13 C    1     1.4070     2.6588   29 C    0 0 0
  13 C    1     1.4080     2.6607   21 C    0 0 0
  13 C    1     1.4594     2.7579   17 C    0-1 0
  13 C    1     2.1730     4.1063    5 H    0 0 0
  13 C    1     2.1897     4.1379    1 H    0 0 0
  13 C    1     2.3873     4.5114   34 C    0 0 0

  17 C    1     1.3525     2.5559   45 N    0 0 0
  17 C    1     1.3607     2.5713   37 N    0 0 0
  17 C    1     1.4594     2.7579   13 C    0 1 0
  17 C    1     2.2003     4.1579   49 N    1 1 1
  17 C    1     2.2041     4.1651   41 N    1 1 1
  17 C    1     2.4386     4.6082   29 C    0 1 0

  21 C    1     1.0927     2.0650    1 H    0 0 0
  21 C    1     1.3959     2.6379   34 C    0 0 0
  21 C    1     1.4080     2.6607   13 C    0 0 0
  21 C    1     2.4220     4.5770   29 C    0 0 0
  21 C    1     2.4323     4.5964   25 C    0 0 0
  21 C    1     2.5358     4.7919   17 C    0-1 0

  25 C    1     1.0970     2.0731    9 H    0 0 0
  25 C    1     1.3426     2.5371   53 N    0 0 0
  25 C    1     1.3985     2.6429   34 C    0 0 0
  25 C    1     2.3021     4.3503   29 C    0 0 0
  25 C    1     2.4323     4.5964   21 C    0 0 0
  25 C    1     2.4918     4.7087   10 H    0 0 0

  29 C    1     1.0920     2.0635    5 H    0 0 0
  29 C    1     1.3390     2.5303   53 N    0 0 0
  29 C    1     1.4070     2.6588   13 C    0 0 0
  29 C    1     2.3021     4.3503   25 C    0 0 0
  29 C    1     2.4220     4.5770   21 C    0 0 0
  29 C    1     2.4386     4.6082   17 C    0-1 0

  33 C    1     1.3959     2.6379   22 C    0 0 0
  33 C    1     1.3985     2.6429   26 C    0 0 0
  33 C    1     1.7363     3.2812   58 CL   0 0 0
  33 C    1     2.1642     4.0898   10 H    0 0 0
  33 C    1     2.1760     4.1120    2 H    0 0 0
  33 C    1     2.3873     4.5114   14 C    0 0 0

  37 N    1     1.3607     2.5713   17 C    0 0 0
  37 N    1     1.3769     2.6019   41 N    1 1 1
  37 N    1     2.0374     3.8501   61 ZN   1 1 0
  37 N    1     2.1871     4.1331   49 N    1 1 1
  37 N    1     2.2013     4.1599   45 N    0 0 0
  37 N    1     2.4602     4.6490   13 C    0 1 0

  41 N    1     1.3164     2.4876   49 N    0 0 0
  41 N    1     1.3769     2.6019   37 N   -1-1-1
  41 N    1     2.1972     4.1522   45 N   -1-1-1
  41 N    1     2.2041     4.1651   17 C   -1-1-1
  41 N    1     2.7001     5.1025    6 H    0 0 0
  41 N    1     2.9631     5.5995   61 ZN   0 0-1

  45 N    1     1.3525     2.5559   17 C    0 0 0
  45 N    1     1.3857     2.6186   49 N    1 1 1
  45 N    1     2.0032     3.7854   62 ZN   0 0 0
  45 N    1     2.1972     4.1522   41 N    1 1 1
  45 N    1     2.2013     4.1599   37 N    0 0 0
  45 N    1     2.5500     4.8189   13 C    0 1 0

  49 N    1     1.3164     2.4876   41 N    0 0 0
  49 N    1     1.3857     2.6186   45 N   -1-1-1
  49 N    1     2.1871     4.1331   37 N   -1-1-1
  49 N    1     2.2003     4.1579   17 C   -1-1-1
  49 N    1     2.8262     5.3407   62 ZN  -1-1-1
  49 N    1     3.1415     5.9366    2 H    0-1-1

  53 N    1     1.3390     2.5303   29 C    0 0 0
  53 N    1     1.3426     2.5371   25 C    0 0 0
  53 N    1     2.0689     3.9096    5 H    0 0 0
  53 N    1     2.1002     3.9687    9 H    0 0 0
  53 N    1     2.1379     4.0400   10 H    0 0 0
  53 N    1     2.3944     4.5249   34 C    0 0 0

  57 CL   1     1.7363     3.2812   34 C    0 0 0
  57 CL   1     2.6562     5.0194   25 C    0 0 0
  57 CL   1     2.7586     5.2130    9 H    0 0 0
  57 CL   1     2.7642     5.2236   21 C    0 0 0
  57 CL   1     2.8735     5.4302    8 H    0 0 0
  57 CL   1     2.9703     5.6131    1 H    0 0 0

  61 ZN   4     2.0374     3.8501   37 N   -1-1 0   38 N   -1 0 1   39 N    0 0 1
                                    40 N   -1 0 0
  61 ZN   4     2.6925     5.0881    5 H   -1 0 0    6 H    0 0 1    7 H   -1-1 0
                                     8 H   -1 0 1
  61 ZN   4     2.9631     5.5995   41 N    0 0 1   42 N   -1 0 0   43 N   -1 0 1
                                    44 N   -1-1 0
  61 ZN   4     3.1249     5.9052   17 C   -1-1 0   18 C   -1 0 1   19 C    0 0 1
                                    20 C   -1 0 0
  61 ZN   4     3.1999     6.0469   29 C   -1 0 0   30 C    0 0 1   31 C   -1-1 0
                                    32 C   -1 0 1
  61 ZN   4     3.5229     6.6573   13 C   -1 0 0   14 C    0 0 1   15 C   -1-1 0
                                    16 C   -1 0 1

  62 ZN   4     2.0032     3.7854   45 N    0 0 0   46 N    0 0 0   47 N    1 1 0
                                    48 N    1 1 0
  62 ZN   4     2.8262     5.3407   49 N    1 1 1   50 N    0 0-1   51 N    0 1 0
                                    52 N    1 0 0
  62 ZN   4     3.1642     5.9794   17 C    0 0 0   18 C    0 0 0   19 C    1 1 0
                                    20 C    1 1 0
  62 ZN   4     3.4030     6.4308    1 H    0 1 0    2 H    1 0 0    3 H    0 0-1
                                     4 H    1 1 1
  62 ZN   4     3.8490     7.2735   13 C    0 1 0   14 C    1 0 0   15 C    0 0-1
                                    16 C    1 1 1
  62 ZN   4     3.9469     7.4586   21 C    0 1 0   22 C    1 0 0   23 C    0 0-1
                                    24 C    1 1 1


 SYMMETRY ALLOWED INTERNAL DEGREE(S) OF FREEDOM:  45
 TTTTTTTTTTTTTTTTTTTTTTTTTTTTTT SYMM        TELAPSE        5.15 TCPU        0.68
 TTTTTTTTTTTTTTTTTTTTTTTTTTTTTT INT_SCREEN  TELAPSE        5.15 TCPU        0.68
 INFORMATION **** EXCBUF **** EXCH. BIPO BUFFER: WORDS USED =           0

 DFT PARAMETERS

     ATOM       ELECTRONS   NET CHARGE   R(ANGSTROM)
   1   1  H       1.0000      0.0000     1.11000000
  13   6  C       6.0000      0.0000     0.77000000
  37   7  N       7.0000      0.0000     0.74000000
  57  17  CL     17.0000      0.0000     0.99000000
  61  30  ZN     30.0000      0.0000     1.37000000

 SIZE OF GRID=     453692
 TTTTTTTTTTTTTTTTTTTTTTTTTTTTTT MAKE_GRID2  TELAPSE        6.12 TCPU        1.65
 BECKE WEIGHT FUNCTION
 RADSAFE =     2.00
 TOLERANCES - DENSITY:10**- 6; POTENTIAL:10**- 9; GRID WGT:10**-14

 RADIAL INTEGRATION  - INTERVALS (POINTS,UPPER LIMIT):            1( 75,  4.0*R)

 ANGULAR INTEGRATION - INTERVALS (ACCURACY LEVEL [N. POINTS] UPPER LIMIT):
  1(  4[  86]   0.2)  2(  8[ 194]   0.5)  3( 12[ 350]   0.9)  4( 16[ 974]   3.5)
  5( 12[ 350]9999.0)
 TTTTTTTTTTTTTTTTTTTTTTTTTTTTTT INT_CALC    TELAPSE        6.16 TCPU        1.69
 EEEEEEEEEE INT_CALC TERMINATION  DATE 08 12 2023 TIME 22:51:39.4

 *******************************************************************************
 Z:\home\sanoj\Downloads\tmp_p\newconn.mol                                       
 CRYSTAL - SCF - TYPE OF CALCULATION :  RESTRICTED CLOSED SHELL
 *******************************************************************************

 CAPPA:IS1  3;IS2  3;IS3  3; K PTS MONK NET   6; SYMMOPS:K SPACE   8;G SPACE   4

 TTTTTTTTTTTTTTTTTTTTTTTTTTTTTT SDIK        TELAPSE        6.39 TCPU        1.92

 AAAAAAAAAAAAAAAAAAAAAAAAAAAAAAAAAAAAAAAAAAAAAAAAAAAAAAAAAAAAAAAAAAAAAAAAAAAAAAA
         ATOMIC WAVEFUNCTION(S)


 NUCLEAR CHARGE  1.0  SYMMETRY SPECIES            S
 N. ELECTRONS    1.0  NUMBER OF PRIMITIVE GTOS    4
                      NUMBER OF CONTRACTED GTOS   2
                      NUMBER OF CLOSED SHELLS     0
                      OPEN SHELL OCCUPATION       1

  ZNUC SCFIT  TOTAL HF ENERGY   KINETIC ENERGY   VIRIAL THEOREM ACCURACY
   1.0   1   -4.946643675E-01  4.917913167E-01 -2.005842012E+00  9.4E-17

 NUCLEAR CHARGE  6.0  SYMMETRY SPECIES            S    P
 N. ELECTRONS    6.0  NUMBER OF PRIMITIVE GTOS    7    4
                      NUMBER OF CONTRACTED GTOS   3    2
                      NUMBER OF CLOSED SHELLS     2    0
                      OPEN SHELL OCCUPATION       0    2

  ZNUC SCFIT  TOTAL HF ENERGY   KINETIC ENERGY   VIRIAL THEOREM ACCURACY
   6.0   6   -3.750912652E+01  3.905246519E+01 -1.960480378E+00  3.7E-06

 NUCLEAR CHARGE  7.0  SYMMETRY SPECIES            S    P
 N. ELECTRONS    7.0  NUMBER OF PRIMITIVE GTOS    7    4
                      NUMBER OF CONTRACTED GTOS   3    2
                      NUMBER OF CLOSED SHELLS     2    0
                      OPEN SHELL OCCUPATION       0    3

  ZNUC SCFIT  TOTAL HF ENERGY   KINETIC ENERGY   VIRIAL THEOREM ACCURACY
   7.0   9   -5.432196661E+01  5.425066284E+01 -2.001314339E+00  1.2E-06

 NUCLEAR CHARGE 17.0  SYMMETRY SPECIES            S    P
 N. ELECTRONS   17.0  NUMBER OF PRIMITIVE GTOS   10    7
                      NUMBER OF CONTRACTED GTOS   4    3
                      NUMBER OF CLOSED SHELLS     3    1
                      OPEN SHELL OCCUPATION       0    5

  ZNUC SCFIT  TOTAL HF ENERGY   KINETIC ENERGY   VIRIAL THEOREM ACCURACY
  17.0   9   -4.593005957E+02  4.593991532E+02 -1.999785464E+00  2.3E-06

 NUCLEAR CHARGE 30.0  SYMMETRY SPECIES            S    P    D
 N. ELECTRONS   30.0  NUMBER OF PRIMITIVE GTOS   14    9    5
                      NUMBER OF CONTRACTED GTOS   5    3    2
                      NUMBER OF CLOSED SHELLS     4    2    1
                      OPEN SHELL OCCUPATION       0    0    0

  ZNUC SCFIT  TOTAL HF ENERGY   KINETIC ENERGY   VIRIAL THEOREM ACCURACY
  30.0  10   -1.777404290E+03  1.777325716E+03 -2.000044209E+00  2.5E-06

 AAAAAAAAAAAAAAAAAAAAAAAAAAAAAAAAAAAAAAAAAAAAAAAAAAAAAAAAAAAAAAAAAAAAAAAAAAAAAAA

 TOTAL ATOMIC CHARGES:
   1.0000000   1.0000000   1.0000000   1.0000000   1.0000000   1.0000000
   1.0000000   1.0000000   1.0000000   1.0000000   1.0000000   1.0000000
   6.0000000   6.0000000   6.0000000   6.0000000   6.0000000   6.0000000
   6.0000000   6.0000000   6.0000000   6.0000000   6.0000000   6.0000000
   6.0000000   6.0000000   6.0000000   6.0000000   6.0000000   6.0000000
   6.0000000   6.0000000   6.0000000   6.0000000   6.0000000   6.0000000
   7.0000000   7.0000000   7.0000000   7.0000000   7.0000000   7.0000000
   7.0000000   7.0000000   7.0000000   7.0000000   7.0000000   7.0000000
   7.0000000   7.0000000   7.0000000   7.0000000   7.0000000   7.0000000
   7.0000000   7.0000000  17.0000000  17.0000000  17.0000000  17.0000000
  30.0000000  30.0000000
 TTTTTTTTTTTTTTTTTTTTTTTTTTTTTT MOQGAD      TELAPSE        7.90 TCPU        3.41
 TTTTTTTTTTTTTTTTTTTTTTTTTTTTTT SHELLXN     TELAPSE       96.66 TCPU       83.45
 TTTTTTTTTTTTTTTTTTTTTTTTTTTTTT MONMO3      TELAPSE      103.59 TCPU       90.35
 NUMERICALLY INTEGRATED DENSITY    423.9999239165
 TTTTTTTTTTTTTTTTTTTTTTTTTTTTTT NUMDFT      TELAPSE      106.09 TCPU       92.84
 CYC   0 ETOT(AU) -7.413734198948E+03 DETOT -7.41E+03 tst  0.00E+00 PX  1.00E+00
 TTTTTTTTTTTTTTTTTTTTTTTTTTTTTT DIIS        TELAPSE      106.18 TCPU       92.92
 TTTTTTTTTTTTTTTTTTTTTTTTTTTTTT FDIK        TELAPSE      141.94 TCPU      122.15
 INSULATING STATE
 TOP OF VALENCE BANDS -    BAND    212; K    3; EIG -1.3334214E-01 AU
 TOP OF VALENCE BANDS -    BAND    212; K    1; EIG -1.3524173E-01 AU
 BOTTOM OF VIRTUAL BANDS - BAND    213; K    2; EIG -1.0901154E-01 AU
 INDIRECT ENERGY BAND GAP:   0.6621 eV
 BOTTOM OF VIRTUAL BANDS - BAND    213; K    1; EIG -1.0874654E-01 AU
 TTTTTTTTTTTTTTTTTTTTTTTTTTTTTT PDIG        TELAPSE      142.54 TCPU      122.75
 TOTAL ATOMIC CHARGES:
   1.1521920   1.1521920   1.1521920   1.1521920   1.3170849   1.3170849
   1.3170849   1.3170849   1.2568437   1.2568437   1.2568437   1.2568437
   6.0163567   6.0163567   6.0163567   6.0163567   5.4677392   5.4677392
   5.4677392   5.4677392   6.2659762   6.2659762   6.2659762   6.2659762
   5.8582381   5.8582381   5.8582381   5.8582381   5.8455803   5.8455803
   5.8455803   5.8455803   5.1086943   5.1086943   5.1086943   5.1086943
   7.3891246   7.3891246   7.3891246   7.3891246   7.1845903   7.1845903
   7.1845903   7.1845903   7.3889726   7.3889726   7.3889726   7.3889726
   7.1578323   7.1578323   7.1578323   7.1578323   7.4510083   7.4510083
   7.4510083   7.4510083  17.2787094  17.2787094  17.2787094  17.2787094
  27.5884806  27.8557476
 TTTTTTTTTTTTTTTTTTTTTTTTTTTTTT MOQGAD      TELAPSE      142.59 TCPU      122.80
 TTTTTTTTTTTTTTTTTTTTTTTTTTTTTT SHELLXN     TELAPSE      239.62 TCPU      215.29
 TTTTTTTTTTTTTTTTTTTTTTTTTTTTTT MONMO3      TELAPSE      246.02 TCPU      221.68
 NUMERICALLY INTEGRATED DENSITY    424.0000005548
 TTTTTTTTTTTTTTTTTTTTTTTTTTTTTT NUMDFT      TELAPSE      253.03 TCPU      228.67
 CYC   1 ETOT(AU) -7.408702258370E+03 DETOT  5.03E+00 tst  0.00E+00 PX  1.00E+00
 TTTTTTTTTTTTTTTTTTTTTTTTTTTTTT DIIS        TELAPSE      253.18 TCPU      228.81
 DIIS TEST: 0.13877E+02 AT SCF   CYCLE   1 - MIX   30 %
 TTTTTTTTTTTTTTTTTTTTTTTTTTTTTT FDIK        TELAPSE      267.51 TCPU      240.99
 INSULATING STATE
 TOP OF VALENCE BANDS -    BAND    212; K    3; EIG -1.3994625E-01 AU
 TOP OF VALENCE BANDS -    BAND    212; K    1; EIG -1.4183932E-01 AU
 BOTTOM OF VIRTUAL BANDS - BAND    213; K    6; EIG -1.2709022E-01 AU
 INDIRECT ENERGY BAND GAP:   0.3498 eV
 BOTTOM OF VIRTUAL BANDS - BAND    213; K    1; EIG -1.2230741E-01 AU
 TTTTTTTTTTTTTTTTTTTTTTTTTTTTTT PDIG        TELAPSE      268.12 TCPU      241.59
 TOTAL ATOMIC CHARGES:
   1.1231710   1.1231710   1.1231710   1.1231710   1.3220101   1.3220101
   1.3220101   1.3220101   1.2277775   1.2277775   1.2277775   1.2277775
   6.2156134   6.2156134   6.2156134   6.2156134   6.2045996   6.2045996
   6.2045996   6.2045996   6.2522449   6.2522449   6.2522449   6.2522449
   5.9532368   5.9532368   5.9532368   5.9532368   6.2543164   6.2543164
   6.2543164   6.2543164   5.6741385   5.6741385   5.6741385   5.6741385
   7.0317836   7.0317836   7.0317836   7.0317836   6.8182891   6.8182891
   6.8182891   6.8182891   6.9688796   6.9688796   6.9688796   6.9688796
   6.8138025   6.8138025   6.8138025   6.8138025   6.0578741   6.0578741
   6.0578741   6.0578741  17.1527904  17.1527904  17.1527904  17.1527904
  30.0215641  29.6963258
 TTTTTTTTTTTTTTTTTTTTTTTTTTTTTT MOQGAD      TELAPSE      268.17 TCPU      241.64
 TTTTTTTTTTTTTTTTTTTTTTTTTTTTTT SHELLXN     TELAPSE      363.16 TCPU      334.27
 TTTTTTTTTTTTTTTTTTTTTTTTTTTTTT MONMO3      TELAPSE      369.01 TCPU      340.11
 NUMERICALLY INTEGRATED DENSITY    424.0000277209
 TTTTTTTTTTTTTTTTTTTTTTTTTTTTTT NUMDFT      TELAPSE      376.07 TCPU      347.14
 CYC   2 ETOT(AU) -7.407435997121E+03 DETOT  1.27E+00 tst  1.55E-01 PX  9.56E-01
 TTTTTTTTTTTTTTTTTTTTTTTTTTTTTT DIIS        TELAPSE      376.23 TCPU      347.31
 DIIS TEST: 0.20010E+02 AT SCF   CYCLE   2 - DIIS ACTIVE - HISTORY:     2 CYCLES
 TTTTTTTTTTTTTTTTTTTTTTTTTTTTTT FDIK        TELAPSE      389.88 TCPU      358.79
 INSULATING STATE
 TOP OF VALENCE BANDS -    BAND    212; K    1; EIG -2.5030684E-01 AU
 BOTTOM OF VIRTUAL BANDS - BAND    213; K    1; EIG -1.3608632E-01 AU
 DIRECT ENERGY BAND GAP:   3.1081 eV
 TTTTTTTTTTTTTTTTTTTTTTTTTTTTTT PDIG        TELAPSE      390.48 TCPU      359.39
 TOTAL ATOMIC CHARGES:
   1.0967481   1.0967481   1.0967481   1.0967481   1.2018340   1.2018340
   1.2018340   1.2018340   1.1583178   1.1583178   1.1583178   1.1583178
   5.8091394   5.8091394   5.8091394   5.8091394   5.7381751   5.7381751
   5.7381751   5.7381751   6.0364771   6.0364771   6.0364771   6.0364771
   6.1662723   6.1662723   6.1662723   6.1662723   5.9165938   5.9165938
   5.9165938   5.9165938   5.3616643   5.3616643   5.3616643   5.3616643
   6.9941318   6.9941318   6.9941318   6.9941318   7.1463468   7.1463468
   7.1463468   7.1463468   7.0573853   7.0573853   7.0573853   7.0573853
   7.1269177   7.1269177   7.1269177   7.1269177   7.4914908   7.4914908
   7.4914908   7.4914908  17.1332453  17.1332453  17.1332453  17.1332453
  29.1308269  29.1302153
 TTTTTTTTTTTTTTTTTTTTTTTTTTTTTT MOQGAD      TELAPSE      390.53 TCPU      359.44
 TTTTTTTTTTTTTTTTTTTTTTTTTTTTTT SHELLXN     TELAPSE      487.49 TCPU      452.00
 TTTTTTTTTTTTTTTTTTTTTTTTTTTTTT MONMO3      TELAPSE      494.11 TCPU      458.60
 NUMERICALLY INTEGRATED DENSITY    424.0000002811
 TTTTTTTTTTTTTTTTTTTTTTTTTTTTTT NUMDFT      TELAPSE      501.26 TCPU      465.73
 CYC   3 ETOT(AU) -7.410127694716E+03 DETOT -2.69E+00 tst  2.69E-02 PX  7.44E-01
 TTTTTTTTTTTTTTTTTTTTTTTTTTTTTT DIIS        TELAPSE      501.44 TCPU      465.91
 DIIS TEST: 0.52122E+01 AT SCF   CYCLE   3 - DIIS ACTIVE - HISTORY:     3 CYCLES
 TTTTTTTTTTTTTTTTTTTTTTTTTTTTTT FDIK        TELAPSE      514.23 TCPU      476.54
 INSULATING STATE
 TOP OF VALENCE BANDS -    BAND    212; K    4; EIG -2.1315144E-01 AU
 TOP OF VALENCE BANDS -    BAND    212; K    1; EIG -2.1452811E-01 AU
 BOTTOM OF VIRTUAL BANDS - BAND    213; K    1; EIG -1.2492681E-01 AU
 INDIRECT ENERGY BAND GAP:   2.4007 eV
 TTTTTTTTTTTTTTTTTTTTTTTTTTTTTT PDIG        TELAPSE      514.83 TCPU      477.14
 TOTAL ATOMIC CHARGES:
   1.0859004   1.0859004   1.0859004   1.0859004   1.2395924   1.2395924
   1.2395924   1.2395924   1.2004622   1.2004622   1.2004622   1.2004622
   6.1545902   6.1545902   6.1545902   6.1545902   5.7411226   5.7411226
   5.7411226   5.7411226   6.3626506   6.3626506   6.3626506   6.3626506
   5.7545651   5.7545651   5.7545651   5.7545651   6.0214869   6.0214869
   6.0214869   6.0214869   5.3281058   5.3281058   5.3281058   5.3281058
   7.2888944   7.2888944   7.2888944   7.2888944   7.0504198   7.0504198
   7.0504198   7.0504198   7.2186894   7.2186894   7.2186894   7.2186894
   7.0167182   7.0167182   7.0167182   7.0167182   6.9312425   6.9312425
   6.9312425   6.9312425  17.2548518  17.2548518  17.2548518  17.2548518
  28.6625741  28.7402561
 TTTTTTTTTTTTTTTTTTTTTTTTTTTTTT MOQGAD      TELAPSE      514.88 TCPU      477.19
 TTTTTTTTTTTTTTTTTTTTTTTTTTTTTT SHELLXN     TELAPSE      609.88 TCPU      569.81
 TTTTTTTTTTTTTTTTTTTTTTTTTTTTTT MONMO3      TELAPSE      616.00 TCPU      575.92
 NUMERICALLY INTEGRATED DENSITY    424.0000002989
 TTTTTTTTTTTTTTTTTTTTTTTTTTTTTT NUMDFT      TELAPSE      623.04 TCPU      582.95
 CYC   4 ETOT(AU) -7.410520937294E+03 DETOT -3.93E-01 tst  8.53E-03 PX  2.14E-01
 TTTTTTTTTTTTTTTTTTTTTTTTTTTTTT DIIS        TELAPSE      623.21 TCPU      583.11
 DIIS TEST: 0.18879E+01 AT SCF   CYCLE   4 - DIIS ACTIVE - HISTORY:     4 CYCLES
 TTTTTTTTTTTTTTTTTTTTTTTTTTTTTT FDIK        TELAPSE      635.16 TCPU      592.82
 INSULATING STATE
 TOP OF VALENCE BANDS -    BAND    212; K    4; EIG -2.3508197E-01 AU
 TOP OF VALENCE BANDS -    BAND    212; K    1; EIG -2.3721087E-01 AU
 BOTTOM OF VIRTUAL BANDS - BAND    213; K    1; EIG -1.2759397E-01 AU
 INDIRECT ENERGY BAND GAP:   2.9249 eV
 TTTTTTTTTTTTTTTTTTTTTTTTTTTTTT PDIG        TELAPSE      635.76 TCPU      593.42
 TOTAL ATOMIC CHARGES:
   1.0948675   1.0948675   1.0948675   1.0948675   1.2346143   1.2346143
   1.2346143   1.2346143   1.1878030   1.1878030   1.1878030   1.1878030
   6.0380256   6.0380256   6.0380256   6.0380256   5.7648711   5.7648711
   5.7648711   5.7648711   6.2226993   6.2226993   6.2226993   6.2226993
   5.9680897   5.9680897   5.9680897   5.9680897   6.0259572   6.0259572
   6.0259572   6.0259572   5.4124371   5.4124371   5.4124371   5.4124371
   7.1877005   7.1877005   7.1877005   7.1877005   7.0560619   7.0560619
   7.0560619   7.0560619   7.1552717   7.1552717   7.1552717   7.1552717
   7.0385349   7.0385349   7.0385349   7.0385349   7.0032229   7.0032229
   7.0032229   7.0032229  17.2002654  17.2002654  17.2002654  17.2002654
  28.8058666  28.8324452
 TTTTTTTTTTTTTTTTTTTTTTTTTTTTTT MOQGAD      TELAPSE      635.81 TCPU      593.46
 TTTTTTTTTTTTTTTTTTTTTTTTTTTTTT SHELLXN     TELAPSE      731.11 TCPU      686.22
 TTTTTTTTTTTTTTTTTTTTTTTTTTTTTT MONMO3      TELAPSE      736.61 TCPU      691.70
 NUMERICALLY INTEGRATED DENSITY    424.0000072842
 TTTTTTTTTTTTTTTTTTTTTTTTTTTTTT NUMDFT      TELAPSE      743.66 TCPU      698.73
 CYC   5 ETOT(AU) -7.410802311648E+03 DETOT -2.81E-01 tst  1.19E-03 PX  1.70E-01
 TTTTTTTTTTTTTTTTTTTTTTTTTTTTTT DIIS        TELAPSE      743.83 TCPU      698.90
 DIIS TEST: 0.54307E-01 AT SCF   CYCLE   5 - DIIS ACTIVE - HISTORY:     5 CYCLES
 TTTTTTTTTTTTTTTTTTTTTTTTTTTTTT FDIK        TELAPSE      755.54 TCPU      708.50
 INSULATING STATE
 TOP OF VALENCE BANDS -    BAND    212; K    4; EIG -2.3593144E-01 AU
 TOP OF VALENCE BANDS -    BAND    212; K    1; EIG -2.3801810E-01 AU
 BOTTOM OF VIRTUAL BANDS - BAND    213; K    1; EIG -1.2753376E-01 AU
 INDIRECT ENERGY BAND GAP:   2.9497 eV
 TTTTTTTTTTTTTTTTTTTTTTTTTTTTTT PDIG        TELAPSE      756.14 TCPU      709.10
 TOTAL ATOMIC CHARGES:
   1.0945072   1.0945072   1.0945072   1.0945072   1.2320729   1.2320729
   1.2320729   1.2320729   1.1887956   1.1887956   1.1887956   1.1887956
   6.0651312   6.0651312   6.0651312   6.0651312   5.7914144   5.7914144
   5.7914144   5.7914144   6.2401343   6.2401343   6.2401343   6.2401343
   5.8905490   5.8905490   5.8905490   5.8905490   6.0014132   6.0014132
   6.0014132   6.0014132   5.3580828   5.3580828   5.3580828   5.3580828
   7.1540693   7.1540693   7.1540693   7.1540693   7.0617489   7.0617489
   7.0617489   7.0617489   7.1462156   7.1462156   7.1462156   7.1462156
   7.0462064   7.0462064   7.0462064   7.0462064   7.0871316   7.0871316
   7.0871316   7.0871316  17.2056211  17.2056211  17.2056211  17.2056211
  28.8587142  28.8889112
 TTTTTTTTTTTTTTTTTTTTTTTTTTTTTT MOQGAD      TELAPSE      756.19 TCPU      709.14
 TTTTTTTTTTTTTTTTTTTTTTTTTTTTTT SHELLXN     TELAPSE      851.07 TCPU      801.67
 TTTTTTTTTTTTTTTTTTTTTTTTTTTTTT MONMO3      TELAPSE      856.73 TCPU      807.29
 NUMERICALLY INTEGRATED DENSITY    424.0000052375
 TTTTTTTTTTTTTTTTTTTTTTTTTTTTTT NUMDFT      TELAPSE      863.90 TCPU      814.44
 CYC   6 ETOT(AU) -7.410804428064E+03 DETOT -2.12E-03 tst  8.73E-05 PX  2.42E-02
 TTTTTTTTTTTTTTTTTTTTTTTTTTTTTT DIIS        TELAPSE      864.09 TCPU      814.62
 DIIS TEST: 0.42939E-01 AT SCF   CYCLE   6 - DIIS ACTIVE - HISTORY:     6 CYCLES
 TTTTTTTTTTTTTTTTTTTTTTTTTTTTTT FDIK        TELAPSE      875.10 TCPU      823.51
 INSULATING STATE
 TOP OF VALENCE BANDS -    BAND    212; K    4; EIG -2.3385536E-01 AU
 TOP OF VALENCE BANDS -    BAND    212; K    1; EIG -2.3592654E-01 AU
 BOTTOM OF VIRTUAL BANDS - BAND    213; K    1; EIG -1.2757264E-01 AU
 INDIRECT ENERGY BAND GAP:   2.8921 eV
 TTTTTTTTTTTTTTTTTTTTTTTTTTTTTT PDIG        TELAPSE      875.71 TCPU      824.12
 TOTAL ATOMIC CHARGES:
   1.0932047   1.0932047   1.0932047   1.0932047   1.2324167   1.2324167
   1.2324167   1.2324167   1.1861480   1.1861480   1.1861480   1.1861480
   6.0335207   6.0335207   6.0335207   6.0335207   5.7748476   5.7748476
   5.7748476   5.7748476   6.2303977   6.2303977   6.2303977   6.2303977
   5.9424986   5.9424986   5.9424986   5.9424986   6.0084637   6.0084637
   6.0084637   6.0084637   5.3964882   5.3964882   5.3964882   5.3964882
   7.1815529   7.1815529   7.1815529   7.1815529   7.0644061   7.0644061
   7.0644061   7.0644061   7.1454430   7.1454430   7.1454430   7.1454430
   7.0378950   7.0378950   7.0378950   7.0378950   7.0407725   7.0407725
   7.0407725   7.0407725  17.1993321  17.1993321  17.1993321  17.1993321
  28.8495282  28.8809208
 TTTTTTTTTTTTTTTTTTTTTTTTTTTTTT MOQGAD      TELAPSE      875.76 TCPU      824.16
 TTTTTTTTTTTTTTTTTTTTTTTTTTTTTT SHELLXN     TELAPSE      970.87 TCPU      916.67
 TTTTTTTTTTTTTTTTTTTTTTTTTTTTTT MONMO3      TELAPSE      975.97 TCPU      921.76
 NUMERICALLY INTEGRATED DENSITY    424.0000055402
 TTTTTTTTTTTTTTTTTTTTTTTTTTTTTT NUMDFT      TELAPSE      983.03 TCPU      928.79
 CYC   7 ETOT(AU) -7.410810058556E+03 DETOT -5.63E-03 tst  2.30E-05 PX  1.70E-02
 TTTTTTTTTTTTTTTTTTTTTTTTTTTTTT DIIS        TELAPSE      983.21 TCPU      928.96
 DIIS TEST: 0.45669E-02 AT SCF   CYCLE   7 - DIIS ACTIVE - HISTORY:     7 CYCLES
 TTTTTTTTTTTTTTTTTTTTTTTTTTTTTT FDIK        TELAPSE      995.04 TCPU      938.68
 INSULATING STATE
 TOP OF VALENCE BANDS -    BAND    212; K    4; EIG -2.3474298E-01 AU
 TOP OF VALENCE BANDS -    BAND    212; K    1; EIG -2.3682295E-01 AU
 BOTTOM OF VIRTUAL BANDS - BAND    213; K    1; EIG -1.2757948E-01 AU
 INDIRECT ENERGY BAND GAP:   2.9161 eV
 TTTTTTTTTTTTTTTTTTTTTTTTTTTTTT PDIG        TELAPSE      995.64 TCPU      939.28
 TOTAL ATOMIC CHARGES:
   1.0934765   1.0934765   1.0934765   1.0934765   1.2299347   1.2299347
   1.2299347   1.2299347   1.1870874   1.1870874   1.1870874   1.1870874
   6.0453294   6.0453294   6.0453294   6.0453294   5.7758672   5.7758672
   5.7758672   5.7758672   6.2243466   6.2243466   6.2243466   6.2243466
   5.9392957   5.9392957   5.9392957   5.9392957   6.0161494   6.0161494
   6.0161494   6.0161494   5.3830197   5.3830197   5.3830197   5.3830197
   7.1660169   7.1660169   7.1660169   7.1660169   7.0521456   7.0521456
   7.0521456   7.0521456   7.1577714   7.1577714   7.1577714   7.1577714
   7.0464301   7.0464301   7.0464301   7.0464301   7.0471211   7.0471211
   7.0471211   7.0471211  17.2029749  17.2029749  17.2029749  17.2029749
  28.8519361  28.8801972
 TTTTTTTTTTTTTTTTTTTTTTTTTTTTTT MOQGAD      TELAPSE      995.69 TCPU      939.33
 TTTTTTTTTTTTTTTTTTTTTTTTTTTTTT SHELLXN     TELAPSE     1090.88 TCPU     1032.07
 TTTTTTTTTTTTTTTTTTTTTTTTTTTTTT MONMO3      TELAPSE     1095.77 TCPU     1036.94
 NUMERICALLY INTEGRATED DENSITY    424.0000058875
 TTTTTTTTTTTTTTTTTTTTTTTTTTTTTT NUMDFT      TELAPSE     1102.96 TCPU     1044.11
 CYC   8 ETOT(AU) -7.410810356339E+03 DETOT -2.98E-04 tst  4.27E-06 PX  4.58E-03
 TTTTTTTTTTTTTTTTTTTTTTTTTTTTTT DIIS        TELAPSE     1103.14 TCPU     1044.29
 DIIS TEST: 0.25344E-02 AT SCF   CYCLE   8 - DIIS ACTIVE - HISTORY:     8 CYCLES
 TTTTTTTTTTTTTTTTTTTTTTTTTTTTTT FDIK        TELAPSE     1113.69 TCPU     1052.69
 INSULATING STATE
 TOP OF VALENCE BANDS -    BAND    212; K    4; EIG -2.3508065E-01 AU
 TOP OF VALENCE BANDS -    BAND    212; K    1; EIG -2.3717453E-01 AU
 BOTTOM OF VIRTUAL BANDS - BAND    213; K    1; EIG -1.2764644E-01 AU
 INDIRECT ENERGY BAND GAP:   2.9234 eV
 TTTTTTTTTTTTTTTTTTTTTTTTTTTTTT PDIG        TELAPSE     1114.29 TCPU     1053.29
 TOTAL ATOMIC CHARGES:
   1.0928342   1.0928342   1.0928342   1.0928342   1.2306488   1.2306488
   1.2306488   1.2306488   1.1869147   1.1869147   1.1869147   1.1869147
   6.0434512   6.0434512   6.0434512   6.0434512   5.7755448   5.7755448
   5.7755448   5.7755448   6.2276395   6.2276395   6.2276395   6.2276395
   5.9344245   5.9344245   5.9344245   5.9344245   6.0119845   6.0119845
   6.0119845   6.0119845   5.3857736   5.3857736   5.3857736   5.3857736
   7.1755303   7.1755303   7.1755303   7.1755303   7.0651076   7.0651076
   7.0651076   7.0651076   7.1448448   7.1448448   7.1448448   7.1448448
   7.0376241   7.0376241   7.0376241   7.0376241   7.0520812   7.0520812
   7.0520812   7.0520812  17.2023846  17.2023846  17.2023846  17.2023846
  28.8525819  28.8802654
 TTTTTTTTTTTTTTTTTTTTTTTTTTTTTT MOQGAD      TELAPSE     1114.34 TCPU     1053.34
 TTTTTTTTTTTTTTTTTTTTTTTTTTTTTT SHELLXN     TELAPSE     1209.15 TCPU     1145.72
 TTTTTTTTTTTTTTTTTTTTTTTTTTTTTT MONMO3      TELAPSE     1215.31 TCPU     1151.87
 NUMERICALLY INTEGRATED DENSITY    424.0000057731
 TTTTTTTTTTTTTTTTTTTTTTTTTTTTTT NUMDFT      TELAPSE     1222.35 TCPU     1158.89
 CYC   9 ETOT(AU) -7.410810622216E+03 DETOT -2.66E-04 tst  4.07E-06 PX  4.24E-03
 TTTTTTTTTTTTTTTTTTTTTTTTTTTTTT DIIS        TELAPSE     1222.55 TCPU     1159.08
 DIIS TEST: 0.86035E-03 AT SCF   CYCLE   9 - DIIS ACTIVE - HISTORY:     9 CYCLES
 TTTTTTTTTTTTTTTTTTTTTTTTTTTTTT FDIK        TELAPSE     1230.87 TCPU     1167.29
 INSULATING STATE
 TOP OF VALENCE BANDS -    BAND    212; K    4; EIG -2.3486184E-01 AU
 TOP OF VALENCE BANDS -    BAND    212; K    1; EIG -2.3695495E-01 AU
 BOTTOM OF VIRTUAL BANDS - BAND    213; K    1; EIG -1.2763748E-01 AU
 INDIRECT ENERGY BAND GAP:   2.9177 eV
 TTTTTTTTTTTTTTTTTTTTTTTTTTTTTT PDIG        TELAPSE     1231.47 TCPU     1167.88
 TOTAL ATOMIC CHARGES:
   1.0930592   1.0930592   1.0930592   1.0930592   1.2310662   1.2310662
   1.2310662   1.2310662   1.1867917   1.1867917   1.1867917   1.1867917
   6.0413735   6.0413735   6.0413735   6.0413735   5.7756395   5.7756395
   5.7756395   5.7756395   6.2299158   6.2299158   6.2299158   6.2299158
   5.9349862   5.9349862   5.9349862   5.9349862   6.0079487   6.0079487
   6.0079487   6.0079487   5.3881938   5.3881938   5.3881938   5.3881938
   7.1711391   7.1711391   7.1711391   7.1711391   7.0602601   7.0602601
   7.0602601   7.0602601   7.1500567   7.1500567   7.1500567   7.1500567
   7.0430758   7.0430758   7.0430758   7.0430758   7.0515941   7.0515941
   7.0515941   7.0515941  17.2019766  17.2019766  17.2019766  17.2019766
  28.8511639  28.8805282
 TTTTTTTTTTTTTTTTTTTTTTTTTTTTTT MOQGAD      TELAPSE     1231.52 TCPU     1167.93
 TTTTTTTTTTTTTTTTTTTTTTTTTTTTTT SHELLXN     TELAPSE     1328.81 TCPU     1260.68
 TTTTTTTTTTTTTTTTTTTTTTTTTTTTTT MONMO3      TELAPSE     1332.39 TCPU     1264.25
 NUMERICALLY INTEGRATED DENSITY    424.0000056754
 TTTTTTTTTTTTTTTTTTTTTTTTTTTTTT NUMDFT      TELAPSE     1339.43 TCPU     1271.26
 CYC  10 ETOT(AU) -7.410810722173E+03 DETOT -1.00E-04 tst  8.69E-07 PX  1.78E-03
 TTTTTTTTTTTTTTTTTTTTTTTTTTTTTT DIIS        TELAPSE     1339.77 TCPU     1271.59
 DIIS TEST: 0.20877E-03 AT SCF   CYCLE  10 - DIIS ACTIVE - HISTORY:    10 CYCLES
 TTTTTTTTTTTTTTTTTTTTTTTTTTTTTT FDIK        TELAPSE     1351.10 TCPU     1280.77
 INSULATING STATE
 TOP OF VALENCE BANDS -    BAND    212; K    4; EIG -2.3492049E-01 AU
 TOP OF VALENCE BANDS -    BAND    212; K    1; EIG -2.3701307E-01 AU
 BOTTOM OF VIRTUAL BANDS - BAND    213; K    1; EIG -1.2765213E-01 AU
 INDIRECT ENERGY BAND GAP:   2.9189 eV
 TTTTTTTTTTTTTTTTTTTTTTTTTTTTTT PDIG        TELAPSE     1351.70 TCPU     1281.37
 TOTAL ATOMIC CHARGES:
   1.0932786   1.0932786   1.0932786   1.0932786   1.2308951   1.2308951
   1.2308951   1.2308951   1.1867310   1.1867310   1.1867310   1.1867310
   6.0416904   6.0416904   6.0416904   6.0416904   5.7764150   5.7764150
   5.7764150   5.7764150   6.2277990   6.2277990   6.2277990   6.2277990
   5.9361183   5.9361183   5.9361183   5.9361183   6.0111955   6.0111955
   6.0111955   6.0111955   5.3860421   5.3860421   5.3860421   5.3860421
   7.1724968   7.1724968   7.1724968   7.1724968   7.0603760   7.0603760
   7.0603760   7.0603760   7.1497407   7.1497407   7.1497407   7.1497407
   7.0415847   7.0415847   7.0415847   7.0415847   7.0512111   7.0512111
   7.0512111   7.0512111  17.2017731  17.2017731  17.2017731  17.2017731
  28.8508501  28.8797604
 TTTTTTTTTTTTTTTTTTTTTTTTTTTTTT MOQGAD      TELAPSE     1351.75 TCPU     1281.42
 TTTTTTTTTTTTTTTTTTTTTTTTTTTTTT SHELLXN     TELAPSE     1446.71 TCPU     1373.96
 TTTTTTTTTTTTTTTTTTTTTTTTTTTTTT MONMO3      TELAPSE     1452.46 TCPU     1379.69
 NUMERICALLY INTEGRATED DENSITY    424.0000057316
 TTTTTTTTTTTTTTTTTTTTTTTTTTTTTT NUMDFT      TELAPSE     1459.54 TCPU     1386.74
 CYC  11 ETOT(AU) -7.410810747201E+03 DETOT -2.50E-05 tst  1.24E-07 PX  9.95E-04
 TTTTTTTTTTTTTTTTTTTTTTTTTTTTTT DIIS        TELAPSE     1459.73 TCPU     1386.94
 DIIS TEST: 0.18471E-04 AT SCF   CYCLE  11 - DIIS ACTIVE - HISTORY:    11 CYCLES
 TTTTTTTTTTTTTTTTTTTTTTTTTTTTTT FDIK        TELAPSE     1470.89 TCPU     1395.98
 INSULATING STATE
 TOP OF VALENCE BANDS -    BAND    212; K    4; EIG -2.3489360E-01 AU
 TOP OF VALENCE BANDS -    BAND    212; K    1; EIG -2.3698414E-01 AU
 BOTTOM OF VIRTUAL BANDS - BAND    213; K    1; EIG -1.2762395E-01 AU
 INDIRECT ENERGY BAND GAP:   2.9190 eV
 TTTTTTTTTTTTTTTTTTTTTTTTTTTTTT PDIG        TELAPSE     1471.50 TCPU     1396.58
 TOTAL ATOMIC CHARGES:
   1.0931569   1.0931569   1.0931569   1.0931569   1.2308745   1.2308745
   1.2308745   1.2308745   1.1867856   1.1867856   1.1867856   1.1867856
   6.0423828   6.0423828   6.0423828   6.0423828   5.7759443   5.7759443
   5.7759443   5.7759443   6.2283936   6.2283936   6.2283936   6.2283936
   5.9357030   5.9357030   5.9357030   5.9357030   6.0106628   6.0106628
   6.0106628   6.0106628   5.3862624   5.3862624   5.3862624   5.3862624
   7.1713921   7.1713921   7.1713921   7.1713921   7.0614134   7.0614134
   7.0614134   7.0614134   7.1490989   7.1490989   7.1490989   7.1490989
   7.0418274   7.0418274   7.0418274   7.0418274   7.0508540   7.0508540
   7.0508540   7.0508540  17.2023764  17.2023764  17.2023764  17.2023764
  28.8513101  28.8801784
 TTTTTTTTTTTTTTTTTTTTTTTTTTTTTT MOQGAD      TELAPSE     1471.54 TCPU     1396.63
 TTTTTTTTTTTTTTTTTTTTTTTTTTTTTT SHELLXN     TELAPSE     1566.42 TCPU     1489.07
 TTTTTTTTTTTTTTTTTTTTTTTTTTTTTT MONMO3      TELAPSE     1572.32 TCPU     1494.96
 NUMERICALLY INTEGRATED DENSITY    424.0000057143
 TTTTTTTTTTTTTTTTTTTTTTTTTTTTTT NUMDFT      TELAPSE     1579.41 TCPU     1502.03
 CYC  12 ETOT(AU) -7.410810748330E+03 DETOT -1.13E-06 tst  2.42E-08 PX  2.79E-04
 TTTTTTTTTTTTTTTTTTTTTTTTTTTTTT DIIS        TELAPSE     1579.59 TCPU     1502.20
 DIIS TEST: 0.10392E-04 AT SCF   CYCLE  12 - DIIS ACTIVE - HISTORY:    12 CYCLES
 TTTTTTTTTTTTTTTTTTTTTTTTTTTTTT FDIK        TELAPSE     1591.05 TCPU     1511.53
 INSULATING STATE
 TOP OF VALENCE BANDS -    BAND    212; K    4; EIG -2.3491514E-01 AU
 TOP OF VALENCE BANDS -    BAND    212; K    1; EIG -2.3700667E-01 AU
 BOTTOM OF VIRTUAL BANDS - BAND    213; K    1; EIG -1.2764106E-01 AU
 INDIRECT ENERGY BAND GAP:   2.9191 eV
 TTTTTTTTTTTTTTTTTTTTTTTTTTTTTT PDIG        TELAPSE     1591.65 TCPU     1512.12
 TOTAL ATOMIC CHARGES:
   1.0931859   1.0931859   1.0931859   1.0931859   1.2308765   1.2308765
   1.2308765   1.2308765   1.1868071   1.1868071   1.1868071   1.1868071
   6.0421232   6.0421232   6.0421232   6.0421232   5.7759075   5.7759075
   5.7759075   5.7759075   6.2282505   6.2282505   6.2282505   6.2282505
   5.9356504   5.9356504   5.9356504   5.9356504   6.0105499   6.0105499
   6.0105499   6.0105499   5.3862802   5.3862802   5.3862802   5.3862802
   7.1724949   7.1724949   7.1724949   7.1724949   7.0603475   7.0603475
   7.0603475   7.0603475   7.1497525   7.1497525   7.1497525   7.1497525
   7.0415181   7.0415181   7.0415181   7.0415181   7.0512204   7.0512204
   7.0512204   7.0512204  17.2022110  17.2022110  17.2022110  17.2022110
  28.8511915  28.8801055
 TTTTTTTTTTTTTTTTTTTTTTTTTTTTTT MOQGAD      TELAPSE     1591.70 TCPU     1512.17
 TTTTTTTTTTTTTTTTTTTTTTTTTTTTTT SHELLXN     TELAPSE     1686.52 TCPU     1604.59
 TTTTTTTTTTTTTTTTTTTTTTTTTTTTTT MONMO3      TELAPSE     1694.58 TCPU     1612.63
 NUMERICALLY INTEGRATED DENSITY    424.0000057527
 TTTTTTTTTTTTTTTTTTTTTTTTTTTTTT NUMDFT      TELAPSE     1701.63 TCPU     1619.67
 CYC  13 ETOT(AU) -7.410810749422E+03 DETOT -1.09E-06 tst  2.43E-08 PX  2.77E-04
 TTTTTTTTTTTTTTTTTTTTTTTTTTTTTT DIIS        TELAPSE     1701.82 TCPU     1619.85
 DIIS TEST: 0.29906E-05 AT SCF   CYCLE  13 - DIIS ACTIVE - HISTORY:    13 CYCLES
[...]
 DIIS TEST: 0.34817E+00 AT CPHF  CYCLE   6 - DIIS ACTIVE - HISTORY:     6 CYCLES
 CYCLE   6   ALPHA 1133.892365  EPSILON    3.938352  DELTA    3.0832E+00
 TTTTTTTTTTTTTTTTTTTTTTTTTTTTTT MOQGAD      TELAPSE   173709.93 TCPU   172810.23
 TTTTTTTTTTTTTTTTTTTTTTTTTTTTTT CP_MONMON   TELAPSE   173743.18 TCPU   172843.39
 DIIS TEST: 0.31140E-01 AT CPHF  CYCLE   7 - DIIS ACTIVE - HISTORY:     7 CYCLES
 CYCLE   7   ALPHA 1134.417700  EPSILON    3.939713  DELTA    5.2533E-01
 TTTTTTTTTTTTTTTTTTTTTTTTTTTTTT MOQGAD      TELAPSE   175440.98 TCPU   174533.53
 TTTTTTTTTTTTTTTTTTTTTTTTTTTTTT CP_MONMON   TELAPSE   175474.15 TCPU   174566.62
 DIIS TEST: 0.10469E-01 AT CPHF  CYCLE   8 - DIIS ACTIVE - HISTORY:     8 CYCLES
 CYCLE   8   ALPHA 1134.478082  EPSILON    3.939870  DELTA    6.0382E-02
 TTTTTTTTTTTTTTTTTTTTTTTTTTTTTT MOQGAD      TELAPSE   177154.01 TCPU   176238.81
 TTTTTTTTTTTTTTTTTTTTTTTTTTTTTT CP_MONMON   TELAPSE   177187.32 TCPU   176272.01
 DIIS TEST: 0.25288E-01 AT CPHF  CYCLE   9 - DIIS ACTIVE - HISTORY:     9 CYCLES
 CYCLE   9   ALPHA 1134.661103  EPSILON    3.940344  DELTA    1.8302E-01
 TTTTTTTTTTTTTTTTTTTTTTTTTTTTTT MOQGAD      TELAPSE   178924.39 TCPU   177997.80
 TTTTTTTTTTTTTTTTTTTTTTTTTTTTTT CP_MONMON   TELAPSE   178957.66 TCPU   178030.96
 DIIS TEST: 0.99145E-03 AT CPHF  CYCLE  10 - DIIS ACTIVE - HISTORY:    10 CYCLES
 CYCLE  10   ALPHA 1134.627794  EPSILON    3.940258  DELTA   -3.3309E-02
 TTTTTTTTTTTTTTTTTTTTTTTTTTTTTT MOQGAD      TELAPSE   180670.48 TCPU   179737.18
 TTTTTTTTTTTTTTTTTTTTTTTTTTTTTT CP_MONMON   TELAPSE   180703.66 TCPU   179770.24
 DIIS TEST: 0.14894E-03 AT CPHF  CYCLE  11 - DIIS ACTIVE - HISTORY:    11 CYCLES
 CYCLE  11   ALPHA 1134.606193  EPSILON    3.940202  DELTA   -2.1602E-02
 TTTTTTTTTTTTTTTTTTTTTTTTTTTTTT MOQGAD      TELAPSE   182411.56 TCPU   181470.80
 TTTTTTTTTTTTTTTTTTTTTTTTTTTTTT CP_MONMON   TELAPSE   182444.80 TCPU   181503.92
 DIIS TEST: 0.22147E-04 AT CPHF  CYCLE  12 - DIIS ACTIVE - HISTORY:    12 CYCLES
 CYCLE  12   ALPHA 1134.578897  EPSILON    3.940131  DELTA   -2.7296E-02
 TTTTTTTTTTTTTTTTTTTTTTTTTTTTTT MOQGAD      TELAPSE   184142.37 TCPU   183195.67
 TTTTTTTTTTTTTTTTTTTTTTTTTTTTTT CP_MONMON   TELAPSE   184175.61 TCPU   183228.79
 DIIS TEST: 0.23693E-05 AT CPHF  CYCLE  13 - DIIS ACTIVE - HISTORY:    13 CYCLES
 CYCLE  13   ALPHA 1134.574660  EPSILON    3.940120  DELTA   -4.2367E-03
 TTTTTTTTTTTTTTTTTTTTTTTTTTTTTT MOQGAD      TELAPSE   185858.83 TCPU   184901.85
 TTTTTTTTTTTTTTTTTTTTTTTTTTTTTT CP_MONMON   TELAPSE   185892.03 TCPU   184934.96
 DIIS TEST: 0.25992E-06 AT CPHF  CYCLE  14 - DIIS ACTIVE - HISTORY:    14 CYCLES
 CYCLE  14   ALPHA 1134.572743  EPSILON    3.940115  DELTA   -1.9173E-03
 TTTTTTTTTTTTTTTTTTTTTTTTTTTTTT MOQGAD      TELAPSE   187612.26 TCPU   186646.39
 TTTTTTTTTTTTTTTTTTTTTTTTTTTTTT CP_MONMON   TELAPSE   187645.47 TCPU   186679.46
 DIIS TEST: 0.22602E-07 AT CPHF  CYCLE  15 - DIIS ACTIVE - HISTORY:    15 CYCLES
 CYCLE  15   ALPHA 1134.572309  EPSILON    3.940114  DELTA   -4.3410E-04
 TTTTTTTTTTTTTTTTTTTTTTTTTTTTTT CP_SC       TELAPSE   187756.56 TCPU   186784.76

 *******************************************************************************

 ELECTRIC FIELD APPLIED ALONG CARTESIAN DIRECTION Z

 *******************************************************************************
 THE NUMBER OF SYMMETRY OPERATORS HAS BEEN REDUCED FROM  4 TO  1

 NEW GRID IN RECIPROCAL SPACE
 *******************************************************************************
 POINTS IN THE IBZ                  14 SHRINKING FACTORS               3  3  3
 *******************************************************************************
 *** K POINTS COORDINATES (OBLIQUE COORDINATES IN UNITS OF SHRINK FAC. )
   1-R(  0  0  0)   2-C(  1  0  0)   3-C(  0  1  2)   4-C(  2  0  1)
   5-C(  0  2  0)   6-C(  1  1  0)   7-C(  1  1  1)   8-C(  1  0  1)
   9-C(  0  1  1)  10-C(  2  1  0)  11-C(  0  0  2)  12-C(  2  1  1)
  13-C(  2  1  2)  14-C(  2  2  1)

 GCALCO - MAX INDICES DIRECT LATTICE VECTOR    14    14    16
 NO.OF VECTORS CREATED 6999 STARS  485 RMAX   201.67655 BOHR
 TTTTTTTTTTTTTTTTTTTTTTTTTTTTTT gordsh1     TELAPSE   187808.42 TCPU   186836.13

 MATRIX SIZE: P(G) 1869048, F(G)  935288, P(G) IRR  936994, F(G) IRR  936994
 MAX G-VECTOR INDEX FOR 1- AND 2-ELECTRON INTEGRALS  59

 TTTTTTTTTTTTTTTTTTTTTTTTTTTTTT INPUT       TELAPSE   187833.62 TCPU   186861.15
 TTTTTTTTTTTTTTTTTTTTTTTTTTTTTT SYMM        TELAPSE   187833.62 TCPU   186861.15

 ***** NEW REFERENCE GEOMETRY *****
 TTTTTTTTTTTTTTTTTTTTTTTTTTTTTT INT_SCREEN  TELAPSE   187833.64 TCPU   186861.17
 INFORMATION **** EXCBUF **** EXCH. BIPO BUFFER: WORDS USED =           0

 DFT PARAMETERS

     ATOM       ELECTRONS   NET CHARGE   R(ANGSTROM)
   1   1  H       1.0000      0.0000     1.11000000
  13   6  C       6.0000      0.0000     0.77000000
  37   7  N       7.0000      0.0000     0.74000000
  57  17  CL     17.0000      0.0000     0.99000000
  61  30  ZN     30.0000      0.0000     1.37000000

 SIZE OF GRID=    1814544
 TTTTTTTTTTTTTTTTTTTTTTTTTTTTTT MAKE_GRID2  TELAPSE   187836.09 TCPU   186863.61
 BECKE WEIGHT FUNCTION
 RADSAFE =     2.00
 TOLERANCES - DENSITY:10**- 6; POTENTIAL:10**- 9; GRID WGT:10**-14

 RADIAL INTEGRATION  - INTERVALS (POINTS,UPPER LIMIT):            1( 75,  4.0*R)

 ANGULAR INTEGRATION - INTERVALS (ACCURACY LEVEL [N. POINTS] UPPER LIMIT):
  1(  4[  86]   0.2)  2(  8[ 194]   0.5)  3( 12[ 350]   0.9)  4( 16[ 974]   3.5)
  5( 12[ 350]9999.0)
 TTTTTTTTTTTTTTTTTTTTTTTTTTTTTT INT_CALC    TELAPSE   187836.21 TCPU   186863.73
 CYCLE   0   ALPHA  715.138416  EPSILON    2.853199  DELTA    7.1514E+02
 TTTTTTTTTTTTTTTTTTTTTTTTTTTTTT MOQGAD      TELAPSE   189536.60 TCPU   188558.99
 TTTTTTTTTTTTTTTTTTTTTTTTTTTTTT CP_MONMON   TELAPSE   189570.20 TCPU   188592.47
 DIIS TEST: 0.88351E+02 AT CPHF  CYCLE   1 - MIX    0 %
 CYCLE   1   ALPHA  362.378405  EPSILON    1.939062  DELTA   -3.5276E+02
 TTTTTTTTTTTTTTTTTTTTTTTTTTTTTT MOQGAD      TELAPSE   191268.87 TCPU   190282.12
 TTTTTTTTTTTTTTTTTTTTTTTTTTTTTT CP_MONMON   TELAPSE   191302.15 TCPU   190315.29
 DIIS TEST: 0.70624E+03 AT CPHF  CYCLE   2 - DIIS ACTIVE - HISTORY:     2 CYCLES
 CYCLE   2   ALPHA  526.886450  EPSILON    2.365366  DELTA    1.6451E+02
 TTTTTTTTTTTTTTTTTTTTTTTTTTTTTT MOQGAD      TELAPSE   192986.55 TCPU   191991.64
 TTTTTTTTTTTTTTTTTTTTTTTTTTTTTT CP_MONMON   TELAPSE   193019.78 TCPU   192024.80
 DIIS TEST: 0.30957E+02 AT CPHF  CYCLE   3 - DIIS ACTIVE - HISTORY:     3 CYCLES
 CYCLE   3   ALPHA  565.336680  EPSILON    2.465005  DELTA    3.8450E+01
 TTTTTTTTTTTTTTTTTTTTTTTTTTTTTT MOQGAD      TELAPSE   194740.86 TCPU   193738.54
 TTTTTTTTTTTTTTTTTTTTTTTTTTTTTT CP_MONMON   TELAPSE   194774.12 TCPU   193771.70
 DIIS TEST: 0.48013E+01 AT CPHF  CYCLE   4 - DIIS ACTIVE - HISTORY:     4 CYCLES
 CYCLE   4   ALPHA  566.844928  EPSILON    2.468914  DELTA    1.5082E+00
 TTTTTTTTTTTTTTTTTTTTTTTTTTTTTT MOQGAD      TELAPSE   196488.72 TCPU   195477.17
 TTTTTTTTTTTTTTTTTTTTTTTTTTTTTT CP_MONMON   TELAPSE   196522.27 TCPU   195510.61
 DIIS TEST: 0.16951E+00 AT CPHF  CYCLE   5 - DIIS ACTIVE - HISTORY:     5 CYCLES
 CYCLE   5   ALPHA  567.314145  EPSILON    2.470130  DELTA    4.6922E-01
 TTTTTTTTTTTTTTTTTTTTTTTTTTTTTT MOQGAD      TELAPSE   198242.66 TCPU   197225.11
 TTTTTTTTTTTTTTTTTTTTTTTTTTTTTT CP_MONMON   TELAPSE   198276.25 TCPU   197258.57
 DIIS TEST: 0.41354E-01 AT CPHF  CYCLE   6 - DIIS ACTIVE - HISTORY:     6 CYCLES
 CYCLE   6   ALPHA  567.549012  EPSILON    2.470738  DELTA    2.3487E-01
 TTTTTTTTTTTTTTTTTTTTTTTTTTTTTT MOQGAD      TELAPSE   199969.09 TCPU   198944.96
 TTTTTTTTTTTTTTTTTTTTTTTTTTTTTT CP_MONMON   TELAPSE   200002.47 TCPU   198978.17
 DIIS TEST: 0.32162E-02 AT CPHF  CYCLE   7 - DIIS ACTIVE - HISTORY:     7 CYCLES
 CYCLE   7   ALPHA  567.596947  EPSILON    2.470862  DELTA    4.7935E-02
 TTTTTTTTTTTTTTTTTTTTTTTTTTTTTT MOQGAD      TELAPSE   201700.92 TCPU   200667.28
 TTTTTTTTTTTTTTTTTTTTTTTTTTTTTT CP_MONMON   TELAPSE   201734.49 TCPU   200700.74
 DIIS TEST: 0.71975E-03 AT CPHF  CYCLE   8 - DIIS ACTIVE - HISTORY:     8 CYCLES
 CYCLE   8   ALPHA  567.599436  EPSILON    2.470869  DELTA    2.4881E-03
 TTTTTTTTTTTTTTTTTTTTTTTTTTTTTT MOQGAD      TELAPSE   203408.66 TCPU   202367.23
 TTTTTTTTTTTTTTTTTTTTTTTTTTTTTT CP_MONMON   TELAPSE   203442.24 TCPU   202400.68
 DIIS TEST: 0.10378E-03 AT CPHF  CYCLE   9 - DIIS ACTIVE - HISTORY:     9 CYCLES
 CYCLE   9   ALPHA  567.587724  EPSILON    2.470838  DELTA   -1.1712E-02
 TTTTTTTTTTTTTTTTTTTTTTTTTTTTTT MOQGAD      TELAPSE   205118.19 TCPU   204068.93
 TTTTTTTTTTTTTTTTTTTTTTTTTTTTTT CP_MONMON   TELAPSE   205151.79 TCPU   204102.42
 DIIS TEST: 0.73528E-04 AT CPHF  CYCLE  10 - DIIS ACTIVE - HISTORY:    10 CYCLES
 CYCLE  10   ALPHA  567.587087  EPSILON    2.470837  DELTA   -6.3648E-04
 TTTTTTTTTTTTTTTTTTTTTTTTTTTTTT CP_SC       TELAPSE   205254.40 TCPU   204199.50

 *******************************************************************************

 POLARIZABILITY (ALPHA), DIELECTRIC (EPSILON) AND FIRST-ORDER ELECTRIC
 SUSCEPTIBILITY (CHI(1)) TENSORS (INDEPENDENT COMPONENTS)

  FR.(eV) COMP.   ALPHA(Re,Im)           EPSILON(Re,Im)                CHI(1)
  2.331   XX    1134.5726       0.0000       3.9401       0.0000       2.9401
  2.331   XY      -0.0019       0.0000      -0.0000       0.0000      -0.0000
  2.331   XZ      -0.0000       0.0000      -0.0000       0.0000      -0.0000
  2.331   YY    1134.5723       0.0000       3.9401       0.0000       2.9401
  2.331   YZ      -0.0000       0.0000      -0.0000       0.0000      -0.0000
  2.331   ZZ     567.5871       0.0000       2.4708       0.0000       1.4708

 DIELECTRIC TENSOR

 TENSOR IN PRINCIPAL AXES SYSTEM
 AA  3.940119E+00 BB  3.940109E+00 CC  2.470837E+00

 REFRACTIVE INDICES 
 AA  1.571890E+00 BB  1.984971E+00 CC  1.984973E+00

 OPTICALLY ANISOTROPIC - UNIAXIAL CRYSTAL

 BIREFRINGENCE =  0.4131 (NEGATIVE) - OBLATE OPTICAL ELLIPSOID

 EPSILON=N**2=1+CHI(1)=1+ALPHA*4*PI/V,   4*PI/V=   0.00259 BOHR**(-3)
 ALPHA IN BOHR**3; EPSILON AND CHI(1) ARE DIMENSIONLESS.
 *******************************************************************************


  Pockels Effect beta(-omega;omega,0) with omega=   1.1653 eV


 SIZE OF GRID=    1814544
 TTTTTTTTTTTTTTTTTTTTTTTTTTTTTT MAKE_GRID2  TELAPSE   205689.08 TCPU   204631.36
 BECKE WEIGHT FUNCTION
 RADSAFE =     2.00
 TOLERANCES - DENSITY:10**- 6; POTENTIAL:10**- 9; GRID WGT:10**-14

 RADIAL INTEGRATION  - INTERVALS (POINTS,UPPER LIMIT):            1( 75,  4.0*R)

 ANGULAR INTEGRATION - INTERVALS (ACCURACY LEVEL [N. POINTS] UPPER LIMIT):
  1(  4[  86]   0.2)  2(  8[ 194]   0.5)  3( 12[ 350]   0.9)  4( 16[ 974]   3.5)
  5( 12[ 350]9999.0)

 SIZE OF GRID=    1814544
 TTTTTTTTTTTTTTTTTTTTTTTTTTTTTT MAKE_GRID2  TELAPSE   205692.72 TCPU   204634.73
 BECKE WEIGHT FUNCTION
 RADSAFE =     2.00
 TOLERANCES - DENSITY:10**- 6; POTENTIAL:10**- 9; GRID WGT:10**-14

 RADIAL INTEGRATION  - INTERVALS (POINTS,UPPER LIMIT):            1( 75,  4.0*R)

 ANGULAR INTEGRATION - INTERVALS (ACCURACY LEVEL [N. POINTS] UPPER LIMIT):
  1(  4[  86]   0.2)  2(  8[ 194]   0.5)  3( 12[ 350]   0.9)  4( 16[ 974]   3.5)
  5( 12[ 350]9999.0)
 *******************************************************************************

 DC-POCKELS AND SECOND ELECTRIC SUSCEPTIBILITY (CHI(2))
 TENSORS (INDEPENDENT COMPONENTS)

BETA                                         CHI(2)       d(MKS)       d(cgs)
 *******************************************************************************

     XXX          0.1428E-02   0.1850E-05   0.1799E-05   0.4292E-07
     XXY          0.2860E-03   0.3706E-06   0.3603E-06   0.8596E-08
     XXZ          0.8691E+03   0.1126E+01   0.1095E+01   0.2612E-01
     XYX         -0.1825E-03  -0.2365E-06  -0.2300E-06  -0.5486E-08
     XYY          0.8392E-03   0.1087E-05   0.1057E-05   0.2522E-07
     XYZ          0.3082E+03   0.3993E+00   0.3883E+00   0.9263E-02
     XZX          0.8579E+03   0.1112E+01   0.1081E+01   0.2579E-01
     XZY          0.3558E+03   0.4610E+00   0.4483E+00   0.1069E-01
     XZZ          0.9510E-03   0.1232E-05   0.1198E-05   0.2858E-07
     YXX         -0.3038E-03  -0.3937E-06  -0.3828E-06  -0.9132E-08
     YXY          0.8010E-03   0.1038E-05   0.1009E-05   0.2408E-07
     YXZ          0.3082E+03   0.3993E+00   0.3883E+00   0.9263E-02
     YYX         -0.7919E-04  -0.1026E-06  -0.9977E-07  -0.2380E-08
     YYY         -0.1194E-02  -0.1548E-05  -0.1505E-05  -0.3590E-07
     YYZ         -0.8691E+03  -0.1126E+01  -0.1095E+01  -0.2612E-01
     YZX          0.3558E+03   0.4610E+00   0.4483E+00   0.1069E-01
     YZY         -0.8579E+03  -0.1112E+01  -0.1081E+01  -0.2578E-01
     YZZ         -0.5441E-03  -0.7049E-06  -0.6854E-06  -0.1635E-07
     ZXX          0.8580E+03   0.1112E+01   0.1081E+01   0.2579E-01
     ZXY          0.3561E+03   0.4613E+00   0.4486E+00   0.1070E-01
     ZXZ          0.9313E-03   0.1207E-05   0.1173E-05   0.2799E-07
     ZYX          0.3561E+03   0.4613E+00   0.4486E+00   0.1070E-01
     ZYY         -0.8580E+03  -0.1112E+01  -0.1081E+01  -0.2579E-01
     ZYZ         -0.5588E-03  -0.7240E-06  -0.7040E-06  -0.1680E-07
     ZZX          0.1347E-03   0.1745E-06   0.1697E-06   0.4048E-08
     ZZY          0.4556E-05   0.5903E-08   0.5740E-08   0.1369E-09
     ZZZ          0.7633E-01   0.9890E-04   0.9617E-04   0.2294E-05
 *******************************************************************************
 CHI(2) = BETA*2PI/V

 BETA AND CHI(2) IN A.U.:    [BETA] = M**(-1/2) L**(7/2) T
                             [CHI(2)] = 1/F
                             (L=LENGTH, M=MASS, T=TIME, F=FIELD INTENSITY)

 ELECTRIC SUSCEPTIBILITY IN THE SECOND HARMONIC GENERATION (SHG) CONVENTION IS:
                   d(A.U.)= 1/2 CHI(2)
                   d(MKS) = d(A.U.)/0.514220632 pm/V
                   d(CGS) = d(A.U.)/(4PI*1.7152535)  10**(-7) esu

 FIELD INTENSITY: 1 A.U. = 0.514220632*10**(11) V/m = 1.7152535*10**7 esu
 BEWARE:                CHI(2)=P/(E0*F**2)   (MKS)
                        CHI(2)=P/F**2        (CGS)
 WHERE P IS THE POLARIZATION VECTOR AND F IS THE APPLIED ELECTRIC FIELD.
 CONSISTENCY IS  PRESERVED BY MULTIPLYING THE CGS VALUE TIMES THE PERMITTIVITY
 OF THE VACUUM, E0 (CONVERSION FACTORS FROM www.physics.nist.gov/constants).
 IN PARENTHESIS: BETA BEFORE SYMMETRIZATION.

  SHG Effect beta(-2omega;omega,omega) with omega=   1.1653 eV


 SIZE OF GRID=    1814544
 TTTTTTTTTTTTTTTTTTTTTTTTTTTTTT MAKE_GRID2  TELAPSE   206047.37 TCPU   204987.36
 BECKE WEIGHT FUNCTION
 RADSAFE =     2.00
 TOLERANCES - DENSITY:10**- 6; POTENTIAL:10**- 9; GRID WGT:10**-14

 RADIAL INTEGRATION  - INTERVALS (POINTS,UPPER LIMIT):            1( 75,  4.0*R)

 ANGULAR INTEGRATION - INTERVALS (ACCURACY LEVEL [N. POINTS] UPPER LIMIT):
  1(  4[  86]   0.2)  2(  8[ 194]   0.5)  3( 12[ 350]   0.9)  4( 16[ 974]   3.5)
  5( 12[ 350]9999.0)

 SIZE OF GRID=    1814544
 TTTTTTTTTTTTTTTTTTTTTTTTTTTTTT MAKE_GRID2  TELAPSE   206050.18 TCPU   204990.16
 BECKE WEIGHT FUNCTION
 RADSAFE =     2.00
 TOLERANCES - DENSITY:10**- 6; POTENTIAL:10**- 9; GRID WGT:10**-14

 RADIAL INTEGRATION  - INTERVALS (POINTS,UPPER LIMIT):            1( 75,  4.0*R)

 ANGULAR INTEGRATION - INTERVALS (ACCURACY LEVEL [N. POINTS] UPPER LIMIT):
  1(  4[  86]   0.2)  2(  8[ 194]   0.5)  3( 12[ 350]   0.9)  4( 16[ 974]   3.5)
  5( 12[ 350]9999.0)
 *******************************************************************************

 SECOND HARMONIC GENERATION (SHG)  AND SECOND ELECTRIC SUSCEPTIBILITY (CHI(2))
 TENSORS (INDEPENDENT COMPONENTS)

BETA                                         CHI(2)       d(MKS)       d(cgs)
 *******************************************************************************

     XXX          0.2546E-02   0.3299E-05   0.3207E-05   0.7652E-07
     XXY         -0.2319E-03  -0.3005E-06  -0.2922E-06  -0.6971E-08
     XXZ          0.1735E+04   0.2248E+01   0.2186E+01   0.5214E-01
     XYX         -0.2319E-03  -0.3005E-06  -0.2922E-06  -0.6971E-08
     XYY          0.1226E-02   0.1588E-05   0.1544E-05   0.3684E-07
     XYZ          0.6384E+03   0.8272E+00   0.8043E+00   0.1919E-01
     XZX          0.1735E+04   0.2248E+01   0.2186E+01   0.5214E-01
     XZY          0.6384E+03   0.8272E+00   0.8043E+00   0.1919E-01
     XZZ          0.9774E-03   0.1266E-05   0.1231E-05   0.2938E-07
     YXX         -0.2596E-03  -0.3363E-06  -0.3270E-06  -0.7802E-08
     YXY          0.9041E-03   0.1171E-05   0.1139E-05   0.2717E-07
     YXZ          0.6384E+03   0.8272E+00   0.8044E+00   0.1919E-01
     YYX          0.9041E-03   0.1171E-05   0.1139E-05   0.2717E-07
     YYY         -0.2068E-02  -0.2680E-05  -0.2606E-05  -0.6216E-07
     YYZ         -0.1735E+04  -0.2248E+01  -0.2186E+01  -0.5214E-01
     YZX          0.6384E+03   0.8272E+00   0.8044E+00   0.1919E-01
     YZY         -0.1735E+04  -0.2248E+01  -0.2186E+01  -0.5214E-01
     YZZ         -0.5686E-03  -0.7367E-06  -0.7163E-06  -0.1709E-07
     ZXX          0.1823E+04   0.2362E+01   0.2297E+01   0.5480E-01
     ZXY          0.8975E+03   0.1163E+01   0.1131E+01   0.2697E-01
     ZXZ          0.1028E-02   0.1332E-05   0.1295E-05   0.3091E-07
     ZYX          0.8975E+03   0.1163E+01   0.1131E+01   0.2697E-01
     ZYY         -0.1823E+04  -0.2362E+01  -0.2297E+01  -0.5480E-01
     ZYZ         -0.6040E-03  -0.7826E-06  -0.7610E-06  -0.1815E-07
     ZZX          0.1028E-02   0.1332E-05   0.1295E-05   0.3091E-07
     ZZY         -0.6040E-03  -0.7826E-06  -0.7610E-06  -0.1815E-07
     ZZZ          0.1218E+00   0.1578E-03   0.1534E-03   0.3661E-05
 *******************************************************************************
 CHI(2) = BETA*2PI/V

 BETA AND CHI(2) IN A.U.:    [BETA] = M**(-1/2) L**(7/2) T
                             [CHI(2)] = 1/F
                             (L=LENGTH, M=MASS, T=TIME, F=FIELD INTENSITY)

 ELECTRIC SUSCEPTIBILITY IN THE SECOND HARMONIC GENERATION (SHG) CONVENTION IS:
                   d(A.U.)= 1/2 CHI(2)
                   d(MKS) = d(A.U.)/0.514220632 pm/V
                   d(CGS) = d(A.U.)/(4PI*1.7152535)  10**(-7) esu

 FIELD INTENSITY: 1 A.U. = 0.514220632*10**(11) V/m = 1.7152535*10**7 esu
 BEWARE:                CHI(2)=P/(E0*F**2)   (MKS)
                        CHI(2)=P/F**2        (CGS)
 WHERE P IS THE POLARIZATION VECTOR AND F IS THE APPLIED ELECTRIC FIELD.
 CONSISTENCY IS  PRESERVED BY MULTIPLYING THE CGS VALUE TIMES THE PERMITTIVITY
 OF THE VACUUM, E0 (CONVERSION FACTORS FROM www.physics.nist.gov/constants).
 IN PARENTHESIS: BETA BEFORE SYMMETRIZATION.

 *******************************************************************************


 GCALCO - MAX INDICES DIRECT LATTICE VECTOR    14    14    16
 NO.OF VECTORS CREATED 6999 STARS  485 RMAX   201.67655 BOHR

 CAPPA:IS1  3;IS2  3;IS3  3; K PTS MONK NET   6; SYMMOPS:K SPACE   8;G SPACE   4

 TTTTTTTTTTTTTTTTTTTTTTTTTTTTTT END         TELAPSE   206050.55 TCPU   204990.52
 EEEEEEEEEE TERMINATION  DATE 11 12 2023 TIME 08:05:43.8
NODE    0 CPU TIME =    204990.523
NODE    1 CPU TIME =    205214.434
NODE    2 CPU TIME =    204744.305
NODE    3 CPU TIME =    204770.198
NODE    4 CPU TIME =    205060.401
NODE    5 CPU TIME =    205230.344
NODE    6 CPU TIME =    204771.426
NODE    7 CPU TIME =    204769.061
NODE    8 CPU TIME =    205041.161
NODE    9 CPU TIME =    205214.343
NODE   10 CPU TIME =    204643.097
NODE   11 CPU TIME =    204622.203
NODE   12 CPU TIME =    204911.294
NODE   13 CPU TIME =    205115.851
NODE   14 CPU TIME =    204656.569
NODE   15 CPU TIME =    204625.015
NODE   16 CPU TIME =    204927.696
NODE   17 CPU TIME =    205083.097
NODE   18 CPU TIME =    204615.354
NODE   19 CPU TIME =    204608.406
NODE   20 CPU TIME =    204915.181
NODE   21 CPU TIME =    205097.249
NODE   22 CPU TIME =    204617.097
NODE   23 CPU TIME =    204640.616
    TOTAL CPU TIME =   4916884.922
trying normal rsh (/usr/bin/rsh)
exec: No such file or directory
trying normal rsh (/usr/bin/rsh)
exec: No such file or directory
trying normal rsh (/usr/bin/rsh)
exec: No such file or directory
trying normal rsh (/usr/bin/rsh)
exec: No such file or directory
