Loading crystal17/1.0.2/intel/19.0
  Loading requirement: intel/19.0 ompi/4.0.1/intel/19.0
 PROCESS            0  OF           24  WORKING
 PROCESS            3  OF           24  WORKING
 PROCESS           11  OF           24  WORKING
 PROCESS           12  OF           24  WORKING
 PROCESS           13  OF           24  WORKING
 PROCESS           14  OF           24  WORKING
 PROCESS           15  OF           24  WORKING
 PROCESS           16  OF           24  WORKING
 PROCESS           17  OF           24  WORKING
 PROCESS           19  OF           24  WORKING
 PROCESS           20  OF           24  WORKING
 PROCESS           21  OF           24  WORKING
 PROCESS           23  OF           24  WORKING
 PROCESS            1  OF           24  WORKING
 PROCESS            2  OF           24  WORKING
 PROCESS            4  OF           24  WORKING
 PROCESS            5  OF           24  WORKING
 PROCESS            6  OF           24  WORKING
 PROCESS            8  OF           24  WORKING
 PROCESS            9  OF           24  WORKING
 PROCESS           10  OF           24  WORKING
 PROCESS           18  OF           24  WORKING
 PROCESS           22  OF           24  WORKING
 PROCESS            7  OF           24  WORKING

         
 *******************************************************************************
 *                                                                             *
 *                               CRYSTAL17                                     *
 *                      public : 1.0.2 - March 1st, 2018                       *
 *                       HTTP://WWW.CRYSTAL.UNITO.IT                           *
 *                                                                             *
 *                              MAIN AUTHORS                                   *
 *                                                                             *
 *  R. DOVESI(1,11), V.R. SAUNDERS(2), C. ROETTI(1,11), R. ORLANDO(1,11),      *
 *  C.M. ZICOVICH-WILSON(1,3), F. PASCALE(4), B. CIVALLERI(1,11),              *
 *  K. DOLL(5), N.M. HARRISON(2,6), I.J. BUSH(7), Ph. D'ARCO(8),               *
 *  M. LLUNELL(9), M. CAUSA'(10), Y. NOEL(8), L. MASCHIO(1,11), A. ERBA(1,11)  *
 *  M. RE'RAT(14), S. CASASSA(1,11)                                            *
 *                                                                             *
 *        CONTRIBUTIONS TO THE CODE HAVE ALSO BEEN GIVEN BY                    *
 *                                                                             *
 *  M. FERRABONE(1,11), M. DE LA PIERRE(1,11), M. FERRERO(1,11),               *
 *  J. BAIMA(1,11), E. ALBANESE(1,11), M.F. PEINTINGER(12), R. BAST(13),       *
 *  B. KIRTMAN(15), V. LACIVITA(1,11), R. DEMICHELIS(1,16)                     *
 *  G. BRANDEBURG(17), S. SALUSTRO(1,11), G. SANSONE(1,11)                     *
 *  M.T. RUGGIERO(18)                                                          *
 *                                                                             *
 * (1) THEORETICAL CHEMISTRY GROUP - UNIVERSITA' DI TORINO - TORINO (ITALY)    *
 * (2) COMPUTATIONAL SCIENCE & ENGINEERING DEPARTMENT - STFC DARESBURY (UK)    *
 * (3) UNIVERSIDAD AUTONOMA DEL ESTADO DE MORELOS - CUERNAVACA (MEXICO)        *
 * (4) UNIVERSITE' DE LORRAINE - NANCY (FRANCE)                                *
 * (5) UNIVERSITAET STUTTGART- STUTTGART (GERMANY)                             *
 * (6) IMPERIAL COLLEGE - LONDON (UK)                                          *
 * (7) OXFORD E-RESEARCH CENTRE - OXFORD (UK)                                  *
 * (8) UPMC - SORBONNE UNIVERSITES - PARIS (FRANCE)                            *
 * (9) UNIVERSIDAD DE BARCELONA - BARCELONA (SPAIN)                            *
 *(10) UNIVERSITA' DI NAPOLI "FEDERICO II" - NAPOLI (ITALY)                    *
 *(11) NIS - NANOSTRUCTURED INTERFACES AND SURFACES - TORINO (ITALY)           *
 *(12) MPI FUER CHEMISCHE ENERGIEKONVERSION - MUELHEIM AN DER RUHR (GERMANY)   *
 *(13) UNIVERSITY OF TROMSO - TROMSO (NORWAY)                                  *
 *(14) UNIVERSITE' DE PAU ET DES PAYS DE L'ADOUR - PAU (FRANCE)                *
 *(15) UNIVERSITY OF CALIFORNIA SANTA BARBARA - SANTA BARBARA (USA)            *
 *(16) CURTIN UNIVERSITY - PERTH (AUSTRALIA)                                   *
 *(17) UNIVERSITY COLLEGE LONDON - LONDON (UK)                                 *
 *(18) CAMBRIDGE UNIVERSITY - CAMBRIDGE (UK)                                   *
 *                                                                             *
 *******************************************************************************
 EEEEEEEEEE STARTING  DATE 09 12 2023 TIME 13:58:15.7
 Z:\home\sanoj\Downloads\tmp_p\newconn.mol                                       

 CRYSTAL CALCULATION
 (INPUT ACCORDING TO THE INTERNATIONAL TABLES FOR X-RAY CRYSTALLOGRAPHY)
 CRYSTAL FAMILY                       :  TETRAGONAL  
 CRYSTAL CLASS  (GROTH - 1921)        :  TETRAGONAL DISPHENOIDAL              

 SPACE GROUP (NONCENTROSYMMETRIC)     :  I -4            

 LATTICE PARAMETERS  (ANGSTROMS AND DEGREES) - CONVENTIONAL CELL
        A           B           C        ALPHA        BETA       GAMMA
    10.81929    10.81929    12.81163    90.00000    90.00000    90.00000


 NUMBER OF IRREDUCIBLE ATOMS IN THE CONVENTIONAL CELL:   17

 INPUT COORDINATES

 ATOM AT. N.              COORDINATES
   1   1     4.818800000000E-01  8.489900000000E-01  4.102100000000E-01
   2   1     4.000000000000E-01  4.746800000000E-01  3.801300000000E-01
   3   6     2.865600000000E-01  8.135100000000E-01  3.868000000000E-01
   4   6     2.586900000000E-01 -5.479000000000E-02  3.783300000000E-01
   5   6     1.991000000000E-01  7.179400000000E-01  3.775800000000E-01
   6   6     3.673900000000E-01  5.706900000000E-01  3.830100000000E-01
   7   6     4.114800000000E-01  7.784900000000E-01  3.971800000000E-01
   8   6     7.592200000000E-01  4.047600000000E-01  3.769700000000E-01
   9   7     3.435400000000E-01  2.375000000000E-02  3.362400000000E-01
  10   7     2.954300000000E-01  1.410100000000E-01  3.425600000000E-01
  11   7     1.584100000000E-01  1.211000000000E-02  4.086700000000E-01
  12   7     1.852400000000E-01  1.339900000000E-01  3.856300000000E-01
  13   7     4.514800000000E-01  6.614000000000E-01  3.936000000000E-01
  14  17     4.420000000000E-02  7.523900000000E-01  3.665400000000E-01
  15  17     1.410300000000E-01  4.715400000000E-01  3.696200000000E-01
  16  30     0.000000000000E+00  5.000000000000E-01  7.500000000000E-01
  17  30     0.000000000000E+00  0.000000000000E+00  5.000000000000E-01

 *******************************************************************************

 << INFORMATION >>: FROM NOW ON, ALL COORDINATES REFER TO THE PRIMITIVE CELL

 *******************************************************************************

 LATTICE PARAMETERS  (ANGSTROMS AND DEGREES) - PRIMITIVE CELL
       A          B          C        ALPHA      BETA     GAMMA        VOLUME
    9.97813    9.97813    9.97813   114.33971 114.33971 100.11988    749.845657

 COORDINATES OF THE EQUIVALENT ATOMS (FRACTIONAL UNITS)

 N. ATOM EQUIV AT. N.          X                  Y                  Z

   1   1   1    1 H     2.59200000000E-01 -1.07910000000E-01  3.30870000000E-01
   2   1   2    1 H    -4.38780000000E-01 -7.16700000000E-02 -3.30870000000E-01
   3   1   3    1 H     1.07910000000E-01  4.38780000000E-01  3.67110000000E-01
   4   1   4    1 H     7.16700000000E-02 -2.59200000000E-01 -3.67110000000E-01

   5   2   1    1 H    -1.45190000000E-01 -2.19870000000E-01 -1.25320000000E-01
   6   2   2    1 H    -9.45500000000E-02 -1.98700000000E-02  1.25320000000E-01
   7   2   3    1 H     2.19870000000E-01  9.45500000000E-02  7.46800000000E-02
   8   2   4    1 H     1.98700000000E-02  1.45190000000E-01 -7.46800000000E-02

   9   3   1    6 C     2.00310000000E-01 -3.26640000000E-01  1.00070000000E-01
  10   3   2    6 C    -4.26710000000E-01  1.00240000000E-01 -1.00070000000E-01
  11   3   3    6 C     3.26640000000E-01  4.26710000000E-01 -4.73050000000E-01
  12   3   4    6 C    -1.00240000000E-01 -2.00310000000E-01  4.73050000000E-01

  13   4   1    6 C     3.23540000000E-01 -3.62980000000E-01  2.03900000000E-01
  14   4   2    6 C     4.33120000000E-01  1.19640000000E-01 -2.03900000000E-01
  15   4   3    6 C     3.62980000000E-01 -4.33120000000E-01 -3.13480000000E-01
  16   4   4    6 C    -1.19640000000E-01 -3.23540000000E-01  3.13480000000E-01

  17   5   1    6 C     9.55200000000E-02 -4.23320000000E-01 -8.29600000000E-02
  18   5   2    6 C    -3.40360000000E-01  1.78480000000E-01  8.29600000000E-02
  19   5   3    6 C     4.23320000000E-01  3.40360000000E-01 -4.81160000000E-01
  20   5   4    6 C    -1.78480000000E-01 -9.55200000000E-02  4.81160000000E-01

  21   6   1    6 C    -4.63000000000E-02 -2.49600000000E-01 -6.19200000000E-02
  22   6   2    6 C    -1.87680000000E-01  1.56200000000E-02  6.19200000000E-02
  23   6   3    6 C     2.49600000000E-01  1.87680000000E-01  2.03300000000E-01
  24   6   4    6 C    -1.56200000000E-02  4.63000000000E-02 -2.03300000000E-01

  25   7   1    6 C     1.75670000000E-01 -1.91340000000E-01  1.89970000000E-01
  26   7   2    6 C    -3.81310000000E-01 -1.43000000000E-02 -1.89970000000E-01
  27   7   3    6 C     1.91340000000E-01  3.81310000000E-01  3.67010000000E-01
  28   7   4    6 C     1.43000000000E-02 -1.75670000000E-01 -3.67010000000E-01

  29   8   1    6 C    -2.18270000000E-01  1.36190000000E-01  1.63980000000E-01
  30   8   2    6 C    -2.77900000000E-02 -3.82250000000E-01 -1.63980000000E-01
  31   8   3    6 C    -1.36190000000E-01  2.77900000000E-02 -3.54460000000E-01
  32   8   4    6 C     3.82250000000E-01  2.18270000000E-01  3.54460000000E-01

  33   9   1    7 N     3.59990000000E-01 -3.20220000000E-01  3.67290000000E-01
  34   9   2    7 N     3.12490000000E-01 -7.30000000000E-03 -3.67290000000E-01
  35   9   3    7 N     3.20220000000E-01 -3.12490000000E-01 -3.19790000000E-01
  36   9   4    7 N     7.30000000000E-03 -3.59990000000E-01  3.19790000000E-01

  37  10   1    7 N     4.83570000000E-01 -3.62010000000E-01  4.36440000000E-01
  38  10   2    7 N     2.01550000000E-01  4.71300000000E-02 -4.36440000000E-01
  39  10   3    7 N     3.62010000000E-01 -2.01550000000E-01 -1.54420000000E-01
  40  10   4    7 N    -4.71300000000E-02 -4.83570000000E-01  1.54420000000E-01

  41  11   1    7 N     4.20780000000E-01 -4.32920000000E-01  1.70520000000E-01
  42  11   2    7 N     3.96560000000E-01  2.50260000000E-01 -1.70520000000E-01
  43  11   3    7 N     4.32920000000E-01 -3.96560000000E-01 -1.46300000000E-01
  44  11   4    7 N    -2.50260000000E-01 -4.20780000000E-01  1.46300000000E-01

  45  12   1    7 N    -4.80380000000E-01 -4.29130000000E-01  3.19230000000E-01
  46  12   2    7 N     2.51640000000E-01  2.00390000000E-01 -3.19230000000E-01
  47  12   3    7 N     4.29130000000E-01 -2.51640000000E-01 -5.12500000000E-02
  48  12   4    7 N    -2.00390000000E-01  4.80380000000E-01  5.12500000000E-02

  49  13   1    7 N     5.50000000000E-02 -1.54920000000E-01  1.12880000000E-01
  50  13   2    7 N    -2.67800000000E-01 -5.78800000000E-02 -1.12880000000E-01
  51  13   3    7 N     1.54920000000E-01  2.67800000000E-01  2.09920000000E-01
  52  13   4    7 N     5.78800000000E-02 -5.50000000000E-02 -2.09920000000E-01

  53  14   1   17 CL    1.18930000000E-01  4.10740000000E-01 -2.03410000000E-01
  54  14   2   17 CL   -3.85850000000E-01  3.22340000000E-01  2.03410000000E-01
  55  14   3   17 CL   -4.10740000000E-01  3.85850000000E-01 -2.91810000000E-01
  56  14   4   17 CL   -3.22340000000E-01 -1.18930000000E-01  2.91810000000E-01

  57  15   1   17 CL   -1.58840000000E-01 -4.89350000000E-01 -3.87430000000E-01
  58  15   2   17 CL   -1.01920000000E-01  2.28590000000E-01  3.87430000000E-01
  59  15   3   17 CL    4.89350000000E-01  1.01920000000E-01  3.30510000000E-01
  60  15   4   17 CL   -2.28590000000E-01  1.58840000000E-01 -3.30510000000E-01

  61  16   1   30 ZN    2.50000000000E-01 -2.50000000000E-01 -5.00000000000E-01

  62  17   1   30 ZN   -5.00000000000E-01 -5.00000000000E-01  0.00000000000E+00

 NUMBER OF SYMMETRY OPERATORS         :    4
 *******************************************************************************
 * GEOMETRY EDITING - INPUT COORDINATES ARE GIVEN IN ANGSTROM         
 *******************************************************************************

 GEOMETRY NOW FULLY CONSISTENT WITH THE GROUP

 GCALCO - MAX INDICES DIRECT LATTICE VECTOR    14    14    16
 NO.OF VECTORS CREATED 6999 STARS  486 RMAX   204.19219 BOHR

 GEOMETRY FOR WAVE FUNCTION - DIMENSIONALITY OF THE SYSTEM    3
 (NON PERIODIC DIRECTION: LATTICE PARAMETER FORMALLY SET TO 500)
 *******************************************************************************
 LATTICE PARAMETERS (ANGSTROMS AND DEGREES) - BOHR = 0.5291772083 ANGSTROM
 PRIMITIVE CELL - CENTRING CODE 6/0 VOLUME=   749.845657 - DENSITY  2.178 g/cm^3
         A              B              C           ALPHA      BETA       GAMMA 
     9.97812510     9.97812510     9.97812510   114.339706 114.339706 100.119878
 *******************************************************************************
 ATOMS IN THE ASYMMETRIC UNIT   17 - ATOMS IN THE UNIT CELL:   62
     ATOM                 X/A                 Y/B                 Z/C    
 *******************************************************************************
      1 T   1 H     2.592000000000E-01 -1.079100000000E-01  3.308700000000E-01
      2 F   1 H    -4.387800000000E-01 -7.167000000000E-02 -3.308700000000E-01
      3 F   1 H     1.079100000000E-01  4.387800000000E-01  3.671100000000E-01
      4 F   1 H     7.167000000000E-02 -2.592000000000E-01 -3.671100000000E-01
      5 T   1 H    -1.451900000000E-01 -2.198700000000E-01 -1.253200000000E-01
      6 F   1 H    -9.455000000000E-02 -1.987000000000E-02  1.253200000000E-01
      7 F   1 H     2.198700000000E-01  9.455000000000E-02  7.468000000000E-02
      8 F   1 H     1.987000000000E-02  1.451900000000E-01 -7.468000000000E-02
      9 T   6 C     2.003100000000E-01 -3.266400000000E-01  1.000700000000E-01
     10 F   6 C    -4.267100000000E-01  1.002400000000E-01 -1.000700000000E-01
     11 F   6 C     3.266400000000E-01  4.267100000000E-01 -4.730500000000E-01
     12 F   6 C    -1.002400000000E-01 -2.003100000000E-01  4.730500000000E-01
     13 T   6 C     3.235400000000E-01 -3.629800000000E-01  2.039000000000E-01
     14 F   6 C     4.331200000000E-01  1.196400000000E-01 -2.039000000000E-01
     15 F   6 C     3.629800000000E-01 -4.331200000000E-01 -3.134800000000E-01
     16 F   6 C    -1.196400000000E-01 -3.235400000000E-01  3.134800000000E-01
     17 T   6 C     9.552000000000E-02 -4.233200000000E-01 -8.296000000000E-02
     18 F   6 C    -3.403600000000E-01  1.784800000000E-01  8.296000000000E-02
     19 F   6 C     4.233200000000E-01  3.403600000000E-01 -4.811600000000E-01
     20 F   6 C    -1.784800000000E-01 -9.552000000000E-02  4.811600000000E-01
     21 T   6 C    -4.630000000000E-02 -2.496000000000E-01 -6.192000000000E-02
     22 F   6 C    -1.876800000000E-01  1.562000000000E-02  6.192000000000E-02
     23 F   6 C     2.496000000000E-01  1.876800000000E-01  2.033000000000E-01
     24 F   6 C    -1.562000000000E-02  4.630000000000E-02 -2.033000000000E-01
     25 T   6 C     1.756700000000E-01 -1.913400000000E-01  1.899700000000E-01
     26 F   6 C    -3.813100000000E-01 -1.430000000000E-02 -1.899700000000E-01
     27 F   6 C     1.913400000000E-01  3.813100000000E-01  3.670100000000E-01
     28 F   6 C     1.430000000000E-02 -1.756700000000E-01 -3.670100000000E-01
     29 T   6 C    -2.182700000000E-01  1.361900000000E-01  1.639800000000E-01
     30 F   6 C    -2.779000000000E-02 -3.822500000000E-01 -1.639800000000E-01
     31 F   6 C    -1.361900000000E-01  2.779000000000E-02 -3.544600000000E-01
     32 F   6 C     3.822500000000E-01  2.182700000000E-01  3.544600000000E-01
     33 T   7 N     3.599900000000E-01 -3.202200000000E-01  3.672900000000E-01
     34 F   7 N     3.124900000000E-01 -7.300000000000E-03 -3.672900000000E-01
     35 F   7 N     3.202200000000E-01 -3.124900000000E-01 -3.197900000000E-01
     36 F   7 N     7.300000000000E-03 -3.599900000000E-01  3.197900000000E-01
     37 T   7 N     4.835700000000E-01 -3.620100000000E-01  4.364400000000E-01
     38 F   7 N     2.015500000000E-01  4.713000000000E-02 -4.364400000000E-01
     39 F   7 N     3.620100000000E-01 -2.015500000000E-01 -1.544200000000E-01
     40 F   7 N    -4.713000000000E-02 -4.835700000000E-01  1.544200000000E-01
     41 T   7 N     4.207800000000E-01 -4.329200000000E-01  1.705200000000E-01
     42 F   7 N     3.965600000000E-01  2.502600000000E-01 -1.705200000000E-01
     43 F   7 N     4.329200000000E-01 -3.965600000000E-01 -1.463000000000E-01
     44 F   7 N    -2.502600000000E-01 -4.207800000000E-01  1.463000000000E-01
     45 T   7 N    -4.803800000000E-01 -4.291300000000E-01  3.192300000000E-01
     46 F   7 N     2.516400000000E-01  2.003900000000E-01 -3.192300000000E-01
     47 F   7 N     4.291300000000E-01 -2.516400000000E-01 -5.125000000000E-02
     48 F   7 N    -2.003900000000E-01  4.803800000000E-01  5.125000000000E-02
     49 T   7 N     5.500000000000E-02 -1.549200000000E-01  1.128800000000E-01
     50 F   7 N    -2.678000000000E-01 -5.788000000000E-02 -1.128800000000E-01
     51 F   7 N     1.549200000000E-01  2.678000000000E-01  2.099200000000E-01
     52 F   7 N     5.788000000000E-02 -5.500000000000E-02 -2.099200000000E-01
     53 T  17 CL    1.189300000000E-01  4.107400000000E-01 -2.034100000000E-01
     54 F  17 CL   -3.858500000000E-01  3.223400000000E-01  2.034100000000E-01
     55 F  17 CL   -4.107400000000E-01  3.858500000000E-01 -2.918100000000E-01
     56 F  17 CL   -3.223400000000E-01 -1.189300000000E-01  2.918100000000E-01
     57 T  17 CL   -1.588400000000E-01 -4.893500000000E-01 -3.874300000000E-01
     58 F  17 CL   -1.019200000000E-01  2.285900000000E-01  3.874300000000E-01
     59 F  17 CL    4.893500000000E-01  1.019200000000E-01  3.305100000000E-01
     60 F  17 CL   -2.285900000000E-01  1.588400000000E-01 -3.305100000000E-01
     61 T  30 ZN    2.500000000000E-01 -2.500000000000E-01  5.000000000000E-01
     62 T  30 ZN   -5.000000000000E-01 -5.000000000000E-01  0.000000000000E+00

 TRANSFORMATION MATRIX PRIMITIVE-CRYSTALLOGRAPHIC CELL
  0.0000  1.0000  1.0000  1.0000  0.0000  1.0000  1.0000  1.0000  0.0000

 *******************************************************************************
 CRYSTALLOGRAPHIC CELL (VOLUME=       1499.69131436)
         A              B              C           ALPHA      BETA       GAMMA 
    10.81928926    10.81928926    12.81163072    90.000000  90.000000  90.000000

 COORDINATES IN THE CRYSTALLOGRAPHIC CELL
     ATOM                 X/A                 Y/B                 Z/C    
 *******************************************************************************
      1 T   1 H    -1.812000000000E-02  3.489900000000E-01 -8.979000000000E-02
      2 F   1 H     1.812000000000E-02 -3.489900000000E-01 -8.979000000000E-02
      3 F   1 H     3.489900000000E-01  1.812000000000E-02  8.979000000000E-02
      4 F   1 H    -3.489900000000E-01 -1.812000000000E-02  8.979000000000E-02
      5 T   1 H    -1.000000000000E-01 -2.532000000000E-02 -1.198700000000E-01
      6 F   1 H     1.000000000000E-01  2.532000000000E-02 -1.198700000000E-01
      7 F   1 H    -2.532000000000E-02  1.000000000000E-01  1.198700000000E-01
      8 F   1 H     2.532000000000E-02 -1.000000000000E-01  1.198700000000E-01
      9 T   6 C    -2.134400000000E-01  3.135100000000E-01 -1.132000000000E-01
     10 F   6 C     2.134400000000E-01 -3.135100000000E-01 -1.132000000000E-01
     11 F   6 C     3.135100000000E-01  2.134400000000E-01  1.132000000000E-01
     12 F   6 C    -3.135100000000E-01 -2.134400000000E-01  1.132000000000E-01
     13 T   6 C     2.586900000000E-01 -5.479000000000E-02  3.783300000000E-01
     14 F   6 C    -2.586900000000E-01  5.479000000000E-02  3.783300000000E-01
     15 F   6 C    -5.479000000000E-02 -2.586900000000E-01 -3.783300000000E-01
     16 F   6 C     5.479000000000E-02  2.586900000000E-01 -3.783300000000E-01
     17 T   6 C    -3.009000000000E-01  2.179400000000E-01 -1.224200000000E-01
     18 F   6 C     3.009000000000E-01 -2.179400000000E-01 -1.224200000000E-01
     19 F   6 C     2.179400000000E-01  3.009000000000E-01  1.224200000000E-01
     20 F   6 C    -2.179400000000E-01 -3.009000000000E-01  1.224200000000E-01
     21 T   6 C    -1.326100000000E-01  7.069000000000E-02 -1.169900000000E-01
     22 F   6 C     1.326100000000E-01 -7.069000000000E-02 -1.169900000000E-01
     23 F   6 C     7.069000000000E-02  1.326100000000E-01  1.169900000000E-01
     24 F   6 C    -7.069000000000E-02 -1.326100000000E-01  1.169900000000E-01
     25 T   6 C    -8.852000000000E-02  2.784900000000E-01 -1.028200000000E-01
     26 F   6 C     8.852000000000E-02 -2.784900000000E-01 -1.028200000000E-01
     27 F   6 C     2.784900000000E-01  8.852000000000E-02  1.028200000000E-01
     28 F   6 C    -2.784900000000E-01 -8.852000000000E-02  1.028200000000E-01
     29 T   6 C     2.592200000000E-01 -9.524000000000E-02 -1.230300000000E-01
     30 F   6 C    -2.592200000000E-01  9.524000000000E-02 -1.230300000000E-01
     31 F   6 C    -9.524000000000E-02 -2.592200000000E-01  1.230300000000E-01
     32 F   6 C     9.524000000000E-02  2.592200000000E-01  1.230300000000E-01
     33 T   7 N     3.435400000000E-01  2.375000000000E-02  3.362400000000E-01
     34 F   7 N    -3.435400000000E-01 -2.375000000000E-02  3.362400000000E-01
     35 F   7 N     2.375000000000E-02 -3.435400000000E-01 -3.362400000000E-01
     36 F   7 N    -2.375000000000E-02  3.435400000000E-01 -3.362400000000E-01
     37 T   7 N    -2.045700000000E-01 -3.589900000000E-01 -1.574400000000E-01
     38 F   7 N     2.045700000000E-01  3.589900000000E-01 -1.574400000000E-01
     39 F   7 N    -3.589900000000E-01  2.045700000000E-01  1.574400000000E-01
     40 F   7 N     3.589900000000E-01 -2.045700000000E-01  1.574400000000E-01
     41 T   7 N     1.584100000000E-01  1.211000000000E-02  4.086700000000E-01
     42 F   7 N    -1.584100000000E-01 -1.211000000000E-02  4.086700000000E-01
     43 F   7 N     1.211000000000E-02 -1.584100000000E-01 -4.086700000000E-01
     44 F   7 N    -1.211000000000E-02  1.584100000000E-01 -4.086700000000E-01
     45 T   7 N    -3.147600000000E-01 -3.660100000000E-01 -1.143700000000E-01
     46 F   7 N     3.147600000000E-01  3.660100000000E-01 -1.143700000000E-01
     47 F   7 N    -3.660100000000E-01  3.147600000000E-01  1.143700000000E-01
     48 F   7 N     3.660100000000E-01 -3.147600000000E-01  1.143700000000E-01
     49 T   7 N    -4.852000000000E-02  1.614000000000E-01 -1.064000000000E-01
     50 F   7 N     4.852000000000E-02 -1.614000000000E-01 -1.064000000000E-01
     51 F   7 N     1.614000000000E-01  4.852000000000E-02  1.064000000000E-01
     52 F   7 N    -1.614000000000E-01 -4.852000000000E-02  1.064000000000E-01
     53 T  17 CL    4.420000000000E-02 -2.476100000000E-01  3.665400000000E-01
     54 F  17 CL   -4.420000000000E-02  2.476100000000E-01  3.665400000000E-01
     55 F  17 CL   -2.476100000000E-01 -4.420000000000E-02 -3.665400000000E-01
     56 F  17 CL    2.476100000000E-01  4.420000000000E-02 -3.665400000000E-01
     57 T  17 CL   -3.589700000000E-01 -2.846000000000E-02 -1.303800000000E-01
     58 F  17 CL    3.589700000000E-01  2.846000000000E-02 -1.303800000000E-01
     59 F  17 CL   -2.846000000000E-02  3.589700000000E-01  1.303800000000E-01
     60 F  17 CL    2.846000000000E-02 -3.589700000000E-01  1.303800000000E-01
     61 T  30 ZN   -5.000000000000E-01 -8.688256047084E-17  2.500000000000E-01
     62 T  30 ZN    0.000000000000E+00  0.000000000000E+00 -5.000000000000E-01

 T = ATOM BELONGING TO THE ASYMMETRIC UNIT

 ****    4 SYMMOPS - TRANSLATORS IN FRACTIONAL UNITS
 **** MATRICES AND TRANSLATORS IN THE CRYSTALLOGRAPHIC REFERENCE FRAME
   V INV                    ROTATION MATRICES                   TRANSLATORS
   1   1  1.00  0.00  0.00  0.00  1.00  0.00  0.00  0.00  1.00  0.00  0.00  0.00
   2   2  0.00  1.00 -1.00  1.00  0.00 -1.00  0.00  0.00 -1.00  0.00  0.00  0.00
   3   4 -0.00 -1.00  0.00 -0.00 -1.00  1.00  1.00 -1.00  0.00  0.00  0.00  0.00
   4   3 -1.00 -0.00  1.00 -1.00 -0.00  0.00 -1.00  1.00  0.00  0.00  0.00  0.00

 DIRECT LATTICE VECTORS CARTESIAN COMPONENTS (ANGSTROM)
          X                    Y                    Z
  -0.540964462905E+01   0.540964462905E+01   0.640581536125E+01
   0.540964462905E+01  -0.540964462905E+01   0.640581536125E+01
   0.540964462905E+01   0.540964462905E+01  -0.640581536125E+01


 CARTESIAN COORDINATES - PRIMITIVE CELL
 *******************************************************************************
 *      ATOM          X(ANGSTROM)         Y(ANGSTROM)         Z(ANGSTROM)
 *******************************************************************************
    1     1 H    -1.960455213568E-01  3.775823758184E+00 -1.150356322573E+00
    2     1 H     1.960455213568E-01 -3.775823758184E+00 -1.150356322573E+00
    3     1 H     3.775823758184E+00  1.960455213568E-01  1.150356322573E+00
    4     1 H    -3.775823758184E+00 -1.960455213568E-01  1.150356322573E+00
    5     1 H    -1.081928925810E+00 -2.739444040151E-01 -1.535730174706E+00
    6     1 H     1.081928925810E+00  2.739444040151E-01 -1.535730174706E+00
    7     1 H    -2.739444040151E-01  1.081928925810E+00  1.535730174706E+00
    8     1 H     2.739444040151E-01 -1.081928925810E+00  1.535730174706E+00
    9     6 C    -2.309269099249E+00  3.391955375307E+00 -1.450276597787E+00
   10     6 C     2.309269099249E+00 -3.391955375307E+00 -1.450276597787E+00
   11     6 C     3.391955375307E+00  2.309269099249E+00  1.450276597787E+00
   12     6 C    -3.391955375307E+00 -2.309269099249E+00  1.450276597787E+00
   13     6 C     2.798841938178E+00 -5.927888584513E-01  4.847024251243E+00
   14     6 C    -2.798841938178E+00  5.927888584513E-01  4.847024251243E+00
   15     6 C    -5.927888584513E-01 -2.798841938178E+00 -4.847024251243E+00
   16     6 C     5.927888584513E-01  2.798841938178E+00 -4.847024251243E+00
   17     6 C    -3.255524137762E+00  2.357955900910E+00 -1.568399833048E+00
   18     6 C     3.255524137762E+00 -2.357955900910E+00 -1.568399833048E+00
   19     6 C     2.357955900910E+00  3.255524137762E+00  1.568399833048E+00
   20     6 C    -2.357955900910E+00 -3.255524137762E+00  1.568399833048E+00
   21     6 C    -1.434745948517E+00  7.648155576551E-01 -1.498832678225E+00
   22     6 C     1.434745948517E+00 -7.648155576551E-01 -1.498832678225E+00
   23     6 C     7.648155576551E-01  1.434745948517E+00  1.498832678225E+00
   24     6 C    -7.648155576551E-01 -1.434745948517E+00  1.498832678225E+00
   25     6 C    -9.577234851270E-01  3.013063865488E+00 -1.317291870887E+00
   26     6 C     9.577234851270E-01 -3.013063865488E+00 -1.317291870887E+00
   27     6 C     3.013063865488E+00  9.577234851270E-01  1.317291870887E+00
   28     6 C    -3.013063865488E+00 -9.577234851270E-01  1.317291870887E+00
   29     6 C     2.804576161485E+00 -1.030429108941E+00 -1.576214927789E+00
   30     6 C    -2.804576161485E+00  1.030429108941E+00 -1.576214927789E+00
   31     6 C    -1.030429108941E+00 -2.804576161485E+00  1.576214927789E+00
   32     6 C     1.030429108941E+00  2.804576161485E+00  1.576214927789E+00
   33     7 N     3.716858631728E+00  2.569581198799E-01  4.307782714133E+00
   34     7 N    -3.716858631728E+00 -2.569581198799E-01  4.307782714133E+00
   35     7 N     2.569581198799E-01 -3.716858631728E+00 -4.307782714133E+00
   36     7 N    -2.569581198799E-01  3.716858631728E+00 -4.307782714133E+00
   37     7 N    -2.213302003530E+00 -3.884016650765E+00 -2.017063140950E+00
   38     7 N     2.213302003530E+00  3.884016650765E+00 -2.017063140950E+00
   39     7 N    -3.884016650765E+00  2.213302003530E+00  2.017063140950E+00
   40     7 N     3.884016650765E+00 -2.213302003530E+00  2.017063140950E+00
   41     7 N     1.713883611376E+00  1.310215929156E-01  5.235729127364E+00
   42     7 N    -1.713883611376E+00 -1.310215929156E-01  5.235729127364E+00
   43     7 N     1.310215929156E-01 -1.713883611376E+00 -5.235729127364E+00
   44     7 N    -1.310215929156E-01  1.713883611376E+00 -5.235729127364E+00
   45     7 N    -3.405479486880E+00 -3.959968061357E+00 -1.465266205732E+00
   46     7 N     3.405479486880E+00  3.959968061357E+00 -1.465266205732E+00
   47     7 N    -3.959968061357E+00  3.405479486880E+00  1.465266205732E+00
   48     7 N     3.959968061357E+00 -3.405479486880E+00  1.465266205732E+00
   49     7 N    -5.249519148030E-01  1.746233286257E+00 -1.363157508874E+00
   50     7 N     5.249519148030E-01 -1.746233286257E+00 -1.363157508874E+00
   51     7 N     1.746233286257E+00  5.249519148030E-01  1.363157508874E+00
   52     7 N    -1.746233286257E+00 -5.249519148030E-01  1.363157508874E+00
   53    17 CL    4.782125852080E-01 -2.678964213198E+00  4.695975125025E+00
   54    17 CL   -4.782125852080E-01  2.678964213198E+00  4.695975125025E+00
   55    17 CL   -2.678964213198E+00 -4.782125852080E-01 -4.695975125025E+00
   56    17 CL    2.678964213198E+00  4.782125852080E-01 -4.695975125025E+00
   57    17 CL   -3.883800264980E+00 -3.079169722855E-01 -1.670380413600E+00
   58    17 CL    3.883800264980E+00  3.079169722855E-01 -1.670380413600E+00
   59    17 CL   -3.079169722855E-01  3.883800264980E+00  1.670380413600E+00
   60    17 CL    3.079169722855E-01 -3.883800264980E+00  1.670380413600E+00
   61    30 ZN    5.409644629050E+00 -9.400075532184E-16 -9.608723041875E+00
   62    30 ZN    0.000000000000E+00  0.000000000000E+00  6.405815361250E+00

 *******************************************************************************
 STARTING BASIS SET HANDLING 
 *******************************************************************************

 Loading internal basis set: POB-DZVPP           

 Please cite in your publication:
 Peintinger, M. F., Oliveira, D. V. and Bredow, T. (2013), Generally applicable 
 solid-state Gaussian basis sets, in preparation                                
                                                                                
                    

 *******************************************************************************
 LOCAL ATOMIC FUNCTIONS BASIS SET
 *******************************************************************************
   ATOM   X(AU)   Y(AU)   Z(AU)  N. TYPE  EXPONENT  S COEF   P COEF   D/F/G COEF
 *******************************************************************************
   1 H   -0.370   7.135  -2.174
                                  1 S  
                                         2.263E+01 1.441E-02 0.000E+00 0.000E+00
                                         3.236E+00 1.072E-01 0.000E+00 0.000E+00
                                         7.304E-01 3.846E-01 0.000E+00 0.000E+00
                                  2 S  
                                         1.417E-01 1.000E+00 0.000E+00 0.000E+00
                           3-     5 P  
                                         3.944E-01 0.000E+00 1.000E+00 0.000E+00
                           6-     8 P  
                                         1.006E-01 0.000E+00 1.000E+00 0.000E+00
   2 H    0.370  -7.135  -2.174
   3 H    7.135   0.370   2.174
   4 H   -7.135  -0.370   2.174
   5 H   -2.045  -0.518  -2.902
   6 H    2.045   0.518  -2.902
   7 H   -0.518   2.045   2.902
   8 H    0.518  -2.045   2.902
   9 C   -4.364   6.410  -2.741
                                 65 S  
                                         1.238E+03 5.457E-03 0.000E+00 0.000E+00
                                         1.863E+02 4.064E-02 0.000E+00 0.000E+00
                                         4.225E+01 1.803E-01 0.000E+00 0.000E+00
                                         1.168E+01 4.632E-01 0.000E+00 0.000E+00
                                         3.593E+00 4.409E-01 0.000E+00 0.000E+00
                                 66 S  
                                         5.281E+00 1.000E+00 0.000E+00 0.000E+00
                                 67 S  
                                         4.447E-01 1.000E+00 0.000E+00 0.000E+00
                          68-    70 P  
                                         9.468E+00 0.000E+00 3.839E-02 0.000E+00
                                         2.010E+00 0.000E+00 2.112E-01 0.000E+00
                                         5.477E-01 0.000E+00 5.133E-01 0.000E+00
                          71-    73 P  
                                         1.604E-01 0.000E+00 1.000E+00 0.000E+00
                          74-    78 D  
                                         6.070E-01 0.000E+00 0.000E+00 1.000E+00
                          79-    83 D  
                                         2.939E-01 0.000E+00 0.000E+00 1.000E+00
  10 C    4.364  -6.410  -2.741
  11 C    6.410   4.364   2.741
  12 C   -6.410  -4.364   2.741
  13 C    5.289  -1.120   9.160
  14 C   -5.289   1.120   9.160
  15 C   -1.120  -5.289  -9.160
  16 C    1.120   5.289  -9.160
  17 C   -6.152   4.456  -2.964
  18 C    6.152  -4.456  -2.964
  19 C    4.456   6.152   2.964
  20 C   -4.456  -6.152   2.964
  21 C   -2.711   1.445  -2.832
  22 C    2.711  -1.445  -2.832
  23 C    1.445   2.711   2.832
  24 C   -1.445  -2.711   2.832
  25 C   -1.810   5.694  -2.489
  26 C    1.810  -5.694  -2.489
  27 C    5.694   1.810   2.489
  28 C   -5.694  -1.810   2.489
  29 C    5.300  -1.947  -2.979
  30 C   -5.300   1.947  -2.979
  31 C   -1.947  -5.300   2.979
  32 C    1.947   5.300   2.979
  33 N    7.024   0.486   8.141
                                521 S  
                                         1.713E+03-5.393E-03 0.000E+00 0.000E+00
                                         2.576E+02-4.022E-02 0.000E+00 0.000E+00
                                         5.846E+01-1.793E-01 0.000E+00 0.000E+00
                                         1.620E+01-4.638E-01 0.000E+00 0.000E+00
                                         5.005E+00-4.417E-01 0.000E+00 0.000E+00
                                522 S  
                                         6.217E-01 1.000E+00 0.000E+00 0.000E+00
                                523 S  
                                         2.921E-01 1.000E+00 0.000E+00 0.000E+00
                         524-   526 P  
                                         1.357E+01 0.000E+00-4.007E-02 0.000E+00
                                         2.926E+00 0.000E+00-2.181E-01 0.000E+00
                                         7.993E-01 0.000E+00-5.129E-01 0.000E+00
                         527-   529 P  
                                         2.244E-01 0.000E+00 1.000E+00 0.000E+00
                         530-   534 D  
                                         3.118E-01 0.000E+00 0.000E+00 1.000E+00
  34 N   -7.024  -0.486   8.141
  35 N    0.486  -7.024  -8.141
  36 N   -0.486   7.024  -8.141
  37 N   -4.183  -7.340  -3.812
  38 N    4.183   7.340  -3.812
  39 N   -7.340   4.183   3.812
  40 N    7.340  -4.183   3.812
  41 N    3.239   0.248   9.894
  42 N   -3.239  -0.248   9.894
  43 N    0.248  -3.239  -9.894
  44 N   -0.248   3.239  -9.894
  45 N   -6.435  -7.483  -2.769
  46 N    6.435   7.483  -2.769
  47 N   -7.483   6.435   2.769
  48 N    7.483  -6.435   2.769
  49 N   -0.992   3.300  -2.576
  50 N    0.992  -3.300  -2.576
  51 N    3.300   0.992   2.576
  52 N   -3.300  -0.992   2.576
  53 CL   0.904  -5.063   8.874
                                801 S  
                                         1.045E+04 1.971E-03 0.000E+00 0.000E+00
                                         1.572E+03 1.475E-02 0.000E+00 0.000E+00
                                         3.571E+02 6.668E-02 0.000E+00 0.000E+00
                                         1.003E+02 1.723E-01 0.000E+00 0.000E+00
                                         3.081E+01 1.588E-01 0.000E+00 0.000E+00
                                802 S  
                                         5.192E+01-1.001E-01 0.000E+00 0.000E+00
                                         5.705E+00 6.084E-01 0.000E+00 0.000E+00
                                         2.351E+00 5.435E-01 0.000E+00 0.000E+00
                                803 S  
                                         4.886E-01 1.000E+00 0.000E+00 0.000E+00
                                804 S  
                                         1.984E-01 1.000E+00 0.000E+00 0.000E+00
                         805-   807 P  
                                         3.077E+02 0.000E+00-8.780E-03 0.000E+00
                                         7.210E+01 0.000E+00-6.356E-02 0.000E+00
                                         2.253E+01 0.000E+00-2.402E-01 0.000E+00
                                         7.899E+00 0.000E+00-4.780E-01 0.000E+00
                                         2.877E+00 0.000E+00-3.852E-01 0.000E+00
                         808-   810 P  
                                         9.483E-01 0.000E+00 1.000E+00 0.000E+00
                         811-   813 P  
                                         2.521E-01 0.000E+00 1.000E+00 0.000E+00
                         814-   818 D  
                                         9.722E-01 0.000E+00 0.000E+00 1.000E+00
                         819-   823 D  
                                         2.060E-01 0.000E+00 0.000E+00 1.000E+00
  54 CL  -0.904   5.063   8.874
  55 CL  -5.063  -0.904  -8.874
  56 CL   5.063   0.904  -8.874
  57 CL  -7.339  -0.582  -3.157
  58 CL   7.339   0.582  -3.157
  59 CL  -0.582   7.339   3.157
  60 CL   0.582  -7.339   3.157
  61 ZN  10.223  -0.000 -18.158
                                985 S  
                                         8.200E+04 1.421E-03 0.000E+00 0.000E+00
                                         1.231E+04 1.089E-02 0.000E+00 0.000E+00
                                         2.801E+03 5.406E-02 0.000E+00 0.000E+00
                                         7.910E+02 1.885E-01 0.000E+00 0.000E+00
                                         2.576E+02 3.835E-01 0.000E+00 0.000E+00
                                         8.881E+01 2.972E-01 0.000E+00 0.000E+00
                                986 S  
                                         1.719E+02-1.105E-01 0.000E+00 0.000E+00
                                         2.030E+01 6.461E-01 0.000E+00 0.000E+00
                                         8.346E+00 4.422E-01 0.000E+00 0.000E+00
                                987 S  
                                         1.485E+01-2.271E-01 0.000E+00 0.000E+00
                                         2.450E+00 7.243E-01 0.000E+00 0.000E+00
                                         9.985E-01 4.484E-01 0.000E+00 0.000E+00
                                988 S  
                                         1.493E+00 1.000E+00 0.000E+00 0.000E+00
                                989 S  
                                         1.830E-01 1.000E+00 0.000E+00 0.000E+00
                         990-   992 P  
                                         1.072E+03 0.000E+00 9.277E-03 0.000E+00
                                         2.527E+02 0.000E+00 6.954E-02 0.000E+00
                                         8.010E+01 0.000E+00 2.716E-01 0.000E+00
                                         2.890E+01 0.000E+00 5.340E-01 0.000E+00
                                         1.077E+01 0.000E+00 3.450E-01 0.000E+00
                         993-   995 P  
                                         5.645E+00 0.000E+00 3.413E-01 0.000E+00
                                         2.168E+00 0.000E+00 5.639E-01 0.000E+00
                                         8.054E-01 0.000E+00 2.368E-01 0.000E+00
                         996-   998 P  
                                         2.721E-01 0.000E+00 1.000E+00 0.000E+00
                         999-  1003 D  
                                         5.609E+01 0.000E+00 0.000E+00 2.959E-02
                                         1.575E+01 0.000E+00 0.000E+00 1.587E-01
                                         5.312E+00 0.000E+00 0.000E+00 3.798E-01
                                         1.774E+00 0.000E+00 0.000E+00 4.690E-01
                        1004-  1008 D  
                                         5.073E-01 0.000E+00 0.000E+00 1.000E+00
                        1009-  1015 F  
                                         2.814E+00 0.000E+00 0.000E+00 1.000E+00
                        1016-  1022 F  
                                         1.300E+00 0.000E+00 0.000E+00 1.000E+00
  62 ZN   0.000   0.000  12.105

 *******************************************************************************
 FINISHED BASIS SET HANDLING 
 *******************************************************************************

 INFORMATION **** SET_MPP **** PCRYSTAL CALCULATION
 INFORMATION **** READM2 **** NEW DEFAULT: FOCK/KS MATRIX MIXING SET TO 30 %
 INFORMATION **** READM2 **** NEW DEFAULT: FULL DIRECT SCF MODE
 INFORMATION **** READM2 **** NEW DEFAULT: COULOMB BIPOLAR BUFFER SET TO 32 Mb
 INFORMATION **** READM2 **** NEW DEFAULT: EXCHANGE BIPOLAR BUFFER SET TO 32 Mb

 *******************************************************************************
 NEW DEFAULT: DFT INTEGRATION GRID INCREASED TO XLGRID
 NEW DEFAULT: DIIS ACCELERATOR ACTIVE
 USE KEYWORD NODIIS TO TURN IT OFF
 *******************************************************************************

 INFORMATION **** DFTD3_INPUT **** PERFORM DISPERSION CORRECTION DFT-D3(BJ) IN THE BECKE-JOHNSON DAMPING SCHEME

 PLEASE CITE:
 (1) DFT-D3 Reference
  S. Grimme, J. Antony, S. Ehrlich, and H. Krieg, J. Chem. Phys. 132 (2010), 154104
 (2) BJ-Damping Reference
  S. Grimme, S. Ehrlich, and L. Goerigk, J. Comput. Chem. 32 (2011), 1456-1465
 (3) General DFT-D Review
  S. Grimme, A. Hansen, J. G. Brandenburg, and C. Bannwarth,
  Chem. Rev. 116 (2016), 5105-5154

 INFORMATION **** TOLINTEG **** COULOMB AND EXCHANGE SERIES TOLERANCES MODIFIED
 INFORMATION **** BIPOSIZE **** COULOMB BIPOLAR BUFFER SET TO   100000000
 INFORMATION **** MAXCYCLE **** MAX NUMBER OF SCF CYCLES SET TO          50
 *******************************************************************************
 N. OF ATOMS PER CELL        62  COULOMB OVERLAP TOL         (T1) 10**  -12
 NUMBER OF SHELLS           416  COULOMB PENETRATION TOL     (T2) 10**  -12
 NUMBER OF AO              1060  EXCHANGE OVERLAP TOL        (T3) 10**   20
 N. OF ELECTRONS PER CELL   488  EXCHANGE PSEUDO OVP (F(G))  (T4) 10**   20
 CORE ELECTRONS PER CELL    204  EXCHANGE PSEUDO OVP (P(G))  (T5) 10**   20
 N. OF SYMMETRY OPERATORS     4  POLE ORDER IN MONO ZONE                  4
 *******************************************************************************
 TYPE OF CALCULATION :  RESTRICTED CLOSED SHELL
 KOHN-SHAM HAMILTONIAN

 (EXCHANGE)[CORRELATION] FUNCTIONAL:(PERDEW-BURKE-ERNZERHOF)[PERDEW-BURKE-ERNZERHOF]


 CAPPA:IS1  3;IS2  3;IS3  3; K PTS MONK NET   6; SYMMOPS:K SPACE   8;G SPACE   4

 *******************************************************************************
 MAX NUMBER OF SCF CYCLES      50  CONVERGENCE ON DELTAP        10**-16
 WEIGHT OF F(I) IN F(I+1)      30% CONVERGENCE ON ENERGY        10**- 6
 SHRINK. FACT.(MONKH.)    3  3  3  NUMBER OF K POINTS IN THE IBZ      6
 SHRINKING FACTOR(GILAT NET)    3  NUMBER OF K POINTS(GILAT NET)      6
 *******************************************************************************
 *** K POINTS COORDINATES (OBLIQUE COORDINATES IN UNITS OF IS =  3)
   1-R(  0  0  0)   2-C(  1  0  0)   3-C(  1  1  0)   4-C(  2  1  0)
   5-C(  2  1  1)   6-C(  2  2  1)

 DIRECT LATTICE VECTORS COMPON. (A.U.)     RECIP. LATTICE VECTORS COMPON. (A.U.) 
        X            Y            Z              X            Y            Z
  -10.2227468   10.2227468   12.1052367      0.0000000    0.3073139    0.2595234
   10.2227468  -10.2227468   12.1052367      0.3073139    0.0000000    0.2595234
   10.2227468   10.2227468  -12.1052367      0.3073139    0.3073139    0.0000000

 DISK SPACE FOR EIGENVECTORS (FTN 10)    12359600 REALS

 SYMMETRY ADAPTION OF THE BLOCH FUNCTIONS ENABLED
 TTTTTTTTTTTTTTTTTTTTTTTTTTTTTT gordsh1     TELAPSE        4.91 TCPU        0.08

 MATRIX SIZE: P(G) 1872748, F(G)  937080, P(G) IRR  236749, F(G) IRR  236749
 MAX G-VECTOR INDEX FOR 1- AND 2-ELECTRON INTEGRALS  59

 TTTTTTTTTTTTTTTTTTTTTTTTTTTTTT INPUT       TELAPSE        5.93 TCPU        1.09

 NEIGHBORS OF THE NON-EQUIVALENT ATOMS

 N = NUMBER OF NEIGHBORS AT DISTANCE R
    ATOM  N     R/ANG      R/AU   NEIGHBORS (ATOM LABELS AND CELL INDICES)
   1 H    1     1.0908     2.0613   25 C    0 0 0
   1 H    1     2.0671     3.9062   49 N    0 0 0
   1 H    1     2.1686     4.0981    9 C    0 0 0
   1 H    1     2.5222     4.7663   34 N    0 0 1
   1 H    1     2.5628     4.8430   38 N    0 0 0
   1 H    1     2.5910     4.8963   33 N    0-1 0

   5 H    1     1.0977     2.0743   21 C    0 0 0
   5 H    1     2.1026     3.9734   49 N    0 0 0
   5 H    1     2.1611     4.0840   30 C    0 0 0
   5 H    1     2.1862     4.1313   50 N    0 0 0
   5 H    1     2.2321     4.2181    6 H    0 0 0
   5 H    1     2.5644     4.8459   22 C    0 0 0

   9 C    1     1.4066     2.6581   17 C    0 0 0
   9 C    1     1.4099     2.6644   25 C    0 0 0
   9 C    1     1.4605     2.7599   13 C    0-1 0
   9 C    1     2.1686     4.0981    1 H    0 0 0
   9 C    1     2.4162     4.5659   30 C    0 0 0
   9 C    1     2.4289     4.5900   49 N    0 0 0

  13 C    1     1.3609     2.5718   41 N    0 0 0
  13 C    1     1.3622     2.5742   33 N    0 0 0
  13 C    1     1.4605     2.7599    9 C    0 1 0
  13 C    1     2.1936     4.1453   45 N    1 1 1
  13 C    1     2.2036     4.1641   37 N    1 1 1
  13 C    1     2.4586     4.6461   25 C    0 1 0

  17 C    1     1.4020     2.6495   30 C    0 0 0
  17 C    1     1.4066     2.6581    9 C    0 0 0
  17 C    1     1.7227     3.2554   53 CL   0-1 0
  17 C    1     2.4025     4.5401   25 C    0 0 0
  17 C    1     2.4204     4.5738   21 C    0 0 0
  17 C    1     2.5420     4.8038   13 C    0-1 0

  21 C    1     1.0977     2.0743    5 H    0 0 0
  21 C    1     1.3451     2.5419   49 N    0 0 0
  21 C    1     1.3975     2.6409   30 C    0 0 0
  21 C    1     2.3055     4.3567   25 C    0 0 0
  21 C    1     2.4204     4.5738   17 C    0 0 0
  21 C    1     2.5644     4.8459    6 H    0 0 0

  25 C    1     1.0908     2.0613    1 H    0 0 0
  25 C    1     1.3395     2.5313   49 N    0 0 0
  25 C    1     1.4099     2.6644    9 C    0 0 0
  25 C    1     2.3055     4.3567   21 C    0 0 0
  25 C    1     2.4025     4.5401   17 C    0 0 0
  25 C    1     2.4586     4.6461   13 C    0-1 0

  29 C    1     1.3975     2.6409   22 C    0 0 0
  29 C    1     1.4020     2.6495   18 C    0 0 0
  29 C    1     1.7218     3.2538   58 CL   0 0 0
  29 C    1     2.1611     4.0840    6 H    0 0 0
  29 C    1     2.3988     4.5332   50 N    0 0 0
  29 C    1     2.4162     4.5659   10 C    0 0 0

  33 N    1     1.3622     2.5742   13 C    0 0 0
  33 N    1     1.3737     2.5959   37 N    1 1 1
  33 N    1     2.0377     3.8507   61 ZN   1 1 0
  33 N    1     2.1809     4.1213   45 N    1 1 1
  33 N    1     2.2111     4.1783   41 N    0 0 0
  33 N    1     2.4441     4.6187    9 C    0 1 0

  37 N    1     1.3159     2.4866   45 N    0 0 0
  37 N    1     1.3737     2.5959   33 N   -1-1-1
  37 N    1     2.2036     4.1641   13 C   -1-1-1
  37 N    1     2.2045     4.1660   41 N   -1-1-1
  37 N    1     2.5628     4.8430    2 H    0 0 0
  37 N    1     2.9381     5.5522   61 ZN   0 0-1

  41 N    1     1.3609     2.5718   13 C    0 0 0
  41 N    1     1.3821     2.6118   45 N    1 1 1
  41 N    1     2.0793     3.9294   62 ZN   0 0 0
  41 N    1     2.2045     4.1660   37 N    1 1 1
  41 N    1     2.2111     4.1783   33 N    0 0 0
  41 N    1     2.5725     4.8613    9 C    0 1 0

  45 N    1     1.3159     2.4866   37 N    0 0 0
  45 N    1     1.3821     2.6118   41 N   -1-1-1
  45 N    1     2.1809     4.1213   33 N   -1-1-1
  45 N    1     2.1936     4.1453   13 C   -1-1-1
  45 N    1     2.7809     5.2551   54 CL  -1-1-1
  45 N    1     2.8749     5.4328   62 ZN  -1-1-1

  49 N    1     1.3395     2.5313   25 C    0 0 0
  49 N    1     1.3451     2.5419   21 C    0 0 0
  49 N    1     2.0671     3.9062    1 H    0 0 0
  49 N    1     2.1026     3.9734    5 H    0 0 0
  49 N    1     2.1862     4.1313    6 H    0 0 0
  49 N    1     2.3988     4.5332   30 C    0 0 0

  53 CL   1     1.7227     3.2554   17 C    0 1 0
  53 CL   1     2.7167     5.1338    9 C    0 1 0
  53 CL   1     2.7262     5.1518   30 C    0 1 0
  53 CL   1     2.7809     5.2551   46 N    0 0-1
  53 CL   1     3.0571     5.7771   43 N    1 1 0
  53 CL   1     3.1168     5.8898   41 N    0 0 0

  57 CL   1     1.7218     3.2538   30 C    0 0 0
  57 CL   1     2.6792     5.0629   21 C    0 0 0
  57 CL   1     2.7408     5.1794   17 C    0 0 0
  57 CL   1     2.8053     5.3013    5 H    0 0 0
  57 CL   1     2.8250     5.3385    4 H    0 0 0
  57 CL   1     3.1132     5.8831   58 CL   0-1-1

  61 ZN   4     2.0377     3.8507   33 N   -1-1 0   34 N   -1 0 1   35 N    0 0 1
                                    36 N   -1 0 0
  61 ZN   4     2.6307     4.9714    1 H   -1 0 0    2 H    0 0 1    3 H   -1-1 0
                                     4 H   -1 0 1
  61 ZN   4     2.9381     5.5522   37 N    0 0 1   38 N   -1 0 0   39 N   -1 0 1
                                    40 N   -1-1 0
  61 ZN   4     3.1418     5.9371   13 C   -1-1 0   14 C   -1 0 1   15 C    0 0 1
                                    16 C   -1 0 0
  61 ZN   4     3.1963     6.0401   25 C   -1 0 0   26 C    0 0 1   27 C   -1-1 0
                                    28 C   -1 0 1
  61 ZN   4     3.5321     6.6746    9 C   -1 0 0   10 C    0 0 1   11 C   -1-1 0
                                    12 C   -1 0 1

  62 ZN   4     2.0793     3.9294   41 N    0 0 0   42 N    0 0 0   43 N    1 1 0
                                    44 N    1 1 0
  62 ZN   4     2.8749     5.4328   45 N    1 1 1   46 N    0 0-1   47 N    0 1 0
                                    48 N    1 0 0
  62 ZN   4     3.2139     6.0734   53 CL   0 0 0   54 CL   0 0 0   55 CL   1 1 0
                                    56 CL   1 1 0
  62 ZN   4     3.2580     6.1568   13 C    0 0 0   14 C    0 0 0   15 C    1 1 0
                                    16 C    1 1 0
  62 ZN   4     3.9732     7.5084    9 C    0 1 0   10 C    1 0 0   11 C    0 0-1
                                    12 C    1 1 1
  62 ZN   4     4.0513     7.6558   17 C    0 1 0   18 C    1 0 0   19 C    0 0-1
                                    20 C    1 1 1


 SYMMETRY ALLOWED INTERNAL DEGREE(S) OF FREEDOM:  45
 TTTTTTTTTTTTTTTTTTTTTTTTTTTTTT SYMM        TELAPSE        5.97 TCPU        1.13
 TTTTTTTTTTTTTTTTTTTTTTTTTTTTTT INT_SCREEN  TELAPSE        5.97 TCPU        1.13
 INFORMATION **** EXCBUF **** EXCH. BIPO BUFFER: WORDS USED =           0

 DFT PARAMETERS

     ATOM       ELECTRONS   NET CHARGE   R(ANGSTROM)
   1   1  H       1.0000      0.0000     1.11000000
   9   6  C       6.0000      0.0000     0.77000000
  33   7  N       7.0000      0.0000     0.74000000
  53  17  CL     17.0000      0.0000     0.99000000
  61  30  ZN     30.0000      0.0000     1.37000000

 SIZE OF GRID=     465665
 TTTTTTTTTTTTTTTTTTTTTTTTTTTTTT MAKE_GRID2  TELAPSE        6.89 TCPU        2.04
 BECKE WEIGHT FUNCTION
 RADSAFE =     2.00
 TOLERANCES - DENSITY:10**- 6; POTENTIAL:10**- 9; GRID WGT:10**-14

 RADIAL INTEGRATION  - INTERVALS (POINTS,UPPER LIMIT):            1( 75,  4.0*R)

 ANGULAR INTEGRATION - INTERVALS (ACCURACY LEVEL [N. POINTS] UPPER LIMIT):
  1(  4[  86]   0.2)  2(  8[ 194]   0.5)  3( 12[ 350]   0.9)  4( 16[ 974]   3.5)
  5( 12[ 350]9999.0)
 TTTTTTTTTTTTTTTTTTTTTTTTTTTTTT INT_CALC    TELAPSE        6.94 TCPU        2.09
 EEEEEEEEEE INT_CALC TERMINATION  DATE 09 12 2023 TIME 13:58:22.6

 *******************************************************************************
 Z:\home\sanoj\Downloads\tmp_p\newconn.mol                                       
 CRYSTAL - SCF - TYPE OF CALCULATION :  RESTRICTED CLOSED SHELL
 *******************************************************************************

 CAPPA:IS1  3;IS2  3;IS3  3; K PTS MONK NET   6; SYMMOPS:K SPACE   8;G SPACE   4

 TTTTTTTTTTTTTTTTTTTTTTTTTTTTTT SDIK        TELAPSE        7.16 TCPU        2.32

 AAAAAAAAAAAAAAAAAAAAAAAAAAAAAAAAAAAAAAAAAAAAAAAAAAAAAAAAAAAAAAAAAAAAAAAAAAAAAAA
         ATOMIC WAVEFUNCTION(S)


 NUCLEAR CHARGE  1.0  SYMMETRY SPECIES            S
 N. ELECTRONS    1.0  NUMBER OF PRIMITIVE GTOS    4
                      NUMBER OF CONTRACTED GTOS   2
                      NUMBER OF CLOSED SHELLS     0
                      OPEN SHELL OCCUPATION       1

  ZNUC SCFIT  TOTAL HF ENERGY   KINETIC ENERGY   VIRIAL THEOREM ACCURACY
   1.0   1   -4.946643675E-01  4.917913167E-01 -2.005842012E+00  9.4E-17

 NUCLEAR CHARGE  6.0  SYMMETRY SPECIES            S    P
 N. ELECTRONS    6.0  NUMBER OF PRIMITIVE GTOS    7    4
                      NUMBER OF CONTRACTED GTOS   3    2
                      NUMBER OF CLOSED SHELLS     2    0
                      OPEN SHELL OCCUPATION       0    2

  ZNUC SCFIT  TOTAL HF ENERGY   KINETIC ENERGY   VIRIAL THEOREM ACCURACY
   6.0   6   -3.750912652E+01  3.905246519E+01 -1.960480378E+00  3.7E-06

 NUCLEAR CHARGE  7.0  SYMMETRY SPECIES            S    P
 N. ELECTRONS    7.0  NUMBER OF PRIMITIVE GTOS    7    4
                      NUMBER OF CONTRACTED GTOS   3    2
                      NUMBER OF CLOSED SHELLS     2    0
                      OPEN SHELL OCCUPATION       0    3

  ZNUC SCFIT  TOTAL HF ENERGY   KINETIC ENERGY   VIRIAL THEOREM ACCURACY
   7.0   9   -5.432196661E+01  5.425066284E+01 -2.001314339E+00  1.2E-06

 NUCLEAR CHARGE 17.0  SYMMETRY SPECIES            S    P
 N. ELECTRONS   17.0  NUMBER OF PRIMITIVE GTOS   10    7
                      NUMBER OF CONTRACTED GTOS   4    3
                      NUMBER OF CLOSED SHELLS     3    1
                      OPEN SHELL OCCUPATION       0    5

  ZNUC SCFIT  TOTAL HF ENERGY   KINETIC ENERGY   VIRIAL THEOREM ACCURACY
  17.0   9   -4.593005957E+02  4.593991532E+02 -1.999785464E+00  2.3E-06

 NUCLEAR CHARGE 30.0  SYMMETRY SPECIES            S    P    D
 N. ELECTRONS   30.0  NUMBER OF PRIMITIVE GTOS   14    9    5
                      NUMBER OF CONTRACTED GTOS   5    3    2
                      NUMBER OF CLOSED SHELLS     4    2    1
                      OPEN SHELL OCCUPATION       0    0    0

  ZNUC SCFIT  TOTAL HF ENERGY   KINETIC ENERGY   VIRIAL THEOREM ACCURACY
  30.0  10   -1.777404290E+03  1.777325716E+03 -2.000044209E+00  2.5E-06

 AAAAAAAAAAAAAAAAAAAAAAAAAAAAAAAAAAAAAAAAAAAAAAAAAAAAAAAAAAAAAAAAAAAAAAAAAAAAAAA

 TOTAL ATOMIC CHARGES:
   1.0000000   1.0000000   1.0000000   1.0000000   1.0000000   1.0000000
   1.0000000   1.0000000   6.0000000   6.0000000   6.0000000   6.0000000
   6.0000000   6.0000000   6.0000000   6.0000000   6.0000000   6.0000000
   6.0000000   6.0000000   6.0000000   6.0000000   6.0000000   6.0000000
   6.0000000   6.0000000   6.0000000   6.0000000   6.0000000   6.0000000
   6.0000000   6.0000000   7.0000000   7.0000000   7.0000000   7.0000000
   7.0000000   7.0000000   7.0000000   7.0000000   7.0000000   7.0000000
   7.0000000   7.0000000   7.0000000   7.0000000   7.0000000   7.0000000
   7.0000000   7.0000000   7.0000000   7.0000000  17.0000000  17.0000000
  17.0000000  17.0000000  17.0000000  17.0000000  17.0000000  17.0000000
  30.0000000  30.0000000
 TTTTTTTTTTTTTTTTTTTTTTTTTTTTTT MOQGAD      TELAPSE        8.88 TCPU        4.02
 TTTTTTTTTTTTTTTTTTTTTTTTTTTTTT SHELLXN     TELAPSE       88.31 TCPU       72.84
 TTTTTTTTTTTTTTTTTTTTTTTTTTTTTT MONMO3      TELAPSE       95.89 TCPU       80.39
 NUMERICALLY INTEGRATED DENSITY    487.9999996221
 TTTTTTTTTTTTTTTTTTTTTTTTTTTTTT NUMDFT      TELAPSE       98.36 TCPU       82.85
 CYC   0 ETOT(AU) -9.251442324457E+03 DETOT -9.25E+03 tst  0.00E+00 PX  1.00E+00
 TTTTTTTTTTTTTTTTTTTTTTTTTTTTTT DIIS        TELAPSE       98.45 TCPU       82.94
 TTTTTTTTTTTTTTTTTTTTTTTTTTTTTT FDIK        TELAPSE      138.99 TCPU      118.98
 INSULATING STATE
 TOP OF VALENCE BANDS -    BAND    244; K    4; EIG -1.3422557E-01 AU
 TOP OF VALENCE BANDS -    BAND    244; K    1; EIG -1.3461403E-01 AU
 BOTTOM OF VIRTUAL BANDS - BAND    245; K    5; EIG -9.4482512E-02 AU
 INDIRECT ENERGY BAND GAP:   1.0815 eV
 BOTTOM OF VIRTUAL BANDS - BAND    245; K    1; EIG -9.3229406E-02 AU
 TTTTTTTTTTTTTTTTTTTTTTTTTTTTTT PDIG        TELAPSE      139.72 TCPU      119.71
 TOTAL ATOMIC CHARGES:
   1.3690933   1.3690933   1.3690933   1.3690933   1.2610244   1.2610244
   1.2610244   1.2610244   6.1581455   6.1581455   6.1581455   6.1581455
   5.4758007   5.4758007   5.4758007   5.4758007   5.3945697   5.3945697
   5.3945697   5.3945697   5.8859787   5.8859787   5.8859787   5.8859787
   5.8874911   5.8874911   5.8874911   5.8874911   5.3393837   5.3393837
   5.3393837   5.3393837   7.4014810   7.4014810   7.4014810   7.4014810
   7.1979122   7.1979122   7.1979122   7.1979122   7.4249650   7.4249650
   7.4249650   7.4249650   7.1539592   7.1539592   7.1539592   7.1539592
   7.4962434   7.4962434   7.4962434   7.4962434  17.3175454  17.3175454
  17.3175454  17.3175454  17.3264426  17.3264426  17.3264426  17.3264426
  27.6829545  27.9569016
 TTTTTTTTTTTTTTTTTTTTTTTTTTTTTT MOQGAD      TELAPSE      139.77 TCPU      119.76
 TTTTTTTTTTTTTTTTTTTTTTTTTTTTTT SHELLXN     TELAPSE      222.24 TCPU      199.80
 TTTTTTTTTTTTTTTTTTTTTTTTTTTTTT MONMO3      TELAPSE      231.45 TCPU      208.98
 NUMERICALLY INTEGRATED DENSITY    488.0000197975
 TTTTTTTTTTTTTTTTTTTTTTTTTTTTTT NUMDFT      TELAPSE      238.17 TCPU      215.68
 CYC   1 ETOT(AU) -9.245928204092E+03 DETOT  5.51E+00 tst  0.00E+00 PX  1.00E+00
 TTTTTTTTTTTTTTTTTTTTTTTTTTTTTT DIIS        TELAPSE      238.35 TCPU      215.85
 DIIS TEST: 0.11945E+02 AT SCF   CYCLE   1 - MIX   30 %
 TTTTTTTTTTTTTTTTTTTTTTTTTTTTTT FDIK        TELAPSE      250.96 TCPU      226.05
 INSULATING STATE
 TOP OF VALENCE BANDS -    BAND    244; K    3; EIG -1.3014399E-01 AU
 TOP OF VALENCE BANDS -    BAND    244; K    1; EIG -1.3198102E-01 AU
 BOTTOM OF VIRTUAL BANDS - BAND    245; K    5; EIG -1.2552634E-01 AU
 INDIRECT ENERGY BAND GAP:   0.1257 eV
 BOTTOM OF VIRTUAL BANDS - BAND    245; K    1; EIG -1.1728866E-01 AU
 TTTTTTTTTTTTTTTTTTTTTTTTTTTTTT PDIG        TELAPSE      251.68 TCPU      226.77
 TOTAL ATOMIC CHARGES:
   1.3705942   1.3705942   1.3705942   1.3705942   1.2278777   1.2278777
   1.2278777   1.2278777   6.2297485   6.2297485   6.2297485   6.2297485
   6.2679321   6.2679321   6.2679321   6.2679321   6.1794875   6.1794875
   6.1794875   6.1794875   5.9312487   5.9312487   5.9312487   5.9312487
   6.2645710   6.2645710   6.2645710   6.2645710   5.7891011   5.7891011
   5.7891011   5.7891011   7.0234148   7.0234148   7.0234148   7.0234148
   6.8622116   6.8622116   6.8622116   6.8622116   6.9362836   6.9362836
   6.9362836   6.9362836   6.8630978   6.8630978   6.8630978   6.8630978
   5.8864884   5.8864884   5.8864884   5.8864884  17.1784047  17.1784047
  17.1784047  17.1784047  17.1363234  17.1363234  17.1363234  17.1363234
  29.8918862  29.5209732
 TTTTTTTTTTTTTTTTTTTTTTTTTTTTTT MOQGAD      TELAPSE      251.73 TCPU      226.82
 TTTTTTTTTTTTTTTTTTTTTTTTTTTTTT SHELLXN     TELAPSE      332.25 TCPU      307.02
 TTTTTTTTTTTTTTTTTTTTTTTTTTTTTT MONMO3      TELAPSE      341.60 TCPU      316.35
 NUMERICALLY INTEGRATED DENSITY    488.0000162848
 TTTTTTTTTTTTTTTTTTTTTTTTTTTTTT NUMDFT      TELAPSE      348.43 TCPU      323.16
 CYC   2 ETOT(AU) -9.244015111013E+03 DETOT  1.91E+00 tst  6.08E-02 PX  8.58E-01
 TTTTTTTTTTTTTTTTTTTTTTTTTTTTTT DIIS        TELAPSE      348.61 TCPU      323.35
 DIIS TEST: 0.25131E+02 AT SCF   CYCLE   2 - DIIS ACTIVE - HISTORY:     2 CYCLES
 TTTTTTTTTTTTTTTTTTTTTTTTTTTTTT FDIK        TELAPSE      361.79 TCPU      334.34
 INSULATING STATE
 TOP OF VALENCE BANDS -    BAND    244; K    5; EIG -2.4287406E-01 AU
 TOP OF VALENCE BANDS -    BAND    244; K    1; EIG -2.4659952E-01 AU
 BOTTOM OF VIRTUAL BANDS - BAND    245; K    1; EIG -1.3016391E-01 AU
 INDIRECT ENERGY BAND GAP:   3.0670 eV
 TTTTTTTTTTTTTTTTTTTTTTTTTTTTTT PDIG        TELAPSE      362.52 TCPU      335.07
 TOTAL ATOMIC CHARGES:
   1.2740470   1.2740470   1.2740470   1.2740470   1.1766036   1.1766036
   1.1766036   1.1766036   5.8919152   5.8919152   5.8919152   5.8919152
   5.8542962   5.8542962   5.8542962   5.8542962   5.5248751   5.5248751
   5.5248751   5.5248751   6.1534256   6.1534256   6.1534256   6.1534256
   5.9857263   5.9857263   5.9857263   5.9857263   5.5316777   5.5316777
   5.5316777   5.5316777   6.9806816   6.9806816   6.9806816   6.9806816
   7.1015227   7.1015227   7.1015227   7.1015227   7.0370737   7.0370737
   7.0370737   7.0370737   7.0901834   7.0901834   7.0901834   7.0901834
   7.4616505   7.4616505   7.4616505   7.4616505  17.1871370  17.1871370
  17.1871370  17.1871370  17.1330366  17.1330366  17.1330366  17.1330366
  29.3024117  29.1621798
 TTTTTTTTTTTTTTTTTTTTTTTTTTTTTT MOQGAD      TELAPSE      362.57 TCPU      335.12
 TTTTTTTTTTTTTTTTTTTTTTTTTTTTTT SHELLXN     TELAPSE      445.04 TCPU      415.28
 TTTTTTTTTTTTTTTTTTTTTTTTTTTTTT MONMO3      TELAPSE      454.32 TCPU      424.55
 NUMERICALLY INTEGRATED DENSITY    488.0000234636
 TTTTTTTTTTTTTTTTTTTTTTTTTTTTTT NUMDFT      TELAPSE      461.14 TCPU      431.35
 CYC   3 ETOT(AU) -9.247177494053E+03 DETOT -3.16E+00 tst  2.91E-01 PX  5.42E-01
 TTTTTTTTTTTTTTTTTTTTTTTTTTTTTT DIIS        TELAPSE      461.32 TCPU      431.53
 DIIS TEST: 0.45153E+01 AT SCF   CYCLE   3 - DIIS ACTIVE - HISTORY:     3 CYCLES
 TTTTTTTTTTTTTTTTTTTTTTTTTTTTTT FDIK        TELAPSE      476.06 TCPU      444.08
 INSULATING STATE
 TOP OF VALENCE BANDS -    BAND    244; K    4; EIG -2.1704397E-01 AU
 TOP OF VALENCE BANDS -    BAND    244; K    1; EIG -2.1826902E-01 AU
 BOTTOM OF VIRTUAL BANDS - BAND    245; K    6; EIG -1.2622018E-01 AU
 INDIRECT ENERGY BAND GAP:   2.4714 eV
 BOTTOM OF VIRTUAL BANDS - BAND    245; K    1; EIG -1.2099759E-01 AU
 TTTTTTTTTTTTTTTTTTTTTTTTTTTTTT PDIG        TELAPSE      476.79 TCPU      444.81
 TOTAL ATOMIC CHARGES:
   1.2926853   1.2926853   1.2926853   1.2926853   1.2091639   1.2091639
   1.2091639   1.2091639   6.2126776   6.2126776   6.2126776   6.2126776
   5.7567815   5.7567815   5.7567815   5.7567815   5.7447400   5.7447400
   5.7447400   5.7447400   5.7817453   5.7817453   5.7817453   5.7817453
   6.0396419   6.0396419   6.0396419   6.0396419   5.5040167   5.5040167
   5.5040167   5.5040167   7.2597750   7.2597750   7.2597750   7.2597750
   7.0662484   7.0662484   7.0662484   7.0662484   7.2378788   7.2378788
   7.2378788   7.2378788   7.0457794   7.0457794   7.0457794   7.0457794
   6.9570350   6.9570350   6.9570350   6.9570350  17.2514228  17.2514228
  17.2514228  17.2514228  17.2758951  17.2758951  17.2758951  17.2758951
  28.7148287  28.7432240
 TTTTTTTTTTTTTTTTTTTTTTTTTTTTTT MOQGAD      TELAPSE      476.84 TCPU      444.86
 TTTTTTTTTTTTTTTTTTTTTTTTTTTTTT SHELLXN     TELAPSE      559.36 TCPU      525.07
 TTTTTTTTTTTTTTTTTTTTTTTTTTTTTT MONMO3      TELAPSE      568.51 TCPU      534.20
 NUMERICALLY INTEGRATED DENSITY    488.0000129286
 TTTTTTTTTTTTTTTTTTTTTTTTTTTTTT NUMDFT      TELAPSE      575.29 TCPU      540.95
 CYC   4 ETOT(AU) -9.247689914062E+03 DETOT -5.12E-01 tst  6.57E-03 PX  3.24E-01
 TTTTTTTTTTTTTTTTTTTTTTTTTTTTTT DIIS        TELAPSE      575.48 TCPU      541.14
 DIIS TEST: 0.12597E+01 AT SCF   CYCLE   4 - DIIS ACTIVE - HISTORY:     4 CYCLES
 TTTTTTTTTTTTTTTTTTTTTTTTTTTTTT FDIK        TELAPSE      588.48 TCPU      553.98
 INSULATING STATE
 TOP OF VALENCE BANDS -    BAND    244; K    4; EIG -2.3643885E-01 AU
 TOP OF VALENCE BANDS -    BAND    244; K    1; EIG -2.3868995E-01 AU
 BOTTOM OF VIRTUAL BANDS - BAND    245; K    6; EIG -1.2827974E-01 AU
 INDIRECT ENERGY BAND GAP:   2.9432 eV
 BOTTOM OF VIRTUAL BANDS - BAND    245; K    1; EIG -1.2486099E-01 AU
 TTTTTTTTTTTTTTTTTTTTTTTTTTTTTT PDIG        TELAPSE      589.21 TCPU      554.71
 TOTAL ATOMIC CHARGES:
   1.2864594   1.2864594   1.2864594   1.2864594   1.1948236   1.1948236
   1.1948236   1.1948236   6.1037191   6.1037191   6.1037191   6.1037191
   5.7989911   5.7989911   5.7989911   5.7989911   5.7042045   5.7042045
   5.7042045   5.7042045   6.0009924   6.0009924   6.0009924   6.0009924
   6.0598489   6.0598489   6.0598489   6.0598489   5.5681389   5.5681389
   5.5681389   5.5681389   7.1897287   7.1897287   7.1897287   7.1897287
   7.0945906   7.0945906   7.0945906   7.0945906   7.1344620   7.1344620
   7.1344620   7.1344620   7.0538887   7.0538887   7.0538887   7.0538887
   6.9931949   6.9931949   6.9931949   6.9931949  17.2172589  17.2172589
  17.2172589  17.2172589  17.2032610  17.2032610  17.2032610  17.2032610
  28.8059023  28.7798471
 TTTTTTTTTTTTTTTTTTTTTTTTTTTTTT MOQGAD      TELAPSE      589.26 TCPU      554.76
 TTTTTTTTTTTTTTTTTTTTTTTTTTTTTT SHELLXN     TELAPSE      669.80 TCPU      634.96
 TTTTTTTTTTTTTTTTTTTTTTTTTTTTTT MONMO3      TELAPSE      680.16 TCPU      645.30
 NUMERICALLY INTEGRATED DENSITY    488.0000182478
 TTTTTTTTTTTTTTTTTTTTTTTTTTTTTT NUMDFT      TELAPSE      686.96 TCPU      652.07
 CYC   5 ETOT(AU) -9.247876785909E+03 DETOT -1.87E-01 tst  1.10E-03 PX  1.46E-01
 TTTTTTTTTTTTTTTTTTTTTTTTTTTTTT DIIS        TELAPSE      687.13 TCPU      652.24
 DIIS TEST: 0.93772E-01 AT SCF   CYCLE   5 - DIIS ACTIVE - HISTORY:     5 CYCLES
 TTTTTTTTTTTTTTTTTTTTTTTTTTTTTT FDIK        TELAPSE      700.27 TCPU      663.24
 INSULATING STATE
 TOP OF VALENCE BANDS -    BAND    244; K    4; EIG -2.3673357E-01 AU
 TOP OF VALENCE BANDS -    BAND    244; K    1; EIG -2.3931119E-01 AU
 BOTTOM OF VIRTUAL BANDS - BAND    245; K    6; EIG -1.2700897E-01 AU
 INDIRECT ENERGY BAND GAP:   2.9858 eV
 BOTTOM OF VIRTUAL BANDS - BAND    245; K    1; EIG -1.2367440E-01 AU
 TTTTTTTTTTTTTTTTTTTTTTTTTTTTTT PDIG        TELAPSE      701.00 TCPU      663.97
 TOTAL ATOMIC CHARGES:
   1.2836029   1.2836029   1.2836029   1.2836029   1.1960976   1.1960976
   1.1960976   1.1960976   6.1182639   6.1182639   6.1182639   6.1182639
   5.8064191   5.8064191   5.8064191   5.8064191   5.6909721   5.6909721
   5.6909721   5.6909721   5.9102124   5.9102124   5.9102124   5.9102124
   6.0478069   6.0478069   6.0478069   6.0478069   5.5119674   5.5119674
   5.5119674   5.5119674   7.1541036   7.1541036   7.1541036   7.1541036
   7.0417069   7.0417069   7.0417069   7.0417069   7.1973436   7.1973436
   7.1973436   7.1973436   7.0747331   7.0747331   7.0747331   7.0747331
   7.0788345   7.0788345   7.0788345   7.0788345  17.2403911  17.2403911
  17.2403911  17.2403911  17.2280859  17.2280859  17.2280859  17.2280859
  28.8461915  28.8316446
 TTTTTTTTTTTTTTTTTTTTTTTTTTTTTT MOQGAD      TELAPSE      701.05 TCPU      664.02
 TTTTTTTTTTTTTTTTTTTTTTTTTTTTTT SHELLXN     TELAPSE      783.73 TCPU      744.31
 TTTTTTTTTTTTTTTTTTTTTTTTTTTTTT MONMO3      TELAPSE      792.78 TCPU      753.34
 NUMERICALLY INTEGRATED DENSITY    488.0000170160
 TTTTTTTTTTTTTTTTTTTTTTTTTTTTTT NUMDFT      TELAPSE      799.58 TCPU      760.11
 CYC   6 ETOT(AU) -9.247882857004E+03 DETOT -6.07E-03 tst  1.32E-04 PX  2.94E-02
 TTTTTTTTTTTTTTTTTTTTTTTTTTTTTT DIIS        TELAPSE      799.76 TCPU      760.29
 DIIS TEST: 0.57903E-01 AT SCF   CYCLE   6 - DIIS ACTIVE - HISTORY:     6 CYCLES
 TTTTTTTTTTTTTTTTTTTTTTTTTTTTTT FDIK        TELAPSE      812.14 TCPU      770.52
 INSULATING STATE
 TOP OF VALENCE BANDS -    BAND    244; K    4; EIG -2.3694463E-01 AU
 TOP OF VALENCE BANDS -    BAND    244; K    1; EIG -2.3936152E-01 AU
 BOTTOM OF VIRTUAL BANDS - BAND    245; K    6; EIG -1.2726855E-01 AU
 INDIRECT ENERGY BAND GAP:   2.9844 eV
 BOTTOM OF VIRTUAL BANDS - BAND    245; K    1; EIG -1.2365040E-01 AU
 TTTTTTTTTTTTTTTTTTTTTTTTTTTTTT PDIG        TELAPSE      812.87 TCPU      771.25
 TOTAL ATOMIC CHARGES:
   1.2838881   1.2838881   1.2838881   1.2838881   1.1928100   1.1928100
   1.1928100   1.1928100   6.1013981   6.1013981   6.1013981   6.1013981
   5.8049418   5.8049418   5.8049418   5.8049418   5.6969907   5.6969907
   5.6969907   5.6969907   5.9308050   5.9308050   5.9308050   5.9308050
   6.0543780   6.0543780   6.0543780   6.0543780   5.5359492   5.5359492
   5.5359492   5.5359492   7.1898898   7.1898898   7.1898898   7.1898898
   7.0943031   7.0943031   7.0943031   7.0943031   7.1378548   7.1378548
   7.1378548   7.1378548   7.0431935   7.0431935   7.0431935   7.0431935
   7.0635957   7.0635957   7.0635957   7.0635957  17.2271260  17.2271260
  17.2271260  17.2271260  17.2213486  17.2213486  17.2213486  17.2213486
  28.8514486  28.8346618
 TTTTTTTTTTTTTTTTTTTTTTTTTTTTTT MOQGAD      TELAPSE      812.92 TCPU      771.30
 TTTTTTTTTTTTTTTTTTTTTTTTTTTTTT SHELLXN     TELAPSE      895.34 TCPU      851.35
 TTTTTTTTTTTTTTTTTTTTTTTTTTTTTT MONMO3      TELAPSE      904.34 TCPU      860.32
 NUMERICALLY INTEGRATED DENSITY    488.0000173282
 TTTTTTTTTTTTTTTTTTTTTTTTTTTTTT NUMDFT      TELAPSE      911.10 TCPU      867.06
 CYC   7 ETOT(AU) -9.247889000745E+03 DETOT -6.14E-03 tst  3.12E-05 PX  1.77E-02
 TTTTTTTTTTTTTTTTTTTTTTTTTTTTTT DIIS        TELAPSE      911.31 TCPU      867.26
 DIIS TEST: 0.18832E-01 AT SCF   CYCLE   7 - DIIS ACTIVE - HISTORY:     7 CYCLES
 TTTTTTTTTTTTTTTTTTTTTTTTTTTTTT FDIK        TELAPSE      926.92 TCPU      878.55
 INSULATING STATE
 TOP OF VALENCE BANDS -    BAND    244; K    4; EIG -2.3645599E-01 AU
 TOP OF VALENCE BANDS -    BAND    244; K    1; EIG -2.3881532E-01 AU
 BOTTOM OF VIRTUAL BANDS - BAND    245; K    6; EIG -1.2764414E-01 AU
 INDIRECT ENERGY BAND GAP:   2.9609 eV
 BOTTOM OF VIRTUAL BANDS - BAND    245; K    1; EIG -1.2434110E-01 AU
 TTTTTTTTTTTTTTTTTTTTTTTTTTTTTT PDIG        TELAPSE      927.65 TCPU      879.27
 TOTAL ATOMIC CHARGES:
   1.2817593   1.2817593   1.2817593   1.2817593   1.1924472   1.1924472
   1.1924472   1.1924472   6.1012061   6.1012061   6.1012061   6.1012061
   5.8015823   5.8015823   5.8015823   5.8015823   5.6967325   5.6967325
   5.6967325   5.6967325   5.9502170   5.9502170   5.9502170   5.9502170
   6.0495428   6.0495428   6.0495428   6.0495428   5.5405905   5.5405905
   5.5405905   5.5405905   7.1680946   7.1680946   7.1680946   7.1680946
   7.0701553   7.0701553   7.0701553   7.0701553   7.1647423   7.1647423
   7.1647423   7.1647423   7.0646570   7.0646570   7.0646570   7.0646570
   7.0512640   7.0512640   7.0512640   7.0512640  17.2293972  17.2293972
  17.2293972  17.2293972  17.2172934  17.2172934  17.2172934  17.2172934
  28.8489955  28.8322779
 TTTTTTTTTTTTTTTTTTTTTTTTTTTTTT MOQGAD      TELAPSE      927.70 TCPU      879.32
 TTTTTTTTTTTTTTTTTTTTTTTTTTTTTT SHELLXN     TELAPSE     1010.37 TCPU      959.63
 TTTTTTTTTTTTTTTTTTTTTTTTTTTTTT MONMO3      TELAPSE     1019.36 TCPU      968.60
 NUMERICALLY INTEGRATED DENSITY    488.0000172287
 TTTTTTTTTTTTTTTTTTTTTTTTTTTTTT NUMDFT      TELAPSE     1026.19 TCPU      975.41
 CYC   8 ETOT(AU) -9.247891531439E+03 DETOT -2.53E-03 tst  1.24E-05 PX  8.20E-03
 TTTTTTTTTTTTTTTTTTTTTTTTTTTTTT DIIS        TELAPSE     1026.37 TCPU      975.59
 DIIS TEST: 0.23726E-02 AT SCF   CYCLE   8 - DIIS ACTIVE - HISTORY:     8 CYCLES
 TTTTTTTTTTTTTTTTTTTTTTTTTTTTTT FDIK        TELAPSE     1038.87 TCPU      985.87
 INSULATING STATE
 TOP OF VALENCE BANDS -    BAND    244; K    4; EIG -2.3714218E-01 AU
 TOP OF VALENCE BANDS -    BAND    244; K    1; EIG -2.3960267E-01 AU
 BOTTOM OF VIRTUAL BANDS - BAND    245; K    6; EIG -1.2794378E-01 AU
 INDIRECT ENERGY BAND GAP:   2.9714 eV
 BOTTOM OF VIRTUAL BANDS - BAND    245; K    1; EIG -1.2453867E-01 AU
 TTTTTTTTTTTTTTTTTTTTTTTTTTTTTT PDIG        TELAPSE     1039.62 TCPU      986.61
 TOTAL ATOMIC CHARGES:
   1.2807261   1.2807261   1.2807261   1.2807261   1.1927481   1.1927481
   1.1927481   1.1927481   6.1081067   6.1081067   6.1081067   6.1081067
   5.8009950   5.8009950   5.8009950   5.8009950   5.6919392   5.6919392
   5.6919392   5.6919392   5.9477936   5.9477936   5.9477936   5.9477936
   6.0561306   6.0561306   6.0561306   6.0561306   5.5318426   5.5318426
   5.5318426   5.5318426   7.1772105   7.1772105   7.1772105   7.1772105
   7.0710866   7.0710866   7.0710866   7.0710866   7.1627200   7.1627200
   7.1627200   7.1627200   7.0563075   7.0563075   7.0563075   7.0563075
   7.0556008   7.0556008   7.0556008   7.0556008  17.2289584  17.2289584
  17.2289584  17.2289584  17.2173866  17.2173866  17.2173866  17.2173866
  28.8519236  28.8298680
 TTTTTTTTTTTTTTTTTTTTTTTTTTTTTT MOQGAD      TELAPSE     1039.67 TCPU      986.66
 TTTTTTTTTTTTTTTTTTTTTTTTTTTTTT SHELLXN     TELAPSE     1120.20 TCPU     1066.83
 TTTTTTTTTTTTTTTTTTTTTTTTTTTTTT MONMO3      TELAPSE     1131.35 TCPU     1077.95
 NUMERICALLY INTEGRATED DENSITY    488.0000174258
 TTTTTTTTTTTTTTTTTTTTTTTTTTTTTT NUMDFT      TELAPSE     1138.09 TCPU     1084.66
 CYC   9 ETOT(AU) -9.247891756330E+03 DETOT -2.25E-04 tst  1.80E-06 PX  2.91E-03
 TTTTTTTTTTTTTTTTTTTTTTTTTTTTTT DIIS        TELAPSE     1138.44 TCPU     1085.00
 DIIS TEST: 0.87220E-03 AT SCF   CYCLE   9 - DIIS ACTIVE - HISTORY:     9 CYCLES
 TTTTTTTTTTTTTTTTTTTTTTTTTTTTTT FDIK        TELAPSE     1151.72 TCPU     1096.10
 INSULATING STATE
 TOP OF VALENCE BANDS -    BAND    244; K    4; EIG -2.3713862E-01 AU
 TOP OF VALENCE BANDS -    BAND    244; K    1; EIG -2.3956385E-01 AU
 BOTTOM OF VIRTUAL BANDS - BAND    245; K    6; EIG -1.2772986E-01 AU
 INDIRECT ENERGY BAND GAP:   2.9772 eV
 BOTTOM OF VIRTUAL BANDS - BAND    245; K    1; EIG -1.2435442E-01 AU
 TTTTTTTTTTTTTTTTTTTTTTTTTTTTTT PDIG        TELAPSE     1152.45 TCPU     1096.82
 TOTAL ATOMIC CHARGES:
   1.2812195   1.2812195   1.2812195   1.2812195   1.1925438   1.1925438
   1.1925438   1.1925438   6.1040184   6.1040184   6.1040184   6.1040184
   5.8008747   5.8008747   5.8008747   5.8008747   5.6953700   5.6953700
   5.6953700   5.6953700   5.9446455   5.9446455   5.9446455   5.9446455
   6.0509147   6.0509147   6.0509147   6.0509147   5.5364845   5.5364845
   5.5364845   5.5364845   7.1726592   7.1726592   7.1726592   7.1726592
   7.0747991   7.0747991   7.0747991   7.0747991   7.1600127   7.1600127
   7.1600127   7.1600127   7.0596671   7.0596671   7.0596671   7.0596671
   7.0574315   7.0574315   7.0574315   7.0574315  17.2299628  17.2299628
  17.2299628  17.2299628  17.2188789  17.2188789  17.2188789  17.2188789
  28.8507303  28.8313391
 TTTTTTTTTTTTTTTTTTTTTTTTTTTTTT MOQGAD      TELAPSE     1152.50 TCPU     1096.87
 TTTTTTTTTTTTTTTTTTTTTTTTTTTTTT SHELLXN     TELAPSE     1235.05 TCPU     1177.09
 TTTTTTTTTTTTTTTTTTTTTTTTTTTTTT MONMO3      TELAPSE     1244.27 TCPU     1186.29
 NUMERICALLY INTEGRATED DENSITY    488.0000173534
 TTTTTTTTTTTTTTTTTTTTTTTTTTTTTT NUMDFT      TELAPSE     1251.04 TCPU     1193.04
 CYC  10 ETOT(AU) -9.247891866502E+03 DETOT -1.10E-04 tst  5.93E-07 PX  1.74E-03
 TTTTTTTTTTTTTTTTTTTTTTTTTTTTTT DIIS        TELAPSE     1251.23 TCPU     1193.23
 DIIS TEST: 0.12506E-03 AT SCF   CYCLE  10 - DIIS ACTIVE - HISTORY:    10 CYCLES
 TTTTTTTTTTTTTTTTTTTTTTTTTTTTTT FDIK        TELAPSE     1264.93 TCPU     1204.77
 INSULATING STATE
 TOP OF VALENCE BANDS -    BAND    244; K    4; EIG -2.3710973E-01 AU
 TOP OF VALENCE BANDS -    BAND    244; K    1; EIG -2.3954483E-01 AU
 BOTTOM OF VIRTUAL BANDS - BAND    245; K    6; EIG -1.2779665E-01 AU
 INDIRECT ENERGY BAND GAP:   2.9746 eV
 BOTTOM OF VIRTUAL BANDS - BAND    245; K    1; EIG -1.2442438E-01 AU
 TTTTTTTTTTTTTTTTTTTTTTTTTTTTTT PDIG        TELAPSE     1265.67 TCPU     1205.50
 TOTAL ATOMIC CHARGES:
   1.2812957   1.2812957   1.2812957   1.2812957   1.1924095   1.1924095
   1.1924095   1.1924095   6.1032506   6.1032506   6.1032506   6.1032506
   5.8018921   5.8018921   5.8018921   5.8018921   5.6943978   5.6943978
   5.6943978   5.6943978   5.9464207   5.9464207   5.9464207   5.9464207
   6.0523650   6.0523650   6.0523650   6.0523650   5.5360441   5.5360441
   5.5360441   5.5360441   7.1743698   7.1743698   7.1743698   7.1743698
   7.0727009   7.0727009   7.0727009   7.0727009   7.1614272   7.1614272
   7.1614272   7.1614272   7.0586926   7.0586926   7.0586926   7.0586926
   7.0567185   7.0567185   7.0567185   7.0567185  17.2296618  17.2296618
  17.2296618  17.2296618  17.2180891  17.2180891  17.2180891  17.2180891
  28.8500360  28.8310225
 TTTTTTTTTTTTTTTTTTTTTTTTTTTTTT MOQGAD      TELAPSE     1265.72 TCPU     1205.55
 TTTTTTTTTTTTTTTTTTTTTTTTTTTTTT SHELLXN     TELAPSE     1345.80 TCPU     1285.27
 TTTTTTTTTTTTTTTTTTTTTTTTTTTTTT MONMO3      TELAPSE     1357.56 TCPU     1297.01
 NUMERICALLY INTEGRATED DENSITY    488.0000173433
 TTTTTTTTTTTTTTTTTTTTTTTTTTTTTT NUMDFT      TELAPSE     1364.38 TCPU     1303.82
 CYC  11 ETOT(AU) -9.247891881336E+03 DETOT -1.48E-05 tst  6.33E-08 PX  6.90E-04
 TTTTTTTTTTTTTTTTTTTTTTTTTTTTTT DIIS        TELAPSE     1364.57 TCPU     1304.00
 DIIS TEST: 0.19733E-04 AT SCF   CYCLE  11 - DIIS ACTIVE - HISTORY:    11 CYCLES
 TTTTTTTTTTTTTTTTTTTTTTTTTTTTTT FDIK        TELAPSE     1377.72 TCPU     1314.97
 INSULATING STATE
 TOP OF VALENCE BANDS -    BAND    244; K    4; EIG -2.3708339E-01 AU
 TOP OF VALENCE BANDS -    BAND    244; K    1; EIG -2.3951421E-01 AU
 BOTTOM OF VIRTUAL BANDS - BAND    245; K    6; EIG -1.2776727E-01 AU
 INDIRECT ENERGY BAND GAP:   2.9746 eV
 BOTTOM OF VIRTUAL BANDS - BAND    245; K    1; EIG -1.2439184E-01 AU
 TTTTTTTTTTTTTTTTTTTTTTTTTTTTTT PDIG        TELAPSE     1378.45 TCPU     1315.70
 TOTAL ATOMIC CHARGES:
   1.2811723   1.2811723   1.2811723   1.2811723   1.1924979   1.1924979
   1.1924979   1.1924979   6.1047313   6.1047313   6.1047313   6.1047313
   5.8012312   5.8012312   5.8012312   5.8012312   5.6945800   5.6945800
   5.6945800   5.6945800   5.9460222   5.9460222   5.9460222   5.9460222
   6.0525141   6.0525141   6.0525141   6.0525141   5.5351307   5.5351307
   5.5351307   5.5351307   7.1730201   7.1730201   7.1730201   7.1730201
   7.0739502   7.0739502   7.0739502   7.0739502   7.1606221   7.1606221
   7.1606221   7.1606221   7.0594869   7.0594869   7.0594869   7.0594869
   7.0565055   7.0565055   7.0565055   7.0565055  17.2295836  17.2295836
  17.2295836  17.2295836  17.2184733  17.2184733  17.2184733  17.2184733
  28.8507703  28.8311440
 TTTTTTTTTTTTTTTTTTTTTTTTTTTTTT MOQGAD      TELAPSE     1378.50 TCPU     1315.75
 TTTTTTTTTTTTTTTTTTTTTTTTTTTTTT SHELLXN     TELAPSE     1460.56 TCPU     1395.37
 TTTTTTTTTTTTTTTTTTTTTTTTTTTTTT MONMO3      TELAPSE     1469.31 TCPU     1404.11
 NUMERICALLY INTEGRATED DENSITY    488.0000173501
 TTTTTTTTTTTTTTTTTTTTTTTTTTTTTT NUMDFT      TELAPSE     1476.08 TCPU     1410.85
 CYC  12 ETOT(AU) -9.247891882044E+03 DETOT -7.08E-07 tst  3.18E-08 PX  3.97E-04
 TTTTTTTTTTTTTTTTTTTTTTTTTTTTTT DIIS        TELAPSE     1476.26 TCPU     1411.04
 DIIS TEST: 0.14249E-04 AT SCF   CYCLE  12 - DIIS ACTIVE - HISTORY:    12 CYCLES
 TTTTTTTTTTTTTTTTTTTTTTTTTTTTTT FDIK        TELAPSE     1489.52 TCPU     1423.12
 INSULATING STATE
 TOP OF VALENCE BANDS -    BAND    244; K    4; EIG -2.3709766E-01 AU
 TOP OF VALENCE BANDS -    BAND    244; K    1; EIG -2.3952863E-01 AU
 BOTTOM OF VIRTUAL BANDS - BAND    245; K    6; EIG -1.2777650E-01 AU
 INDIRECT ENERGY BAND GAP:   2.9748 eV
 BOTTOM OF VIRTUAL BANDS - BAND    245; K    1; EIG -1.2439989E-01 AU
 TTTTTTTTTTTTTTTTTTTTTTTTTTTTTT PDIG        TELAPSE     1490.26 TCPU     1423.85
 TOTAL ATOMIC CHARGES:
   1.2812209   1.2812209   1.2812209   1.2812209   1.1924906   1.1924906
   1.1924906   1.1924906   6.1042903   6.1042903   6.1042903   6.1042903
   5.8011762   5.8011762   5.8011762   5.8011762   5.6945459   5.6945459
   5.6945459   5.6945459   5.9459424   5.9459424   5.9459424   5.9459424
   6.0521010   6.0521010   6.0521010   6.0521010   5.5356724   5.5356724
   5.5356724   5.5356724   7.1740368   7.1740368   7.1740368   7.1740368
   7.0732054   7.0732054   7.0732054   7.0732054   7.1612547   7.1612547
   7.1612547   7.1612547   7.0588312   7.0588312   7.0588312   7.0588312
   7.0567303   7.0567303   7.0567303   7.0567303  17.2296726  17.2296726
[...]
 DIIS TEST: 0.45264E-01 AT CPHF  CYCLE   7 - DIIS ACTIVE - HISTORY:     7 CYCLES
 CYCLE   7   ALPHA 1350.590953  EPSILON    4.354017  DELTA    1.0057E+00
 TTTTTTTTTTTTTTTTTTTTTTTTTTTTTT MOQGAD      TELAPSE   168008.04 TCPU   167105.98
 TTTTTTTTTTTTTTTTTTTTTTTTTTTTTT CP_MONMON   TELAPSE   168040.72 TCPU   167138.56
 DIIS TEST: 0.43168E-02 AT CPHF  CYCLE   8 - DIIS ACTIVE - HISTORY:     8 CYCLES
 CYCLE   8   ALPHA 1350.855129  EPSILON    4.354673  DELTA    2.6418E-01
 TTTTTTTTTTTTTTTTTTTTTTTTTTTTTT MOQGAD      TELAPSE   169637.51 TCPU   168728.88
 TTTTTTTTTTTTTTTTTTTTTTTTTTTTTT CP_MONMON   TELAPSE   169670.19 TCPU   168761.42
 DIIS TEST: 0.54149E-03 AT CPHF  CYCLE   9 - DIIS ACTIVE - HISTORY:     9 CYCLES
 CYCLE   9   ALPHA 1350.845288  EPSILON    4.354648  DELTA   -9.8407E-03
 TTTTTTTTTTTTTTTTTTTTTTTTTTTTTT MOQGAD      TELAPSE   171267.41 TCPU   170350.99
 TTTTTTTTTTTTTTTTTTTTTTTTTTTTTT CP_MONMON   TELAPSE   171300.27 TCPU   170383.76
 DIIS TEST: 0.10796E-03 AT CPHF  CYCLE  10 - DIIS ACTIVE - HISTORY:    10 CYCLES
 CYCLE  10   ALPHA 1350.816052  EPSILON    4.354576  DELTA   -2.9237E-02
 TTTTTTTTTTTTTTTTTTTTTTTTTTTTTT MOQGAD      TELAPSE   172918.74 TCPU   171991.60
 TTTTTTTTTTTTTTTTTTTTTTTTTTTTTT CP_MONMON   TELAPSE   172951.36 TCPU   172024.11
 DIIS TEST: 0.15501E-04 AT CPHF  CYCLE  11 - DIIS ACTIVE - HISTORY:    11 CYCLES
 CYCLE  11   ALPHA 1350.797953  EPSILON    4.354531  DELTA   -1.8099E-02
 TTTTTTTTTTTTTTTTTTTTTTTTTTTTTT MOQGAD      TELAPSE   174597.43 TCPU   173662.55
 TTTTTTTTTTTTTTTTTTTTTTTTTTTTTT CP_MONMON   TELAPSE   174630.04 TCPU   173695.06
 DIIS TEST: 0.18580E-05 AT CPHF  CYCLE  12 - DIIS ACTIVE - HISTORY:    12 CYCLES
 CYCLE  12   ALPHA 1350.791019  EPSILON    4.354513  DELTA   -6.9338E-03
 TTTTTTTTTTTTTTTTTTTTTTTTTTTTTT MOQGAD      TELAPSE   176251.72 TCPU   175311.01
 TTTTTTTTTTTTTTTTTTTTTTTTTTTTTT CP_MONMON   TELAPSE   176284.37 TCPU   175343.56
 DIIS TEST: 0.20935E-06 AT CPHF  CYCLE  13 - DIIS ACTIVE - HISTORY:    13 CYCLES
 CYCLE  13   ALPHA 1350.789461  EPSILON    4.354510  DELTA   -1.5580E-03
 TTTTTTTTTTTTTTTTTTTTTTTTTTTTTT MOQGAD      TELAPSE   177881.16 TCPU   176933.87
 TTTTTTTTTTTTTTTTTTTTTTTTTTTTTT CP_MONMON   TELAPSE   177913.79 TCPU   176966.43
 DIIS TEST: 0.23320E-07 AT CPHF  CYCLE  14 - DIIS ACTIVE - HISTORY:    14 CYCLES
 CYCLE  14   ALPHA 1350.789302  EPSILON    4.354509  DELTA   -1.5891E-04
 TTTTTTTTTTTTTTTTTTTTTTTTTTTTTT CP_SC       TELAPSE   178042.40 TCPU   177090.62

 *******************************************************************************

 ELECTRIC FIELD APPLIED ALONG CARTESIAN DIRECTION Z

 *******************************************************************************
 THE NUMBER OF SYMMETRY OPERATORS HAS BEEN REDUCED FROM  4 TO  1

 NEW GRID IN RECIPROCAL SPACE
 *******************************************************************************
 POINTS IN THE IBZ                  14 SHRINKING FACTORS               3  3  3
 *******************************************************************************
 *** K POINTS COORDINATES (OBLIQUE COORDINATES IN UNITS OF SHRINK FAC. )
   1-R(  0  0  0)   2-C(  1  0  0)   3-C(  0  1  2)   4-C(  2  0  1)
   5-C(  0  2  0)   6-C(  1  1  0)   7-C(  1  1  1)   8-C(  1  0  1)
   9-C(  0  1  1)  10-C(  2  1  0)  11-C(  0  0  2)  12-C(  2  1  1)
  13-C(  2  1  2)  14-C(  2  2  1)

 GCALCO - MAX INDICES DIRECT LATTICE VECTOR    14    14    16
 NO.OF VECTORS CREATED 6999 STARS  486 RMAX   204.19219 BOHR
 TTTTTTTTTTTTTTTTTTTTTTTTTTTTTT gordsh1     TELAPSE   178095.92 TCPU   177143.43

 MATRIX SIZE: P(G) 1872748, F(G)  937080, P(G) IRR  938734, F(G) IRR  938734
 MAX G-VECTOR INDEX FOR 1- AND 2-ELECTRON INTEGRALS  59

 TTTTTTTTTTTTTTTTTTTTTTTTTTTTTT INPUT       TELAPSE   178131.13 TCPU   177178.38
 TTTTTTTTTTTTTTTTTTTTTTTTTTTTTT SYMM        TELAPSE   178131.13 TCPU   177178.38

 ***** NEW REFERENCE GEOMETRY *****
 TTTTTTTTTTTTTTTTTTTTTTTTTTTTTT INT_SCREEN  TELAPSE   178131.14 TCPU   177178.40
 INFORMATION **** EXCBUF **** EXCH. BIPO BUFFER: WORDS USED =           0

 DFT PARAMETERS

     ATOM       ELECTRONS   NET CHARGE   R(ANGSTROM)
   1   1  H       1.0000      0.0000     1.11000000
   9   6  C       6.0000      0.0000     0.77000000
  33   7  N       7.0000      0.0000     0.74000000
  53  17  CL     17.0000      0.0000     0.99000000
  61  30  ZN     30.0000      0.0000     1.37000000

 SIZE OF GRID=    1862434
 TTTTTTTTTTTTTTTTTTTTTTTTTTTTTT MAKE_GRID2  TELAPSE   178133.44 TCPU   177180.69
 BECKE WEIGHT FUNCTION
 RADSAFE =     2.00
 TOLERANCES - DENSITY:10**- 6; POTENTIAL:10**- 9; GRID WGT:10**-14

 RADIAL INTEGRATION  - INTERVALS (POINTS,UPPER LIMIT):            1( 75,  4.0*R)

 ANGULAR INTEGRATION - INTERVALS (ACCURACY LEVEL [N. POINTS] UPPER LIMIT):
  1(  4[  86]   0.2)  2(  8[ 194]   0.5)  3( 12[ 350]   0.9)  4( 16[ 974]   3.5)
  5( 12[ 350]9999.0)
 TTTTTTTTTTTTTTTTTTTTTTTTTTTTTT INT_CALC    TELAPSE   178133.56 TCPU   177180.81
 CYCLE   0   ALPHA  767.250503  EPSILON    2.905367  DELTA    7.6725E+02
 TTTTTTTTTTTTTTTTTTTTTTTTTTTTTT MOQGAD      TELAPSE   179679.77 TCPU   178721.93
 TTTTTTTTTTTTTTTTTTTTTTTTTTTTTT CP_MONMON   TELAPSE   179712.42 TCPU   178754.45
 DIIS TEST: 0.85647E+02 AT CPHF  CYCLE   1 - MIX    0 %
 CYCLE   1   ALPHA  409.950435  EPSILON    2.018058  DELTA   -3.5730E+02
 TTTTTTTTTTTTTTTTTTTTTTTTTTTTTT MOQGAD      TELAPSE   181302.80 TCPU   180338.40
 TTTTTTTTTTTTTTTTTTTTTTTTTTTTTT CP_MONMON   TELAPSE   181335.41 TCPU   180370.93
 DIIS TEST: 0.57757E+03 AT CPHF  CYCLE   2 - DIIS ACTIVE - HISTORY:     2 CYCLES
 CYCLE   2   ALPHA  565.230559  EPSILON    2.403676  DELTA    1.5528E+02
 TTTTTTTTTTTTTTTTTTTTTTTTTTTTTT MOQGAD      TELAPSE   182962.64 TCPU   181991.09
 TTTTTTTTTTTTTTTTTTTTTTTTTTTTTT CP_MONMON   TELAPSE   182995.31 TCPU   182023.64
 DIIS TEST: 0.41804E+02 AT CPHF  CYCLE   3 - DIIS ACTIVE - HISTORY:     3 CYCLES
 CYCLE   3   ALPHA  606.942906  EPSILON    2.507264  DELTA    4.1712E+01
 TTTTTTTTTTTTTTTTTTTTTTTTTTTTTT MOQGAD      TELAPSE   184628.90 TCPU   183648.93
 TTTTTTTTTTTTTTTTTTTTTTTTTTTTTT CP_MONMON   TELAPSE   184661.51 TCPU   183681.44
 DIIS TEST: 0.40679E+01 AT CPHF  CYCLE   4 - DIIS ACTIVE - HISTORY:     4 CYCLES
 CYCLE   4   ALPHA  607.923475  EPSILON    2.509699  DELTA    9.8057E-01
 TTTTTTTTTTTTTTTTTTTTTTTTTTTTTT MOQGAD      TELAPSE   186257.61 TCPU   185268.54
 TTTTTTTTTTTTTTTTTTTTTTTTTTTTTT CP_MONMON   TELAPSE   186290.29 TCPU   185301.09
 DIIS TEST: 0.17860E+00 AT CPHF  CYCLE   5 - DIIS ACTIVE - HISTORY:     5 CYCLES
 CYCLE   5   ALPHA  608.423148  EPSILON    2.510940  DELTA    4.9967E-01
 TTTTTTTTTTTTTTTTTTTTTTTTTTTTTT MOQGAD      TELAPSE   187868.32 TCPU   186871.94
 TTTTTTTTTTTTTTTTTTTTTTTTTTTTTT CP_MONMON   TELAPSE   187901.19 TCPU   186904.70
 DIIS TEST: 0.51590E-01 AT CPHF  CYCLE   6 - DIIS ACTIVE - HISTORY:     6 CYCLES
 CYCLE   6   ALPHA  608.677444  EPSILON    2.511571  DELTA    2.5430E-01
 TTTTTTTTTTTTTTTTTTTTTTTTTTTTTT MOQGAD      TELAPSE   189582.29 TCPU   188580.06
 TTTTTTTTTTTTTTTTTTTTTTTTTTTTTT CP_MONMON   TELAPSE   189615.16 TCPU   188612.81
 DIIS TEST: 0.80369E-02 AT CPHF  CYCLE   7 - DIIS ACTIVE - HISTORY:     7 CYCLES
 CYCLE   7   ALPHA  608.723969  EPSILON    2.511687  DELTA    4.6525E-02
 TTTTTTTTTTTTTTTTTTTTTTTTTTTTTT MOQGAD      TELAPSE   191283.07 TCPU   190271.22
 TTTTTTTTTTTTTTTTTTTTTTTTTTTTTT CP_MONMON   TELAPSE   191315.98 TCPU   190304.00
 DIIS TEST: 0.11925E-02 AT CPHF  CYCLE   8 - DIIS ACTIVE - HISTORY:     8 CYCLES
 CYCLE   8   ALPHA  608.729831  EPSILON    2.511701  DELTA    5.8625E-03
 TTTTTTTTTTTTTTTTTTTTTTTTTTTTTT MOQGAD      TELAPSE   192973.80 TCPU   191954.10
 TTTTTTTTTTTTTTTTTTTTTTTTTTTTTT CP_MONMON   TELAPSE   193006.67 TCPU   191986.86
 DIIS TEST: 0.22851E-03 AT CPHF  CYCLE   9 - DIIS ACTIVE - HISTORY:     9 CYCLES
 CYCLE   9   ALPHA  608.720024  EPSILON    2.511677  DELTA   -9.8074E-03
 TTTTTTTTTTTTTTTTTTTTTTTTTTTTTT MOQGAD      TELAPSE   194615.95 TCPU   193589.63
 TTTTTTTTTTTTTTTTTTTTTTTTTTTTTT CP_MONMON   TELAPSE   194648.58 TCPU   193622.15
 DIIS TEST: 0.27237E-04 AT CPHF  CYCLE  10 - DIIS ACTIVE - HISTORY:    10 CYCLES
 CYCLE  10   ALPHA  608.716694  EPSILON    2.511669  DELTA   -3.3303E-03
 TTTTTTTTTTTTTTTTTTTTTTTTTTTTTT MOQGAD      TELAPSE   196274.59 TCPU   195242.62
 TTTTTTTTTTTTTTTTTTTTTTTTTTTTTT CP_MONMON   TELAPSE   196307.53 TCPU   195275.46
 DIIS TEST: 0.37779E-05 AT CPHF  CYCLE  11 - DIIS ACTIVE - HISTORY:    11 CYCLES
 CYCLE  11   ALPHA  608.714587  EPSILON    2.511663  DELTA   -2.1064E-03
 TTTTTTTTTTTTTTTTTTTTTTTTTTTTTT MOQGAD      TELAPSE   197949.59 TCPU   196910.90
 TTTTTTTTTTTTTTTTTTTTTTTTTTTTTT CP_MONMON   TELAPSE   197982.49 TCPU   196943.67
 DIIS TEST: 0.41746E-06 AT CPHF  CYCLE  12 - DIIS ACTIVE - HISTORY:    12 CYCLES
 CYCLE  12   ALPHA  608.714157  EPSILON    2.511662  DELTA   -4.2990E-04
 TTTTTTTTTTTTTTTTTTTTTTTTTTTTTT CP_SC       TELAPSE   198096.05 TCPU   197055.27

 *******************************************************************************

 POLARIZABILITY (ALPHA), DIELECTRIC (EPSILON) AND FIRST-ORDER ELECTRIC
 SUSCEPTIBILITY (CHI(1)) TENSORS (INDEPENDENT COMPONENTS)

  FR.(eV) COMP.   ALPHA(Re,Im)           EPSILON(Re,Im)                CHI(1)
  2.331   XX    1350.7892       0.0000       4.3545       0.0000       3.3545
  2.331   XY      -0.0011       0.0000      -0.0000       0.0000      -0.0000
  2.331   XZ      -0.0000       0.0000      -0.0000       0.0000      -0.0000
  2.331   YY    1350.7893       0.0000       4.3545       0.0000       3.3545
  2.331   YZ       0.0000       0.0000       0.0000       0.0000       0.0000
  2.331   ZZ     608.7142       0.0000       2.5117       0.0000       1.5117

 DIELECTRIC TENSOR

 TENSOR IN PRINCIPAL AXES SYSTEM
 AA  4.354506E+00 BB  4.354512E+00 CC  2.511662E+00

 REFRACTIVE INDICES 
 AA  1.584822E+00 BB  2.086745E+00 CC  2.086747E+00

 OPTICALLY ANISOTROPIC - UNIAXIAL CRYSTAL

 BIREFRINGENCE =  0.5019 (NEGATIVE) - OBLATE OPTICAL ELLIPSOID

 EPSILON=N**2=1+CHI(1)=1+ALPHA*4*PI/V,   4*PI/V=   0.00248 BOHR**(-3)
 ALPHA IN BOHR**3; EPSILON AND CHI(1) ARE DIMENSIONLESS.
 *******************************************************************************


  Pockels Effect beta(-omega;omega,0) with omega=   1.1653 eV


 SIZE OF GRID=    1862434
 TTTTTTTTTTTTTTTTTTTTTTTTTTTTTT MAKE_GRID2  TELAPSE   198619.53 TCPU   197575.20
 BECKE WEIGHT FUNCTION
 RADSAFE =     2.00
 TOLERANCES - DENSITY:10**- 6; POTENTIAL:10**- 9; GRID WGT:10**-14

 RADIAL INTEGRATION  - INTERVALS (POINTS,UPPER LIMIT):            1( 75,  4.0*R)

 ANGULAR INTEGRATION - INTERVALS (ACCURACY LEVEL [N. POINTS] UPPER LIMIT):
  1(  4[  86]   0.2)  2(  8[ 194]   0.5)  3( 12[ 350]   0.9)  4( 16[ 974]   3.5)
  5( 12[ 350]9999.0)

 SIZE OF GRID=    1862434
 TTTTTTTTTTTTTTTTTTTTTTTTTTTTTT MAKE_GRID2  TELAPSE   198622.83 TCPU   197578.03
 BECKE WEIGHT FUNCTION
 RADSAFE =     2.00
 TOLERANCES - DENSITY:10**- 6; POTENTIAL:10**- 9; GRID WGT:10**-14

 RADIAL INTEGRATION  - INTERVALS (POINTS,UPPER LIMIT):            1( 75,  4.0*R)

 ANGULAR INTEGRATION - INTERVALS (ACCURACY LEVEL [N. POINTS] UPPER LIMIT):
  1(  4[  86]   0.2)  2(  8[ 194]   0.5)  3( 12[ 350]   0.9)  4( 16[ 974]   3.5)
  5( 12[ 350]9999.0)
 *******************************************************************************

 DC-POCKELS AND SECOND ELECTRIC SUSCEPTIBILITY (CHI(2))
 TENSORS (INDEPENDENT COMPONENTS)

BETA                                         CHI(2)       d(MKS)       d(cgs)
 *******************************************************************************

     XXX         -0.3366E-02  -0.4179E-05  -0.4064E-05  -0.9694E-07
     XXY          0.1306E-03   0.1621E-06   0.1576E-06   0.3760E-08
     XXZ          0.3763E+03   0.4673E+00   0.4544E+00   0.1084E-01
     XYX          0.4455E-03   0.5532E-06   0.5379E-06   0.1283E-07
     XYY         -0.1149E-02  -0.1426E-05  -0.1387E-05  -0.3309E-07
     XYZ         -0.1447E+03  -0.1797E+00  -0.1747E+00  -0.4168E-02
     XZX          0.3706E+03   0.4602E+00   0.4475E+00   0.1068E-01
     XZY         -0.1155E+03  -0.1434E+00  -0.1394E+00  -0.3326E-02
     XZZ         -0.1233E-02  -0.1531E-05  -0.1489E-05  -0.3552E-07
     YXX          0.3510E-03   0.4358E-06   0.4238E-06   0.1011E-07
     YXY         -0.1213E-02  -0.1506E-05  -0.1464E-05  -0.3493E-07
     YXZ         -0.1447E+03  -0.1797E+00  -0.1747E+00  -0.4169E-02
     YYX          0.1166E-03   0.1448E-06   0.1408E-06   0.3359E-08
     YYY          0.4987E-03   0.6192E-06   0.6021E-06   0.1436E-07
     YYZ         -0.3763E+03  -0.4673E+00  -0.4543E+00  -0.1084E-01
     YZX         -0.1155E+03  -0.1434E+00  -0.1394E+00  -0.3326E-02
     YZY         -0.3706E+03  -0.4602E+00  -0.4475E+00  -0.1068E-01
     YZZ          0.2048E-03   0.2543E-06   0.2473E-06   0.5899E-08
     ZXX          0.3706E+03   0.4601E+00   0.4474E+00   0.1067E-01
     ZXY         -0.1154E+03  -0.1433E+00  -0.1394E+00  -0.3325E-02
     ZXZ         -0.1223E-02  -0.1518E-05  -0.1476E-05  -0.3522E-07
     ZYX         -0.1154E+03  -0.1433E+00  -0.1394E+00  -0.3324E-02
     ZYY         -0.3706E+03  -0.4601E+00  -0.4474E+00  -0.1067E-01
     ZYZ          0.1958E-03   0.2432E-06   0.2364E-06   0.5641E-08
     ZZX          0.1520E-04   0.1888E-07   0.1835E-07   0.4379E-09
     ZZY         -0.2201E-04  -0.2733E-07  -0.2658E-07  -0.6341E-09
     ZZZ         -0.4848E-02  -0.6020E-05  -0.5853E-05  -0.1396E-06
 *******************************************************************************
 CHI(2) = BETA*2PI/V

 BETA AND CHI(2) IN A.U.:    [BETA] = M**(-1/2) L**(7/2) T
                             [CHI(2)] = 1/F
                             (L=LENGTH, M=MASS, T=TIME, F=FIELD INTENSITY)

 ELECTRIC SUSCEPTIBILITY IN THE SECOND HARMONIC GENERATION (SHG) CONVENTION IS:
                   d(A.U.)= 1/2 CHI(2)
                   d(MKS) = d(A.U.)/0.514220632 pm/V
                   d(CGS) = d(A.U.)/(4PI*1.7152535)  10**(-7) esu

 FIELD INTENSITY: 1 A.U. = 0.514220632*10**(11) V/m = 1.7152535*10**7 esu
 BEWARE:                CHI(2)=P/(E0*F**2)   (MKS)
                        CHI(2)=P/F**2        (CGS)
 WHERE P IS THE POLARIZATION VECTOR AND F IS THE APPLIED ELECTRIC FIELD.
 CONSISTENCY IS  PRESERVED BY MULTIPLYING THE CGS VALUE TIMES THE PERMITTIVITY
 OF THE VACUUM, E0 (CONVERSION FACTORS FROM www.physics.nist.gov/constants).
 IN PARENTHESIS: BETA BEFORE SYMMETRIZATION.

  SHG Effect beta(-2omega;omega,omega) with omega=   1.1653 eV


 SIZE OF GRID=    1862434
 TTTTTTTTTTTTTTTTTTTTTTTTTTTTTT MAKE_GRID2  TELAPSE   199058.86 TCPU   198012.10
 BECKE WEIGHT FUNCTION
 RADSAFE =     2.00
 TOLERANCES - DENSITY:10**- 6; POTENTIAL:10**- 9; GRID WGT:10**-14

 RADIAL INTEGRATION  - INTERVALS (POINTS,UPPER LIMIT):            1( 75,  4.0*R)

 ANGULAR INTEGRATION - INTERVALS (ACCURACY LEVEL [N. POINTS] UPPER LIMIT):
  1(  4[  86]   0.2)  2(  8[ 194]   0.5)  3( 12[ 350]   0.9)  4( 16[ 974]   3.5)
  5( 12[ 350]9999.0)

 SIZE OF GRID=    1862434
 TTTTTTTTTTTTTTTTTTTTTTTTTTTTTT MAKE_GRID2  TELAPSE   199061.54 TCPU   198014.77
 BECKE WEIGHT FUNCTION
 RADSAFE =     2.00
 TOLERANCES - DENSITY:10**- 6; POTENTIAL:10**- 9; GRID WGT:10**-14

 RADIAL INTEGRATION  - INTERVALS (POINTS,UPPER LIMIT):            1( 75,  4.0*R)

 ANGULAR INTEGRATION - INTERVALS (ACCURACY LEVEL [N. POINTS] UPPER LIMIT):
  1(  4[  86]   0.2)  2(  8[ 194]   0.5)  3( 12[ 350]   0.9)  4( 16[ 974]   3.5)
  5( 12[ 350]9999.0)
 *******************************************************************************

 SECOND HARMONIC GENERATION (SHG)  AND SECOND ELECTRIC SUSCEPTIBILITY (CHI(2))
 TENSORS (INDEPENDENT COMPONENTS)

BETA                                         CHI(2)       d(MKS)       d(cgs)
 *******************************************************************************

     XXX         -0.5444E-02  -0.6759E-05  -0.6572E-05  -0.1568E-06
     XXY          0.5070E-03   0.6296E-06   0.6122E-06   0.1460E-07
     XXZ          0.9524E+03   0.1183E+01   0.1150E+01   0.2743E-01
     XYX          0.5070E-03   0.6296E-06   0.6122E-06   0.1460E-07
     XYY         -0.1087E-02  -0.1350E-05  -0.1313E-05  -0.3132E-07
     XYZ          0.2455E+02   0.3048E-01   0.2964E-01   0.7071E-03
     XZX          0.9524E+03   0.1183E+01   0.1150E+01   0.2743E-01
     XZY          0.2455E+02   0.3048E-01   0.2964E-01   0.7071E-03
     XZZ         -0.1346E-02  -0.1671E-05  -0.1625E-05  -0.3877E-07
     YXX          0.4289E-03   0.5326E-06   0.5178E-06   0.1235E-07
     YXY         -0.1358E-02  -0.1686E-05  -0.1639E-05  -0.3910E-07
     YXZ          0.2453E+02   0.3046E-01   0.2962E-01   0.7065E-03
     YYX         -0.1358E-02  -0.1686E-05  -0.1639E-05  -0.3910E-07
     YYY          0.8392E-03   0.1042E-05   0.1013E-05   0.2417E-07
     YYZ         -0.9524E+03  -0.1183E+01  -0.1150E+01  -0.2743E-01
     YZX          0.2453E+02   0.3046E-01   0.2962E-01   0.7065E-03
     YZY         -0.9524E+03  -0.1183E+01  -0.1150E+01  -0.2743E-01
     YZZ          0.1697E-03   0.2107E-06   0.2049E-06   0.4888E-08
     ZXX          0.9078E+03   0.1127E+01   0.1096E+01   0.2615E-01
     ZXY          0.1940E+03   0.2409E+00   0.2343E+00   0.5589E-02
     ZXZ         -0.1220E-02  -0.1515E-05  -0.1473E-05  -0.3515E-07
     ZYX          0.1940E+03   0.2409E+00   0.2343E+00   0.5589E-02
     ZYY         -0.9078E+03  -0.1127E+01  -0.1096E+01  -0.2615E-01
     ZYZ          0.1181E-03   0.1466E-06   0.1426E-06   0.3402E-08
     ZZX         -0.1220E-02  -0.1515E-05  -0.1473E-05  -0.3515E-07
     ZZY          0.1181E-03   0.1466E-06   0.1426E-06   0.3402E-08
     ZZZ         -0.7733E-02  -0.9603E-05  -0.9337E-05  -0.2227E-06
 *******************************************************************************
 CHI(2) = BETA*2PI/V

 BETA AND CHI(2) IN A.U.:    [BETA] = M**(-1/2) L**(7/2) T
                             [CHI(2)] = 1/F
                             (L=LENGTH, M=MASS, T=TIME, F=FIELD INTENSITY)

 ELECTRIC SUSCEPTIBILITY IN THE SECOND HARMONIC GENERATION (SHG) CONVENTION IS:
                   d(A.U.)= 1/2 CHI(2)
                   d(MKS) = d(A.U.)/0.514220632 pm/V
                   d(CGS) = d(A.U.)/(4PI*1.7152535)  10**(-7) esu

 FIELD INTENSITY: 1 A.U. = 0.514220632*10**(11) V/m = 1.7152535*10**7 esu
 BEWARE:                CHI(2)=P/(E0*F**2)   (MKS)
                        CHI(2)=P/F**2        (CGS)
 WHERE P IS THE POLARIZATION VECTOR AND F IS THE APPLIED ELECTRIC FIELD.
 CONSISTENCY IS  PRESERVED BY MULTIPLYING THE CGS VALUE TIMES THE PERMITTIVITY
 OF THE VACUUM, E0 (CONVERSION FACTORS FROM www.physics.nist.gov/constants).
 IN PARENTHESIS: BETA BEFORE SYMMETRIZATION.

 *******************************************************************************


 GCALCO - MAX INDICES DIRECT LATTICE VECTOR    14    14    16
 NO.OF VECTORS CREATED 6999 STARS  486 RMAX   204.19219 BOHR

 CAPPA:IS1  3;IS2  3;IS3  3; K PTS MONK NET   6; SYMMOPS:K SPACE   8;G SPACE   4

 TTTTTTTTTTTTTTTTTTTTTTTTTTTTTT END         TELAPSE   199061.91 TCPU   198015.13
 EEEEEEEEEE TERMINATION  DATE 11 12 2023 TIME 21:15:57.6
NODE    0 CPU TIME =    198015.131
NODE    1 CPU TIME =    198257.539
NODE    2 CPU TIME =    197787.932
NODE    3 CPU TIME =    197722.457
NODE    4 CPU TIME =    198094.554
NODE    5 CPU TIME =    198253.829
NODE    6 CPU TIME =    197732.016
NODE    7 CPU TIME =    197713.807
NODE    8 CPU TIME =    198062.119
NODE    9 CPU TIME =    198248.772
NODE   10 CPU TIME =    197634.654
NODE   11 CPU TIME =    197581.102
NODE   12 CPU TIME =    197949.098
NODE   13 CPU TIME =    198142.975
NODE   14 CPU TIME =    197609.334
NODE   15 CPU TIME =    197575.324
NODE   16 CPU TIME =    197958.553
NODE   17 CPU TIME =    198142.640
NODE   18 CPU TIME =    197608.354
NODE   19 CPU TIME =    197591.230
NODE   20 CPU TIME =    197976.941
NODE   21 CPU TIME =    198140.872
NODE   22 CPU TIME =    197585.990
NODE   23 CPU TIME =    197593.831
    TOTAL CPU TIME =   4748979.054
trying normal rsh (/usr/bin/rsh)
exec: No such file or directory
trying normal rsh (/usr/bin/rsh)
exec: No such file or directory
trying normal rsh (/usr/bin/rsh)
exec: No such file or directory
trying normal rsh (/usr/bin/rsh)
exec: No such file or directory
