Loading crystal17/1.0.2/intel/19.0
  Loading requirement: intel/19.0 ompi/4.0.1/intel/19.0
 PROCESS            8  OF           24  WORKING
 PROCESS           19  OF           24  WORKING
 PROCESS           20  OF           24  WORKING
 PROCESS           23  OF           24  WORKING
 PROCESS            3  OF           24  WORKING
 PROCESS            9  OF           24  WORKING
 PROCESS            0  OF           24  WORKING
 PROCESS            1  OF           24  WORKING
 PROCESS            2  OF           24  WORKING
 PROCESS            4  OF           24  WORKING
 PROCESS            5  OF           24  WORKING
 PROCESS            6  OF           24  WORKING
 PROCESS            7  OF           24  WORKING
 PROCESS           10  OF           24  WORKING
 PROCESS           11  OF           24  WORKING
 PROCESS           12  OF           24  WORKING
 PROCESS           13  OF           24  WORKING
 PROCESS           14  OF           24  WORKING
 PROCESS           15  OF           24  WORKING
 PROCESS           17  OF           24  WORKING
 PROCESS           18  OF           24  WORKING
 PROCESS           21  OF           24  WORKING
 PROCESS           22  OF           24  WORKING
 PROCESS           16  OF           24  WORKING

         
 *******************************************************************************
 *                                                                             *
 *                               CRYSTAL17                                     *
 *                      public : 1.0.2 - March 1st, 2018                       *
 *                       HTTP://WWW.CRYSTAL.UNITO.IT                           *
 *                                                                             *
 *                              MAIN AUTHORS                                   *
 *                                                                             *
 *  R. DOVESI(1,11), V.R. SAUNDERS(2), C. ROETTI(1,11), R. ORLANDO(1,11),      *
 *  C.M. ZICOVICH-WILSON(1,3), F. PASCALE(4), B. CIVALLERI(1,11),              *
 *  K. DOLL(5), N.M. HARRISON(2,6), I.J. BUSH(7), Ph. D'ARCO(8),               *
 *  M. LLUNELL(9), M. CAUSA'(10), Y. NOEL(8), L. MASCHIO(1,11), A. ERBA(1,11)  *
 *  M. RE'RAT(14), S. CASASSA(1,11)                                            *
 *                                                                             *
 *        CONTRIBUTIONS TO THE CODE HAVE ALSO BEEN GIVEN BY                    *
 *                                                                             *
 *  M. FERRABONE(1,11), M. DE LA PIERRE(1,11), M. FERRERO(1,11),               *
 *  J. BAIMA(1,11), E. ALBANESE(1,11), M.F. PEINTINGER(12), R. BAST(13),       *
 *  B. KIRTMAN(15), V. LACIVITA(1,11), R. DEMICHELIS(1,16)                     *
 *  G. BRANDEBURG(17), S. SALUSTRO(1,11), G. SANSONE(1,11)                     *
 *  M.T. RUGGIERO(18)                                                          *
 *                                                                             *
 * (1) THEORETICAL CHEMISTRY GROUP - UNIVERSITA' DI TORINO - TORINO (ITALY)    *
 * (2) COMPUTATIONAL SCIENCE & ENGINEERING DEPARTMENT - STFC DARESBURY (UK)    *
 * (3) UNIVERSIDAD AUTONOMA DEL ESTADO DE MORELOS - CUERNAVACA (MEXICO)        *
 * (4) UNIVERSITE' DE LORRAINE - NANCY (FRANCE)                                *
 * (5) UNIVERSITAET STUTTGART- STUTTGART (GERMANY)                             *
 * (6) IMPERIAL COLLEGE - LONDON (UK)                                          *
 * (7) OXFORD E-RESEARCH CENTRE - OXFORD (UK)                                  *
 * (8) UPMC - SORBONNE UNIVERSITES - PARIS (FRANCE)                            *
 * (9) UNIVERSIDAD DE BARCELONA - BARCELONA (SPAIN)                            *
 *(10) UNIVERSITA' DI NAPOLI "FEDERICO II" - NAPOLI (ITALY)                    *
 *(11) NIS - NANOSTRUCTURED INTERFACES AND SURFACES - TORINO (ITALY)           *
 *(12) MPI FUER CHEMISCHE ENERGIEKONVERSION - MUELHEIM AN DER RUHR (GERMANY)   *
 *(13) UNIVERSITY OF TROMSO - TROMSO (NORWAY)                                  *
 *(14) UNIVERSITE' DE PAU ET DES PAYS DE L'ADOUR - PAU (FRANCE)                *
 *(15) UNIVERSITY OF CALIFORNIA SANTA BARBARA - SANTA BARBARA (USA)            *
 *(16) CURTIN UNIVERSITY - PERTH (AUSTRALIA)                                   *
 *(17) UNIVERSITY COLLEGE LONDON - LONDON (UK)                                 *
 *(18) CAMBRIDGE UNIVERSITY - CAMBRIDGE (UK)                                   *
 *                                                                             *
 *******************************************************************************
 EEEEEEEEEE STARTING  DATE 10 12 2023 TIME 20:22:37.1
 Z:\home\sanoj\Downloads\tmp_p\newconn.mol                                       

 CRYSTAL CALCULATION
 (INPUT ACCORDING TO THE INTERNATIONAL TABLES FOR X-RAY CRYSTALLOGRAPHY)
 CRYSTAL FAMILY                       :  TETRAGONAL  
 CRYSTAL CLASS  (GROTH - 1921)        :  TETRAGONAL DISPHENOIDAL              

 SPACE GROUP (NONCENTROSYMMETRIC)     :  I -4            

 LATTICE PARAMETERS  (ANGSTROMS AND DEGREES) - CONVENTIONAL CELL
        A           B           C        ALPHA        BETA       GAMMA
    10.83732    10.83732    12.85847    90.00000    90.00000    90.00000


 NUMBER OF IRREDUCIBLE ATOMS IN THE CONVENTIONAL CELL:   17

 INPUT COORDINATES

 ATOM AT. N.              COORDINATES
   1   1     4.584000000000E-01  7.824900000000E-01  3.751200000000E-01
   2   1     9.890000000000E-02  5.060900000000E-01  3.799100000000E-01
   3   6     2.570700000000E-01  7.807600000000E-01  3.726200000000E-01
   4   6     2.492800000000E-01 -8.488000000000E-02  3.715800000000E-01
   5   6     1.560600000000E-01  6.982800000000E-01  3.741700000000E-01
   6   6     2.970600000000E-01  5.294300000000E-01  3.758900000000E-01
   7   6     3.750300000000E-01  7.252600000000E-01  3.733300000000E-01
   8   6     8.247600000000E-01  4.285300000000E-01  3.784500000000E-01
   9   7     3.448600000000E-01 -1.198000000000E-02  3.390700000000E-01
  10   7     3.116000000000E-01  1.078500000000E-01  3.584900000000E-01
  11   7     1.579300000000E-01 -9.950000000000E-03  4.081900000000E-01
  12   7     2.005000000000E-01  1.090400000000E-01  3.992000000000E-01
  13   7     3.945100000000E-01  6.033600000000E-01  3.729200000000E-01
  14  17     4.830000000000E-03  7.486000000000E-01  3.693200000000E-01
  15  17     3.189700000000E-01  3.704400000000E-01  3.722200000000E-01
  16  30     0.000000000000E+00  5.000000000000E-01  7.500000000000E-01
  17  30     0.000000000000E+00  0.000000000000E+00  5.000000000000E-01

 *******************************************************************************

 << INFORMATION >>: FROM NOW ON, ALL COORDINATES REFER TO THE PRIMITIVE CELL

 *******************************************************************************

 LATTICE PARAMETERS  (ANGSTROMS AND DEGREES) - PRIMITIVE CELL
       A          B          C        ALPHA      BETA     GAMMA        VOLUME
   10.00294   10.00294   10.00294   114.40020 114.40020 100.00794    755.096835

 COORDINATES OF THE EQUIVALENT ATOMS (FRACTIONAL UNITS)

 N. ATOM EQUIV AT. N.          X                  Y                  Z

   1   1   1    1 H     1.57610000000E-01 -1.66480000000E-01  2.40890000000E-01
   2   1   2    1 H    -4.07370000000E-01 -8.32800000000E-02 -2.40890000000E-01
   3   1   3    1 H     1.66480000000E-01  4.07370000000E-01  3.24090000000E-01
   4   1   4    1 H     8.32800000000E-02 -1.57610000000E-01 -3.24090000000E-01

   5   2   1    1 H    -1.14000000000E-01  4.78810000000E-01 -3.95010000000E-01
   6   2   2    1 H    -1.26180000000E-01  2.81010000000E-01  3.95010000000E-01
   7   2   3    1 H    -4.78810000000E-01  1.26180000000E-01  4.07190000000E-01
   8   2   4    1 H    -2.81010000000E-01  1.14000000000E-01 -4.07190000000E-01

   9   3   1    6 C     1.53380000000E-01 -3.70310000000E-01  3.78300000000E-02
  10   3   2    6 C    -4.08140000000E-01  1.15550000000E-01 -3.78300000000E-02
  11   3   3    6 C     3.70310000000E-01  4.08140000000E-01 -4.76310000000E-01
  12   3   4    6 C    -1.15550000000E-01 -1.53380000000E-01  4.76310000000E-01

  13   4   1    6 C     2.86700000000E-01 -3.79140000000E-01  1.64400000000E-01
  14   4   2    6 C     4.56460000000E-01  1.22300000000E-01 -1.64400000000E-01
  15   4   3    6 C     3.79140000000E-01 -4.56460000000E-01 -3.34160000000E-01
  16   4   4    6 C    -1.22300000000E-01 -2.86700000000E-01  3.34160000000E-01

  17   5   1    6 C     7.24500000000E-02 -4.69770000000E-01 -1.45660000000E-01
  18   5   2    6 C    -3.24110000000E-01  2.18110000000E-01  1.45660000000E-01
  19   5   3    6 C     4.69770000000E-01  3.24110000000E-01 -4.57780000000E-01
  20   5   4    6 C    -2.18110000000E-01 -7.24500000000E-02  4.57780000000E-01

  21   6   1    6 C    -9.46800000000E-02 -3.27050000000E-01 -1.73510000000E-01
  22   6   2    6 C    -1.53540000000E-01  7.88300000000E-02  1.73510000000E-01
  23   6   3    6 C     3.27050000000E-01  1.53540000000E-01  2.32370000000E-01
  24   6   4    6 C    -7.88300000000E-02  9.46800000000E-02 -2.32370000000E-01

  25   7   1    6 C     9.85900000000E-02 -2.51640000000E-01  1.00290000000E-01
  26   7   2    6 C    -3.51930000000E-01 -1.70000000000E-03 -1.00290000000E-01
  27   7   3    6 C     2.51640000000E-01  3.51930000000E-01  3.50230000000E-01
  28   7   4    6 C     1.70000000000E-03 -9.85900000000E-02 -3.50230000000E-01

  29   8   1    6 C    -1.93020000000E-01  2.03210000000E-01  2.53290000000E-01
  30   8   2    6 C    -5.00800000000E-02 -4.46310000000E-01 -2.53290000000E-01
  31   8   3    6 C    -2.03210000000E-01  5.00800000000E-02 -3.96230000000E-01
  32   8   4    6 C     4.46310000000E-01  1.93020000000E-01  3.96230000000E-01

  33   9   1    7 N     3.27090000000E-01 -3.16070000000E-01  3.32880000000E-01
  34   9   2    7 N     3.51050000000E-01 -5.79000000000E-03 -3.32880000000E-01
  35   9   3    7 N     3.16070000000E-01 -3.51050000000E-01 -3.56840000000E-01
  36   9   4    7 N     5.79000000000E-03 -3.27090000000E-01  3.56840000000E-01

  37  10   1    7 N     4.66340000000E-01 -3.29910000000E-01  4.19450000000E-01
  38  10   2    7 N     2.50640000000E-01  4.68900000000E-02 -4.19450000000E-01
  39  10   3    7 N     3.29910000000E-01 -2.50640000000E-01 -2.03750000000E-01
  40  10   4    7 N    -4.68900000000E-02 -4.66340000000E-01  2.03750000000E-01

  41  11   1    7 N     3.98240000000E-01 -4.33880000000E-01  1.47980000000E-01
  42  11   2    7 N     4.18140000000E-01  2.50260000000E-01 -1.47980000000E-01
  43  11   3    7 N     4.33880000000E-01 -4.18140000000E-01 -1.67880000000E-01
  44  11   4    7 N    -2.50260000000E-01 -3.98240000000E-01  1.67880000000E-01

  45  12   1    7 N    -4.91760000000E-01 -4.00300000000E-01  3.09540000000E-01
  46  12   2    7 N     2.90160000000E-01  1.98700000000E-01 -3.09540000000E-01
  47  12   3    7 N     4.00300000000E-01 -2.90160000000E-01 -9.14600000000E-02
  48  12   4    7 N    -1.98700000000E-01  4.91760000000E-01  9.14600000000E-02

  49  13   1    7 N    -2.37200000000E-02 -2.32570000000E-01 -2.13000000000E-03
  50  13   2    7 N    -2.30440000000E-01 -2.15900000000E-02  2.13000000000E-03
  51  13   3    7 N     2.32570000000E-01  2.30440000000E-01  2.08850000000E-01
  52  13   4    7 N     2.15900000000E-02  2.37200000000E-02 -2.08850000000E-01

  53  14   1   17 CL    1.17920000000E-01  3.74150000000E-01 -2.46570000000E-01
  54  14   2   17 CL   -3.79280000000E-01  3.64490000000E-01  2.46570000000E-01
  55  14   3   17 CL   -3.74150000000E-01  3.79280000000E-01 -2.56230000000E-01
  56  14   4   17 CL   -3.64490000000E-01 -1.17920000000E-01  2.56230000000E-01

  57  15   1   17 CL   -2.57340000000E-01 -3.08810000000E-01 -3.10590000000E-01
  58  15   2   17 CL    1.78000000000E-03  5.32500000000E-02  3.10590000000E-01
  59  15   3   17 CL    3.08810000000E-01 -1.78000000000E-03  5.14700000000E-02
  60  15   4   17 CL   -5.32500000000E-02  2.57340000000E-01 -5.14700000000E-02

  61  16   1   30 ZN    2.50000000000E-01 -2.50000000000E-01 -5.00000000000E-01

  62  17   1   30 ZN   -5.00000000000E-01 -5.00000000000E-01  0.00000000000E+00

 NUMBER OF SYMMETRY OPERATORS         :    4
 *******************************************************************************
 * GEOMETRY EDITING - INPUT COORDINATES ARE GIVEN IN ANGSTROM         
 *******************************************************************************

 GEOMETRY NOW FULLY CONSISTENT WITH THE GROUP

 GCALCO - MAX INDICES DIRECT LATTICE VECTOR    14    14    16
 NO.OF VECTORS CREATED 6999 STARS  487 RMAX   204.89584 BOHR

 GEOMETRY FOR WAVE FUNCTION - DIMENSIONALITY OF THE SYSTEM    3
 (NON PERIODIC DIRECTION: LATTICE PARAMETER FORMALLY SET TO 500)
 *******************************************************************************
 LATTICE PARAMETERS (ANGSTROMS AND DEGREES) - BOHR = 0.5291772083 ANGSTROM
 PRIMITIVE CELL - CENTRING CODE 6/0 VOLUME=   755.096835 - DENSITY  2.163 g/cm^3
         A              B              C           ALPHA      BETA       GAMMA 
    10.00293691    10.00293691    10.00293691   114.400203 114.400203 100.007942
 *******************************************************************************
 ATOMS IN THE ASYMMETRIC UNIT   17 - ATOMS IN THE UNIT CELL:   62
     ATOM                 X/A                 Y/B                 Z/C    
 *******************************************************************************
      1 T   1 H     1.576100000000E-01 -1.664800000000E-01  2.408900000000E-01
      2 F   1 H    -4.073700000000E-01 -8.328000000000E-02 -2.408900000000E-01
      3 F   1 H     1.664800000000E-01  4.073700000000E-01  3.240900000000E-01
      4 F   1 H     8.328000000000E-02 -1.576100000000E-01 -3.240900000000E-01
      5 T   1 H    -1.140000000000E-01  4.788100000000E-01 -3.950100000000E-01
      6 F   1 H    -1.261800000000E-01  2.810100000000E-01  3.950100000000E-01
      7 F   1 H    -4.788100000000E-01  1.261800000000E-01  4.071900000000E-01
      8 F   1 H    -2.810100000000E-01  1.140000000000E-01 -4.071900000000E-01
      9 T   6 C     1.533800000000E-01 -3.703100000000E-01  3.783000000000E-02
     10 F   6 C    -4.081400000000E-01  1.155500000000E-01 -3.783000000000E-02
     11 F   6 C     3.703100000000E-01  4.081400000000E-01 -4.763100000000E-01
     12 F   6 C    -1.155500000000E-01 -1.533800000000E-01  4.763100000000E-01
     13 T   6 C     2.867000000000E-01 -3.791400000000E-01  1.644000000000E-01
     14 F   6 C     4.564600000000E-01  1.223000000000E-01 -1.644000000000E-01
     15 F   6 C     3.791400000000E-01 -4.564600000000E-01 -3.341600000000E-01
     16 F   6 C    -1.223000000000E-01 -2.867000000000E-01  3.341600000000E-01
     17 T   6 C     7.245000000000E-02 -4.697700000000E-01 -1.456600000000E-01
     18 F   6 C    -3.241100000000E-01  2.181100000000E-01  1.456600000000E-01
     19 F   6 C     4.697700000000E-01  3.241100000000E-01 -4.577800000000E-01
     20 F   6 C    -2.181100000000E-01 -7.245000000000E-02  4.577800000000E-01
     21 T   6 C    -9.468000000000E-02 -3.270500000000E-01 -1.735100000000E-01
     22 F   6 C    -1.535400000000E-01  7.883000000000E-02  1.735100000000E-01
     23 F   6 C     3.270500000000E-01  1.535400000000E-01  2.323700000000E-01
     24 F   6 C    -7.883000000000E-02  9.468000000000E-02 -2.323700000000E-01
     25 T   6 C     9.859000000000E-02 -2.516400000000E-01  1.002900000000E-01
     26 F   6 C    -3.519300000000E-01 -1.700000000000E-03 -1.002900000000E-01
     27 F   6 C     2.516400000000E-01  3.519300000000E-01  3.502300000000E-01
     28 F   6 C     1.700000000000E-03 -9.859000000000E-02 -3.502300000000E-01
     29 T   6 C    -1.930200000000E-01  2.032100000000E-01  2.532900000000E-01
     30 F   6 C    -5.008000000000E-02 -4.463100000000E-01 -2.532900000000E-01
     31 F   6 C    -2.032100000000E-01  5.008000000000E-02 -3.962300000000E-01
     32 F   6 C     4.463100000000E-01  1.930200000000E-01  3.962300000000E-01
     33 T   7 N     3.270900000000E-01 -3.160700000000E-01  3.328800000000E-01
     34 F   7 N     3.510500000000E-01 -5.790000000000E-03 -3.328800000000E-01
     35 F   7 N     3.160700000000E-01 -3.510500000000E-01 -3.568400000000E-01
     36 F   7 N     5.790000000000E-03 -3.270900000000E-01  3.568400000000E-01
     37 T   7 N     4.663400000000E-01 -3.299100000000E-01  4.194500000000E-01
     38 F   7 N     2.506400000000E-01  4.689000000000E-02 -4.194500000000E-01
     39 F   7 N     3.299100000000E-01 -2.506400000000E-01 -2.037500000000E-01
     40 F   7 N    -4.689000000000E-02 -4.663400000000E-01  2.037500000000E-01
     41 T   7 N     3.982400000000E-01 -4.338800000000E-01  1.479800000000E-01
     42 F   7 N     4.181400000000E-01  2.502600000000E-01 -1.479800000000E-01
     43 F   7 N     4.338800000000E-01 -4.181400000000E-01 -1.678800000000E-01
     44 F   7 N    -2.502600000000E-01 -3.982400000000E-01  1.678800000000E-01
     45 T   7 N    -4.917600000000E-01 -4.003000000000E-01  3.095400000000E-01
     46 F   7 N     2.901600000000E-01  1.987000000000E-01 -3.095400000000E-01
     47 F   7 N     4.003000000000E-01 -2.901600000000E-01 -9.146000000000E-02
     48 F   7 N    -1.987000000000E-01  4.917600000000E-01  9.146000000000E-02
     49 T   7 N    -2.372000000000E-02 -2.325700000000E-01 -2.130000000000E-03
     50 F   7 N    -2.304400000000E-01 -2.159000000000E-02  2.130000000000E-03
     51 F   7 N     2.325700000000E-01  2.304400000000E-01  2.088500000000E-01
     52 F   7 N     2.159000000000E-02  2.372000000000E-02 -2.088500000000E-01
     53 T  17 CL    1.179200000000E-01  3.741500000000E-01 -2.465700000000E-01
     54 F  17 CL   -3.792800000000E-01  3.644900000000E-01  2.465700000000E-01
     55 F  17 CL   -3.741500000000E-01  3.792800000000E-01 -2.562300000000E-01
     56 F  17 CL   -3.644900000000E-01 -1.179200000000E-01  2.562300000000E-01
     57 T  17 CL   -2.573400000000E-01 -3.088100000000E-01 -3.105900000000E-01
     58 F  17 CL    1.780000000000E-03  5.325000000000E-02  3.105900000000E-01
     59 F  17 CL    3.088100000000E-01 -1.780000000000E-03  5.147000000000E-02
     60 F  17 CL   -5.325000000000E-02  2.573400000000E-01 -5.147000000000E-02
     61 T  30 ZN    2.500000000000E-01 -2.500000000000E-01 -5.000000000000E-01
     62 T  30 ZN    5.000000000000E-01 -5.000000000000E-01  0.000000000000E+00

 TRANSFORMATION MATRIX PRIMITIVE-CRYSTALLOGRAPHIC CELL
  0.0000  1.0000  1.0000  1.0000  0.0000  1.0000  1.0000  1.0000  0.0000

 *******************************************************************************
 CRYSTALLOGRAPHIC CELL (VOLUME=       1510.19367052)
         A              B              C           ALPHA      BETA       GAMMA 
    10.83731630    10.83731630    12.85846561    90.000000  90.000000  90.000000

 COORDINATES IN THE CRYSTALLOGRAPHIC CELL
     ATOM                 X/A                 Y/B                 Z/C    
 *******************************************************************************
      1 T   1 H    -4.160000000000E-02  2.824900000000E-01 -1.248800000000E-01
      2 F   1 H     4.160000000000E-02 -2.824900000000E-01 -1.248800000000E-01
      3 F   1 H     2.824900000000E-01  4.160000000000E-02  1.248800000000E-01
      4 F   1 H    -2.824900000000E-01 -4.160000000000E-02  1.248800000000E-01
      5 T   1 H    -4.011000000000E-01  6.090000000000E-03 -1.200900000000E-01
      6 F   1 H     4.011000000000E-01 -6.090000000000E-03 -1.200900000000E-01
      7 F   1 H     6.090000000000E-03  4.011000000000E-01  1.200900000000E-01
      8 F   1 H    -6.090000000000E-03 -4.011000000000E-01  1.200900000000E-01
      9 T   6 C    -2.429300000000E-01  2.807600000000E-01 -1.273800000000E-01
     10 F   6 C     2.429300000000E-01 -2.807600000000E-01 -1.273800000000E-01
     11 F   6 C     2.807600000000E-01  2.429300000000E-01  1.273800000000E-01
     12 F   6 C    -2.807600000000E-01 -2.429300000000E-01  1.273800000000E-01
     13 T   6 C    -2.507200000000E-01  4.151200000000E-01 -1.284200000000E-01
     14 F   6 C     2.507200000000E-01 -4.151200000000E-01 -1.284200000000E-01
     15 F   6 C     4.151200000000E-01  2.507200000000E-01  1.284200000000E-01
     16 F   6 C    -4.151200000000E-01 -2.507200000000E-01  1.284200000000E-01
     17 T   6 C    -3.439400000000E-01  1.982800000000E-01 -1.258300000000E-01
     18 F   6 C     3.439400000000E-01 -1.982800000000E-01 -1.258300000000E-01
     19 F   6 C     1.982800000000E-01  3.439400000000E-01  1.258300000000E-01
     20 F   6 C    -1.982800000000E-01 -3.439400000000E-01  1.258300000000E-01
     21 T   6 C    -2.029400000000E-01  2.943000000000E-02 -1.241100000000E-01
     22 F   6 C     2.029400000000E-01 -2.943000000000E-02 -1.241100000000E-01
     23 F   6 C     2.943000000000E-02  2.029400000000E-01  1.241100000000E-01
     24 F   6 C    -2.943000000000E-02 -2.029400000000E-01  1.241100000000E-01
     25 T   6 C    -1.249700000000E-01  2.252600000000E-01 -1.266700000000E-01
     26 F   6 C     1.249700000000E-01 -2.252600000000E-01 -1.266700000000E-01
     27 F   6 C     2.252600000000E-01  1.249700000000E-01  1.266700000000E-01
     28 F   6 C    -2.252600000000E-01 -1.249700000000E-01  1.266700000000E-01
     29 T   6 C     3.247600000000E-01 -7.147000000000E-02 -1.215500000000E-01
     30 F   6 C    -3.247600000000E-01  7.147000000000E-02 -1.215500000000E-01
     31 F   6 C    -7.147000000000E-02 -3.247600000000E-01  1.215500000000E-01
     32 F   6 C     7.147000000000E-02  3.247600000000E-01  1.215500000000E-01
     33 T   7 N     3.448600000000E-01 -1.198000000000E-02  3.390700000000E-01
     34 F   7 N    -3.448600000000E-01  1.198000000000E-02  3.390700000000E-01
     35 F   7 N    -1.198000000000E-02 -3.448600000000E-01 -3.390700000000E-01
     36 F   7 N     1.198000000000E-02  3.448600000000E-01 -3.390700000000E-01
     37 T   7 N    -1.884000000000E-01 -3.921500000000E-01 -1.415100000000E-01
     38 F   7 N     1.884000000000E-01  3.921500000000E-01 -1.415100000000E-01
     39 F   7 N    -3.921500000000E-01  1.884000000000E-01  1.415100000000E-01
     40 F   7 N     3.921500000000E-01 -1.884000000000E-01  1.415100000000E-01
     41 T   7 N     1.579300000000E-01 -9.950000000000E-03  4.081900000000E-01
     42 F   7 N    -1.579300000000E-01  9.950000000000E-03  4.081900000000E-01
     43 F   7 N    -9.950000000000E-03 -1.579300000000E-01 -4.081900000000E-01
     44 F   7 N     9.950000000000E-03  1.579300000000E-01 -4.081900000000E-01
     45 T   7 N    -2.995000000000E-01 -3.909600000000E-01 -1.008000000000E-01
     46 F   7 N     2.995000000000E-01  3.909600000000E-01 -1.008000000000E-01
     47 F   7 N    -3.909600000000E-01  2.995000000000E-01  1.008000000000E-01
     48 F   7 N     3.909600000000E-01 -2.995000000000E-01  1.008000000000E-01
     49 T   7 N    -1.054900000000E-01  1.033600000000E-01 -1.270800000000E-01
     50 F   7 N     1.054900000000E-01 -1.033600000000E-01 -1.270800000000E-01
     51 F   7 N     1.033600000000E-01  1.054900000000E-01  1.270800000000E-01
     52 F   7 N    -1.033600000000E-01 -1.054900000000E-01  1.270800000000E-01
     53 T  17 CL    4.830000000000E-03 -2.514000000000E-01  3.693200000000E-01
     54 F  17 CL   -4.830000000000E-03  2.514000000000E-01  3.693200000000E-01
     55 F  17 CL   -2.514000000000E-01 -4.830000000000E-03 -3.693200000000E-01
     56 F  17 CL    2.514000000000E-01  4.830000000000E-03 -3.693200000000E-01
     57 T  17 CL   -1.810300000000E-01 -1.295600000000E-01 -1.277800000000E-01
     58 F  17 CL    1.810300000000E-01  1.295600000000E-01 -1.277800000000E-01
     59 F  17 CL   -1.295600000000E-01  1.810300000000E-01  1.277800000000E-01
     60 F  17 CL    1.295600000000E-01 -1.810300000000E-01  1.277800000000E-01
     61 T  30 ZN   -5.000000000000E-01  0.000000000000E+00  2.500000000000E-01
     62 T  30 ZN    0.000000000000E+00  0.000000000000E+00 -5.000000000000E-01

 T = ATOM BELONGING TO THE ASYMMETRIC UNIT

 ****    4 SYMMOPS - TRANSLATORS IN FRACTIONAL UNITS
 **** MATRICES AND TRANSLATORS IN THE CRYSTALLOGRAPHIC REFERENCE FRAME
   V INV                    ROTATION MATRICES                   TRANSLATORS
   1   1  1.00  0.00  0.00  0.00  1.00  0.00  0.00  0.00  1.00  0.00  0.00  0.00
   2   2  0.00  1.00 -1.00  1.00  0.00 -1.00  0.00  0.00 -1.00  0.00  0.00  0.00
   3   4  0.00 -1.00  0.00  0.00 -1.00  1.00  1.00 -1.00  0.00  0.00  0.00  0.00
   4   3 -1.00  0.00  1.00 -1.00  0.00  0.00 -1.00  1.00  0.00  0.00  0.00  0.00

 DIRECT LATTICE VECTORS CARTESIAN COMPONENTS (ANGSTROM)
          X                    Y                    Z
  -0.541865815055E+01   0.541865815055E+01   0.642923280580E+01
   0.541865815055E+01  -0.541865815055E+01   0.642923280580E+01
   0.541865815055E+01   0.541865815055E+01  -0.642923280580E+01


 CARTESIAN COORDINATES - PRIMITIVE CELL
 *******************************************************************************
 *      ATOM          X(ANGSTROM)         Y(ANGSTROM)         Z(ANGSTROM)
 *******************************************************************************
    1     1 H    -4.508323581258E-01  3.061433481898E+00 -1.605765185577E+00
    2     1 H     4.508323581258E-01 -3.061433481898E+00 -1.605765185577E+00
    3     1 H     3.061433481898E+00  4.508323581258E-01  1.605765185577E+00
    4     1 H    -3.061433481898E+00 -4.508323581258E-01  1.605765185577E+00
    5     1 H    -4.346847568371E+00  6.599925627370E-02 -1.544173135297E+00
    6     1 H     4.346847568371E+00 -6.599925627370E-02 -1.544173135297E+00
    7     1 H     6.599925627370E-02  4.346847568371E+00  1.544173135297E+00
    8     1 H    -6.599925627370E-02 -4.346847568371E+00  1.544173135297E+00
    9     6 C    -2.632709249026E+00  3.042684924697E+00 -1.637911349606E+00
   10     6 C     2.632709249026E+00 -3.042684924697E+00 -1.637911349606E+00
   11     6 C     3.042684924697E+00  2.632709249026E+00  1.637911349606E+00
   12     6 C    -3.042684924697E+00 -2.632709249026E+00  1.637911349606E+00
   13     6 C    -2.717131943012E+00  4.498786742913E+00 -1.651284153842E+00
   14     6 C     2.717131943012E+00 -4.498786742913E+00 -1.651284153842E+00
   15     6 C     4.498786742913E+00  2.717131943012E+00  1.651284153842E+00
   16     6 C    -4.498786742913E+00 -2.717131943012E+00  1.651284153842E+00
   17     6 C    -3.727386568600E+00  2.148823076182E+00 -1.617980727908E+00
   18     6 C     3.727386568600E+00 -2.148823076182E+00 -1.617980727908E+00
   19     6 C     2.148823076182E+00  3.727386568600E+00  1.617980727908E+00
   20     6 C    -2.148823076182E+00 -3.727386568600E+00  1.617980727908E+00
   21     6 C    -2.199324970145E+00  3.189422187414E-01 -1.595864167056E+00
   22     6 C     2.199324970145E+00 -3.189422187414E-01 -1.595864167056E+00
   23     6 C     3.189422187414E-01  2.199324970145E+00  1.595864167056E+00
   24     6 C    -3.189422187414E-01 -2.199324970145E+00  1.595864167056E+00
   25     6 C    -1.354339418148E+00  2.441213869986E+00 -1.628781839021E+00
   26     6 C     1.354339418148E+00 -2.441213869986E+00 -1.628781839021E+00
   27     6 C     2.441213869986E+00  1.354339418148E+00  1.628781839021E+00
   28     6 C    -2.441213869986E+00 -1.354339418148E+00  1.628781839021E+00
   29     6 C     3.519526841945E+00 -7.745429960396E-01 -1.562946495090E+00
   30     6 C    -3.519526841945E+00  7.745429960396E-01 -1.562946495090E+00
   31     6 C    -7.745429960396E-01 -3.519526841945E+00  1.562946495090E+00
   32     6 C     7.745429960396E-01  3.519526841945E+00  1.562946495090E+00
   33     7 N     3.737356899597E+00 -1.298310492872E-01  4.359919934925E+00
   34     7 N    -3.737356899597E+00  1.298310492872E-01  4.359919934925E+00
   35     7 N    -1.298310492872E-01 -3.737356899597E+00 -4.359919934925E+00
   36     7 N     1.298310492872E-01  3.737356899597E+00 -4.359919934925E+00
   37     7 N    -2.041750391127E+00 -4.249853587476E+00 -1.819601468698E+00
   38     7 N     2.041750391127E+00  4.249853587476E+00 -1.819601468698E+00
   39     7 N    -4.249853587476E+00  2.041750391127E+00  1.819601468698E+00
   40     7 N     4.249853587476E+00 -2.041750391127E+00  1.819601468698E+00
   41     7 N     1.711537363433E+00 -1.078312971959E-01  5.248697077999E+00
   42     7 N    -1.711537363433E+00  1.078312971959E-01  5.248697077999E+00
   43     7 N    -1.078312971959E-01 -1.711537363433E+00 -5.248697077999E+00
   44     7 N     1.078312971959E-01  1.711537363433E+00 -5.248697077999E+00
   45     7 N    -3.245776232179E+00 -4.236957181078E+00 -1.296133333649E+00
   46     7 N     3.245776232179E+00  4.236957181078E+00 -1.296133333649E+00
   47     7 N    -4.236957181078E+00  3.245776232179E+00  1.296133333649E+00
   48     7 N     4.236957181078E+00 -3.245776232179E+00  1.296133333649E+00
   49     7 N    -1.143228496603E+00  1.120145012882E+00 -1.634053809922E+00
   50     7 N     1.143228496603E+00 -1.120145012882E+00 -1.634053809922E+00
   51     7 N     1.120145012882E+00  1.143228496603E+00  1.634053809922E+00
   52     7 N    -1.120145012882E+00 -1.143228496603E+00  1.634053809922E+00
   53    17 CL    5.234423773431E-02 -2.724501318097E+00  4.748888519676E+00
   54    17 CL   -5.234423773431E-02  2.724501318097E+00  4.748888519676E+00
   55    17 CL   -2.724501318097E+00 -5.234423773431E-02 -4.748888519676E+00
   56    17 CL    2.724501318097E+00  5.234423773431E-02 -4.748888519676E+00
   57    17 CL   -1.961879369988E+00 -1.404082699971E+00 -1.643054735850E+00
   58    17 CL    1.961879369988E+00  1.404082699971E+00 -1.643054735850E+00
   59    17 CL   -1.404082699971E+00  1.961879369988E+00  1.643054735850E+00
   60    17 CL    1.404082699971E+00 -1.961879369988E+00  1.643054735850E+00
   61    30 ZN    5.418658150550E+00  0.000000000000E+00 -9.643849208700E+00
   62    30 ZN    0.000000000000E+00  0.000000000000E+00  6.429232805800E+00

 *******************************************************************************
 STARTING BASIS SET HANDLING 
 *******************************************************************************

 Loading internal basis set: POB-DZVPP           

 Please cite in your publication:
 Peintinger, M. F., Oliveira, D. V. and Bredow, T. (2013), Generally applicable 
 solid-state Gaussian basis sets, in preparation                                
                                                                                
                    

 *******************************************************************************
 LOCAL ATOMIC FUNCTIONS BASIS SET
 *******************************************************************************
   ATOM   X(AU)   Y(AU)   Z(AU)  N. TYPE  EXPONENT  S COEF   P COEF   D/F/G COEF
 *******************************************************************************
   1 H   -0.852   5.785  -3.034
                                  1 S  
                                         2.263E+01 1.441E-02 0.000E+00 0.000E+00
                                         3.236E+00 1.072E-01 0.000E+00 0.000E+00
                                         7.304E-01 3.846E-01 0.000E+00 0.000E+00
                                  2 S  
                                         1.417E-01 1.000E+00 0.000E+00 0.000E+00
                           3-     5 P  
                                         3.944E-01 0.000E+00 1.000E+00 0.000E+00
                           6-     8 P  
                                         1.006E-01 0.000E+00 1.000E+00 0.000E+00
   2 H    0.852  -5.785  -3.034
   3 H    5.785   0.852   3.034
   4 H   -5.785  -0.852   3.034
   5 H   -8.214   0.125  -2.918
   6 H    8.214  -0.125  -2.918
   7 H    0.125   8.214   2.918
   8 H   -0.125  -8.214   2.918
   9 C   -4.975   5.750  -3.095
                                 65 S  
                                         1.238E+03 5.457E-03 0.000E+00 0.000E+00
                                         1.863E+02 4.064E-02 0.000E+00 0.000E+00
                                         4.225E+01 1.803E-01 0.000E+00 0.000E+00
                                         1.168E+01 4.632E-01 0.000E+00 0.000E+00
                                         3.593E+00 4.409E-01 0.000E+00 0.000E+00
                                 66 S  
                                         5.281E+00 1.000E+00 0.000E+00 0.000E+00
                                 67 S  
                                         4.447E-01 1.000E+00 0.000E+00 0.000E+00
                          68-    70 P  
                                         9.468E+00 0.000E+00 3.839E-02 0.000E+00
                                         2.010E+00 0.000E+00 2.112E-01 0.000E+00
                                         5.477E-01 0.000E+00 5.133E-01 0.000E+00
                          71-    73 P  
                                         1.604E-01 0.000E+00 1.000E+00 0.000E+00
                          74-    78 D  
                                         6.070E-01 0.000E+00 0.000E+00 1.000E+00
                          79-    83 D  
                                         2.939E-01 0.000E+00 0.000E+00 1.000E+00
  10 C    4.975  -5.750  -3.095
  11 C    5.750   4.975   3.095
  12 C   -5.750  -4.975   3.095
  13 C   -5.135   8.501  -3.120
  14 C    5.135  -8.501  -3.120
  15 C    8.501   5.135   3.120
  16 C   -8.501  -5.135   3.120
  17 C   -7.044   4.061  -3.058
  18 C    7.044  -4.061  -3.058
  19 C    4.061   7.044   3.058
  20 C   -4.061  -7.044   3.058
  21 C   -4.156   0.603  -3.016
  22 C    4.156  -0.603  -3.016
  23 C    0.603   4.156   3.016
  24 C   -0.603  -4.156   3.016
  25 C   -2.559   4.613  -3.078
  26 C    2.559  -4.613  -3.078
  27 C    4.613   2.559   3.078
  28 C   -4.613  -2.559   3.078
  29 C    6.651  -1.464  -2.954
  30 C   -6.651   1.464  -2.954
  31 C   -1.464  -6.651   2.954
  32 C    1.464   6.651   2.954
  33 N    7.063  -0.245   8.239
                                521 S  
                                         1.713E+03-5.393E-03 0.000E+00 0.000E+00
                                         2.576E+02-4.022E-02 0.000E+00 0.000E+00
                                         5.846E+01-1.793E-01 0.000E+00 0.000E+00
                                         1.620E+01-4.638E-01 0.000E+00 0.000E+00
                                         5.005E+00-4.417E-01 0.000E+00 0.000E+00
                                522 S  
                                         6.217E-01 1.000E+00 0.000E+00 0.000E+00
                                523 S  
                                         2.921E-01 1.000E+00 0.000E+00 0.000E+00
                         524-   526 P  
                                         1.357E+01 0.000E+00-4.007E-02 0.000E+00
                                         2.926E+00 0.000E+00-2.181E-01 0.000E+00
                                         7.993E-01 0.000E+00-5.129E-01 0.000E+00
                         527-   529 P  
                                         2.244E-01 0.000E+00 1.000E+00 0.000E+00
                         530-   534 D  
                                         3.118E-01 0.000E+00 0.000E+00 1.000E+00
  34 N   -7.063   0.245   8.239
  35 N   -0.245  -7.063  -8.239
  36 N    0.245   7.063  -8.239
  37 N   -3.858  -8.031  -3.439
  38 N    3.858   8.031  -3.439
  39 N   -8.031   3.858   3.439
  40 N    8.031  -3.858   3.439
  41 N    3.234  -0.204   9.919
  42 N   -3.234   0.204   9.919
  43 N   -0.204  -3.234  -9.919
  44 N    0.204   3.234  -9.919
  45 N   -6.134  -8.007  -2.449
  46 N    6.134   8.007  -2.449
  47 N   -8.007   6.134   2.449
  48 N    8.007  -6.134   2.449
  49 N   -2.160   2.117  -3.088
  50 N    2.160  -2.117  -3.088
  51 N    2.117   2.160   3.088
  52 N   -2.117  -2.160   3.088
  53 CL   0.099  -5.149   8.974
                                801 S  
                                         1.045E+04 1.971E-03 0.000E+00 0.000E+00
                                         1.572E+03 1.475E-02 0.000E+00 0.000E+00
                                         3.571E+02 6.668E-02 0.000E+00 0.000E+00
                                         1.003E+02 1.723E-01 0.000E+00 0.000E+00
                                         3.081E+01 1.588E-01 0.000E+00 0.000E+00
                                802 S  
                                         5.192E+01-1.001E-01 0.000E+00 0.000E+00
                                         5.705E+00 6.084E-01 0.000E+00 0.000E+00
                                         2.351E+00 5.435E-01 0.000E+00 0.000E+00
                                803 S  
                                         4.886E-01 1.000E+00 0.000E+00 0.000E+00
                                804 S  
                                         1.984E-01 1.000E+00 0.000E+00 0.000E+00
                         805-   807 P  
                                         3.077E+02 0.000E+00-8.780E-03 0.000E+00
                                         7.210E+01 0.000E+00-6.356E-02 0.000E+00
                                         2.253E+01 0.000E+00-2.402E-01 0.000E+00
                                         7.899E+00 0.000E+00-4.780E-01 0.000E+00
                                         2.877E+00 0.000E+00-3.852E-01 0.000E+00
                         808-   810 P  
                                         9.483E-01 0.000E+00 1.000E+00 0.000E+00
                         811-   813 P  
                                         2.521E-01 0.000E+00 1.000E+00 0.000E+00
                         814-   818 D  
                                         9.722E-01 0.000E+00 0.000E+00 1.000E+00
                         819-   823 D  
                                         2.060E-01 0.000E+00 0.000E+00 1.000E+00
  54 CL  -0.099   5.149   8.974
  55 CL  -5.149  -0.099  -8.974
  56 CL   5.149   0.099  -8.974
  57 CL  -3.707  -2.653  -3.105
  58 CL   3.707   2.653  -3.105
  59 CL  -2.653   3.707   3.105
  60 CL   2.653  -3.707   3.105
  61 ZN  10.240   0.000 -18.224
                                985 S  
                                         8.200E+04 1.421E-03 0.000E+00 0.000E+00
                                         1.231E+04 1.089E-02 0.000E+00 0.000E+00
                                         2.801E+03 5.406E-02 0.000E+00 0.000E+00
                                         7.910E+02 1.885E-01 0.000E+00 0.000E+00
                                         2.576E+02 3.835E-01 0.000E+00 0.000E+00
                                         8.881E+01 2.972E-01 0.000E+00 0.000E+00
                                986 S  
                                         1.719E+02-1.105E-01 0.000E+00 0.000E+00
                                         2.030E+01 6.461E-01 0.000E+00 0.000E+00
                                         8.346E+00 4.422E-01 0.000E+00 0.000E+00
                                987 S  
                                         1.485E+01-2.271E-01 0.000E+00 0.000E+00
                                         2.450E+00 7.243E-01 0.000E+00 0.000E+00
                                         9.985E-01 4.484E-01 0.000E+00 0.000E+00
                                988 S  
                                         1.493E+00 1.000E+00 0.000E+00 0.000E+00
                                989 S  
                                         1.830E-01 1.000E+00 0.000E+00 0.000E+00
                         990-   992 P  
                                         1.072E+03 0.000E+00 9.277E-03 0.000E+00
                                         2.527E+02 0.000E+00 6.954E-02 0.000E+00
                                         8.010E+01 0.000E+00 2.716E-01 0.000E+00
                                         2.890E+01 0.000E+00 5.340E-01 0.000E+00
                                         1.077E+01 0.000E+00 3.450E-01 0.000E+00
                         993-   995 P  
                                         5.645E+00 0.000E+00 3.413E-01 0.000E+00
                                         2.168E+00 0.000E+00 5.639E-01 0.000E+00
                                         8.054E-01 0.000E+00 2.368E-01 0.000E+00
                         996-   998 P  
                                         2.721E-01 0.000E+00 1.000E+00 0.000E+00
                         999-  1003 D  
                                         5.609E+01 0.000E+00 0.000E+00 2.959E-02
                                         1.575E+01 0.000E+00 0.000E+00 1.587E-01
                                         5.312E+00 0.000E+00 0.000E+00 3.798E-01
                                         1.774E+00 0.000E+00 0.000E+00 4.690E-01
                        1004-  1008 D  
                                         5.073E-01 0.000E+00 0.000E+00 1.000E+00
                        1009-  1015 F  
                                         2.814E+00 0.000E+00 0.000E+00 1.000E+00
                        1016-  1022 F  
                                         1.300E+00 0.000E+00 0.000E+00 1.000E+00
  62 ZN   0.000   0.000  12.149

 *******************************************************************************
 FINISHED BASIS SET HANDLING 
 *******************************************************************************

 INFORMATION **** SET_MPP **** PCRYSTAL CALCULATION
 INFORMATION **** READM2 **** NEW DEFAULT: FOCK/KS MATRIX MIXING SET TO 30 %
 INFORMATION **** READM2 **** NEW DEFAULT: FULL DIRECT SCF MODE
 INFORMATION **** READM2 **** NEW DEFAULT: COULOMB BIPOLAR BUFFER SET TO 32 Mb
 INFORMATION **** READM2 **** NEW DEFAULT: EXCHANGE BIPOLAR BUFFER SET TO 32 Mb

 *******************************************************************************
 NEW DEFAULT: DFT INTEGRATION GRID INCREASED TO XLGRID
 NEW DEFAULT: DIIS ACCELERATOR ACTIVE
 USE KEYWORD NODIIS TO TURN IT OFF
 *******************************************************************************

 INFORMATION **** DFTD3_INPUT **** PERFORM DISPERSION CORRECTION DFT-D3(BJ) IN THE BECKE-JOHNSON DAMPING SCHEME

 PLEASE CITE:
 (1) DFT-D3 Reference
  S. Grimme, J. Antony, S. Ehrlich, and H. Krieg, J. Chem. Phys. 132 (2010), 154104
 (2) BJ-Damping Reference
  S. Grimme, S. Ehrlich, and L. Goerigk, J. Comput. Chem. 32 (2011), 1456-1465
 (3) General DFT-D Review
  S. Grimme, A. Hansen, J. G. Brandenburg, and C. Bannwarth,
  Chem. Rev. 116 (2016), 5105-5154

 INFORMATION **** TOLINTEG **** COULOMB AND EXCHANGE SERIES TOLERANCES MODIFIED
 INFORMATION **** BIPOSIZE **** COULOMB BIPOLAR BUFFER SET TO   100000000
 INFORMATION **** MAXCYCLE **** MAX NUMBER OF SCF CYCLES SET TO          50
 *******************************************************************************
 N. OF ATOMS PER CELL        62  COULOMB OVERLAP TOL         (T1) 10**  -12
 NUMBER OF SHELLS           416  COULOMB PENETRATION TOL     (T2) 10**  -12
 NUMBER OF AO              1060  EXCHANGE OVERLAP TOL        (T3) 10**   20
 N. OF ELECTRONS PER CELL   488  EXCHANGE PSEUDO OVP (F(G))  (T4) 10**   20
 CORE ELECTRONS PER CELL    204  EXCHANGE PSEUDO OVP (P(G))  (T5) 10**   20
 N. OF SYMMETRY OPERATORS     4  POLE ORDER IN MONO ZONE                  4
 *******************************************************************************
 TYPE OF CALCULATION :  RESTRICTED CLOSED SHELL
 KOHN-SHAM HAMILTONIAN

 (EXCHANGE)[CORRELATION] FUNCTIONAL:(PERDEW-BURKE-ERNZERHOF)[PERDEW-BURKE-ERNZERHOF]


 CAPPA:IS1  3;IS2  3;IS3  3; K PTS MONK NET   6; SYMMOPS:K SPACE   8;G SPACE   4

 *******************************************************************************
 MAX NUMBER OF SCF CYCLES      50  CONVERGENCE ON DELTAP        10**-16
 WEIGHT OF F(I) IN F(I+1)      30% CONVERGENCE ON ENERGY        10**- 6
 SHRINK. FACT.(MONKH.)    3  3  3  NUMBER OF K POINTS IN THE IBZ      6
 SHRINKING FACTOR(GILAT NET)    3  NUMBER OF K POINTS(GILAT NET)      6
 *******************************************************************************
 *** K POINTS COORDINATES (OBLIQUE COORDINATES IN UNITS OF IS =  3)
   1-R(  0  0  0)   2-C(  1  0  0)   3-C(  1  1  0)   4-C(  2  1  0)
   5-C(  2  1  1)   6-C(  2  2  1)

 DIRECT LATTICE VECTORS COMPON. (A.U.)     RECIP. LATTICE VECTORS COMPON. (A.U.) 
        X            Y            Z              X            Y            Z
  -10.2397799   10.2397799   12.1494893      0.0000000    0.3068028    0.2585782
   10.2397799  -10.2397799   12.1494893      0.3068028    0.0000000    0.2585782
   10.2397799   10.2397799  -12.1494893      0.3068028    0.3068028    0.0000000

 DISK SPACE FOR EIGENVECTORS (FTN 10)    12359600 REALS

 SYMMETRY ADAPTION OF THE BLOCH FUNCTIONS ENABLED
 TTTTTTTTTTTTTTTTTTTTTTTTTTTTTT gordsh1     TELAPSE        7.32 TCPU        0.08

 MATRIX SIZE: P(G) 1865596, F(G)  933504, P(G) IRR  235830, F(G) IRR  235830
 MAX G-VECTOR INDEX FOR 1- AND 2-ELECTRON INTEGRALS  59

 TTTTTTTTTTTTTTTTTTTTTTTTTTTTTT INPUT       TELAPSE        8.89 TCPU        1.64

 NEIGHBORS OF THE NON-EQUIVALENT ATOMS

 N = NUMBER OF NEIGHBORS AT DISTANCE R
    ATOM  N     R/ANG      R/AU   NEIGHBORS (ATOM LABELS AND CELL INDICES)
   1 H    1     1.0961     2.0714   25 C    0 0 0
   1 H    1     2.0613     3.8952   49 N    0 0 0
   1 H    1     2.1822     4.1237    9 C    0 0 0
   1 H    1     2.5865     4.8879   33 N    0-1 0
   1 H    1     2.6841     5.0721   13 C    0 0 0
   1 H    1     2.7697     5.2339   38 N    0 0 0

   5 H    1     1.0894     2.0587   30 C    0 0 0
   5 H    1     2.1477     4.0585    6 H    0-1-1
   5 H    1     2.1630     4.0874   21 C    0 0 0
   5 H    1     2.1742     4.1087   17 C    0 0 0
   5 H    1     2.8034     5.2976   57 CL   0 0 0
   5 H    1     2.8222     5.3333   53 CL   0-1 0

   9 C    1     1.4128     2.6699   25 C    0 0 0
   9 C    1     1.4134     2.6709   17 C    0 0 0
   9 C    1     1.4586     2.7564   13 C    0 0 0
   9 C    1     2.1822     4.1237    1 H    0 0 0
   9 C    1     2.4320     4.5959   49 N    0 0 0
   9 C    1     2.4365     4.6043   30 C    0 0 0

  13 C    1     1.3642     2.5780   41 N    0-1 0
  13 C    1     1.3682     2.5854   33 N    0-1 0
  13 C    1     1.4586     2.7564    9 C    0 0 0
  13 C    1     2.1960     4.1497   45 N    1 0 1
  13 C    1     2.2016     4.1604   37 N    1 0 1
  13 C    1     2.4681     4.6640   25 C    0 0 0

  17 C    1     1.3910     2.6286   30 C    0 0 0
  17 C    1     1.4134     2.6709    9 C    0 0 0
  17 C    1     1.7284     3.2662   53 CL   0-1 0
  17 C    1     2.1742     4.1087    5 H    0 0 0
  17 C    1     2.3841     4.5053   21 C    0 0 0
  17 C    1     2.3910     4.5184   25 C    0 0 0

  21 C    1     1.3262     2.5061   49 N    0 0 0
  21 C    1     1.3970     2.6399   30 C    0 0 0
  21 C    1     1.7399     3.2880   57 CL   0 0 0
  21 C    1     2.1630     4.0874    5 H    0 0 0
  21 C    1     2.2845     4.3172   25 C    0 0 0
  21 C    1     2.3841     4.5053   17 C    0 0 0

  25 C    1     1.0961     2.0714    1 H    0 0 0
  25 C    1     1.3378     2.5282   49 N    0 0 0
  25 C    1     1.4128     2.6699    9 C    0 0 0
  25 C    1     2.2845     4.3172   21 C    0 0 0
  25 C    1     2.3910     4.5184   17 C    0 0 0
  25 C    1     2.4681     4.6640   13 C    0 0 0

  29 C    1     1.0894     2.0587    6 H    0 0 0
  29 C    1     1.3910     2.6286   18 C    0 0 0
  29 C    1     1.3970     2.6399   22 C    0 0 0
  29 C    1     2.4024     4.5398   50 N    0 0 0
  29 C    1     2.4365     4.6043   10 C    0 0 0
  29 C    1     2.6663     5.0386   54 CL  -1 0 0

  33 N    1     1.3682     2.5854   13 C    0 1 0
  33 N    1     1.3707     2.5902   37 N    1 1 1
  33 N    1     2.0385     3.8521   61 ZN   1 1 0
  33 N    1     2.1830     4.1253   45 N    1 1 1
  33 N    1     2.2123     4.1807   41 N    0 0 0
  33 N    1     2.4772     4.6812    9 C    0 1 0

  37 N    1     1.3130     2.4811   45 N    0 0 0
  37 N    1     1.3707     2.5902   33 N   -1-1-1
  37 N    1     2.1936     4.1452   41 N   -1-1-1
  37 N    1     2.2016     4.1604   13 C   -1 0-1
  37 N    1     2.7351     5.1686   61 ZN   0 0-1
  37 N    1     2.7697     5.2339    2 H    0 0 0

  41 N    1     1.3642     2.5780   13 C    0 1 0
  41 N    1     1.3744     2.5973   45 N    1 1 1
  41 N    1     2.0820     3.9344   62 ZN   0 0 0
  41 N    1     2.1936     4.1452   37 N    1 1 1
  41 N    1     2.2123     4.1807   33 N    0 0 0
  41 N    1     2.5511     4.8208    9 C    0 1 0

  45 N    1     1.3130     2.4811   37 N    0 0 0
  45 N    1     1.3744     2.5973   41 N   -1-1-1
  45 N    1     2.1830     4.1253   33 N   -1-1-1
  45 N    1     2.1960     4.1497   13 C   -1 0-1
  45 N    1     2.7349     5.1681   54 CL  -1-1-1
  45 N    1     2.7925     5.2770   62 ZN  -1-1-1

  49 N    1     1.3262     2.5061   21 C    0 0 0
  49 N    1     1.3378     2.5282   25 C    0 0 0
  49 N    1     2.0613     3.8952    1 H    0 0 0
  49 N    1     2.4024     4.5398   30 C    0 0 0
  49 N    1     2.4320     4.5959    9 C    0 0 0
  49 N    1     2.6537     5.0147   57 CL   0 0 0

  53 CL   1     1.7284     3.2662   17 C    0 1 0
  53 CL   1     2.6663     5.0386   30 C    0 1 0
  53 CL   1     2.7349     5.1681   46 N    0 0-1
  53 CL   1     2.7561     5.2082    9 C    0 1 0
  53 CL   1     2.8222     5.3333    5 H    0 1 0
  53 CL   1     2.9834     5.6378    6 H    0 0-1

  57 CL   1     1.7399     3.2880   21 C    0 0 0
  57 CL   1     2.6537     5.0147   49 N    0 0 0
  57 CL   1     2.6794     5.0633   30 C    0 0 0
  57 CL   1     2.8034     5.2976    5 H    0 0 0
  57 CL   1     2.8524     5.3902   37 N    0 0 0
  57 CL   1     2.9274     5.5319    2 H    0 0 0

  61 ZN   4     2.0385     3.8521   33 N   -1-1 0   34 N   -1 0 1   35 N    0 0 1
                                    36 N   -1 0 0
  61 ZN   4     2.7351     5.1686   37 N    0 0 1   38 N   -1 0 0   39 N   -1 0 1
                                    40 N   -1-1 0
  61 ZN   4     2.8893     5.4600    1 H   -1 0 0    2 H    0 0 1    3 H   -1-1 0
                                     4 H   -1 0 1
  61 ZN   4     3.2670     6.1736   13 C   -1 0 0   14 C    0 0 1   15 C   -1-1 0
                                    16 C   -1 0 1
  61 ZN   4     3.6351     6.8694   25 C   -1 0 0   26 C    0 0 1   27 C   -1-1 0
                                    28 C   -1 0 1
  61 ZN   4     3.8810     7.3341    9 C   -1 0 0   10 C    0 0 1   11 C   -1-1 0
                                    12 C   -1 0 1

  62 ZN   4     2.0820     3.9344   41 N    0 0 0   42 N    0 0 0   43 N    1 1 0
                                    44 N    1 1 0
  62 ZN   4     2.7925     5.2770   45 N    1 1 1   46 N    0 0-1   47 N    0 1 0
                                    48 N    1 0 0
  62 ZN   4     3.2014     6.0498   53 CL   0 0 0   54 CL   0 0 0   55 CL   1 1 0
                                    56 CL   1 1 0
  62 ZN   4     3.2971     6.2307   13 C    0 1 0   14 C    1 0 0   15 C    0 0-1
                                    16 C    1 1 1
  62 ZN   4     4.0101     7.5779   37 N    1 1 1   38 N    0 0-1   39 N    0 1 0
                                    40 N    1 0 0
  62 ZN   4     4.0112     7.5800    9 C    0 1 0   10 C    1 0 0   11 C    0 0-1
                                    12 C    1 1 1


 SYMMETRY ALLOWED INTERNAL DEGREE(S) OF FREEDOM:  45
 TTTTTTTTTTTTTTTTTTTTTTTTTTTTTT SYMM        TELAPSE        8.99 TCPU        1.73
 TTTTTTTTTTTTTTTTTTTTTTTTTTTTTT INT_SCREEN  TELAPSE        9.01 TCPU        1.74
 INFORMATION **** EXCBUF **** EXCH. BIPO BUFFER: WORDS USED =           0

 DFT PARAMETERS

     ATOM       ELECTRONS   NET CHARGE   R(ANGSTROM)
   1   1  H       1.0000      0.0000     1.11000000
   9   6  C       6.0000      0.0000     0.77000000
  33   7  N       7.0000      0.0000     0.74000000
  53  17  CL     17.0000      0.0000     0.99000000
  61  30  ZN     30.0000      0.0000     1.37000000

 SIZE OF GRID=     467652
 TTTTTTTTTTTTTTTTTTTTTTTTTTTTTT MAKE_GRID2  TELAPSE        9.88 TCPU        2.59
 BECKE WEIGHT FUNCTION
 RADSAFE =     2.00
 TOLERANCES - DENSITY:10**- 6; POTENTIAL:10**- 9; GRID WGT:10**-14

 RADIAL INTEGRATION  - INTERVALS (POINTS,UPPER LIMIT):            1( 75,  4.0*R)

 ANGULAR INTEGRATION - INTERVALS (ACCURACY LEVEL [N. POINTS] UPPER LIMIT):
  1(  4[  86]   0.2)  2(  8[ 194]   0.5)  3( 12[ 350]   0.9)  4( 16[ 974]   3.5)
  5( 12[ 350]9999.0)
 TTTTTTTTTTTTTTTTTTTTTTTTTTTTTT INT_CALC    TELAPSE        9.93 TCPU        2.64
 EEEEEEEEEE INT_CALC TERMINATION  DATE 10 12 2023 TIME 20:22:47.0

 *******************************************************************************
 Z:\home\sanoj\Downloads\tmp_p\newconn.mol                                       
 CRYSTAL - SCF - TYPE OF CALCULATION :  RESTRICTED CLOSED SHELL
 *******************************************************************************

 CAPPA:IS1  3;IS2  3;IS3  3; K PTS MONK NET   6; SYMMOPS:K SPACE   8;G SPACE   4

 TTTTTTTTTTTTTTTTTTTTTTTTTTTTTT SDIK        TELAPSE       10.16 TCPU        2.87

 AAAAAAAAAAAAAAAAAAAAAAAAAAAAAAAAAAAAAAAAAAAAAAAAAAAAAAAAAAAAAAAAAAAAAAAAAAAAAAA
         ATOMIC WAVEFUNCTION(S)


 NUCLEAR CHARGE  1.0  SYMMETRY SPECIES            S
 N. ELECTRONS    1.0  NUMBER OF PRIMITIVE GTOS    4
                      NUMBER OF CONTRACTED GTOS   2
                      NUMBER OF CLOSED SHELLS     0
                      OPEN SHELL OCCUPATION       1

  ZNUC SCFIT  TOTAL HF ENERGY   KINETIC ENERGY   VIRIAL THEOREM ACCURACY
   1.0   1   -4.946643675E-01  4.917913167E-01 -2.005842012E+00  9.4E-17

 NUCLEAR CHARGE  6.0  SYMMETRY SPECIES            S    P
 N. ELECTRONS    6.0  NUMBER OF PRIMITIVE GTOS    7    4
                      NUMBER OF CONTRACTED GTOS   3    2
                      NUMBER OF CLOSED SHELLS     2    0
                      OPEN SHELL OCCUPATION       0    2

  ZNUC SCFIT  TOTAL HF ENERGY   KINETIC ENERGY   VIRIAL THEOREM ACCURACY
   6.0   6   -3.750912652E+01  3.905246519E+01 -1.960480378E+00  3.7E-06

 NUCLEAR CHARGE  7.0  SYMMETRY SPECIES            S    P
 N. ELECTRONS    7.0  NUMBER OF PRIMITIVE GTOS    7    4
                      NUMBER OF CONTRACTED GTOS   3    2
                      NUMBER OF CLOSED SHELLS     2    0
                      OPEN SHELL OCCUPATION       0    3

  ZNUC SCFIT  TOTAL HF ENERGY   KINETIC ENERGY   VIRIAL THEOREM ACCURACY
   7.0   9   -5.432196661E+01  5.425066284E+01 -2.001314339E+00  1.2E-06

 NUCLEAR CHARGE 17.0  SYMMETRY SPECIES            S    P
 N. ELECTRONS   17.0  NUMBER OF PRIMITIVE GTOS   10    7
                      NUMBER OF CONTRACTED GTOS   4    3
                      NUMBER OF CLOSED SHELLS     3    1
                      OPEN SHELL OCCUPATION       0    5

  ZNUC SCFIT  TOTAL HF ENERGY   KINETIC ENERGY   VIRIAL THEOREM ACCURACY
  17.0   9   -4.593005957E+02  4.593991532E+02 -1.999785464E+00  2.3E-06

 NUCLEAR CHARGE 30.0  SYMMETRY SPECIES            S    P    D
 N. ELECTRONS   30.0  NUMBER OF PRIMITIVE GTOS   14    9    5
                      NUMBER OF CONTRACTED GTOS   5    3    2
                      NUMBER OF CLOSED SHELLS     4    2    1
                      OPEN SHELL OCCUPATION       0    0    0

  ZNUC SCFIT  TOTAL HF ENERGY   KINETIC ENERGY   VIRIAL THEOREM ACCURACY
  30.0  10   -1.777404290E+03  1.777325716E+03 -2.000044209E+00  2.5E-06

 AAAAAAAAAAAAAAAAAAAAAAAAAAAAAAAAAAAAAAAAAAAAAAAAAAAAAAAAAAAAAAAAAAAAAAAAAAAAAAA

 TOTAL ATOMIC CHARGES:
   1.0000000   1.0000000   1.0000000   1.0000000   1.0000000   1.0000000
   1.0000000   1.0000000   6.0000000   6.0000000   6.0000000   6.0000000
   6.0000000   6.0000000   6.0000000   6.0000000   6.0000000   6.0000000
   6.0000000   6.0000000   6.0000000   6.0000000   6.0000000   6.0000000
   6.0000000   6.0000000   6.0000000   6.0000000   6.0000000   6.0000000
   6.0000000   6.0000000   7.0000000   7.0000000   7.0000000   7.0000000
   7.0000000   7.0000000   7.0000000   7.0000000   7.0000000   7.0000000
   7.0000000   7.0000000   7.0000000   7.0000000   7.0000000   7.0000000
   7.0000000   7.0000000   7.0000000   7.0000000  17.0000000  17.0000000
  17.0000000  17.0000000  17.0000000  17.0000000  17.0000000  17.0000000
  30.0000000  30.0000000
 TTTTTTTTTTTTTTTTTTTTTTTTTTTTTT MOQGAD      TELAPSE       12.02 TCPU        4.72
 TTTTTTTTTTTTTTTTTTTTTTTTTTTTTT SHELLXN     TELAPSE       92.70 TCPU       76.95
 TTTTTTTTTTTTTTTTTTTTTTTTTTTTTT MONMO3      TELAPSE       96.10 TCPU       80.34
 NUMERICALLY INTEGRATED DENSITY    487.9998413239
 TTTTTTTTTTTTTTTTTTTTTTTTTTTTTT NUMDFT      TELAPSE       98.50 TCPU       82.73
 CYC   0 ETOT(AU) -9.251418735497E+03 DETOT -9.25E+03 tst  0.00E+00 PX  1.00E+00
 TTTTTTTTTTTTTTTTTTTTTTTTTTTTTT DIIS        TELAPSE       98.59 TCPU       82.82
 TTTTTTTTTTTTTTTTTTTTTTTTTTTTTT FDIK        TELAPSE      142.65 TCPU      122.60
 INSULATING STATE
 TOP OF VALENCE BANDS -    BAND    244; K    1; EIG -1.3285213E-01 AU
 BOTTOM OF VIRTUAL BANDS - BAND    245; K    4; EIG -9.5627138E-02 AU
 INDIRECT ENERGY BAND GAP:   1.0129 eV
 BOTTOM OF VIRTUAL BANDS - BAND    245; K    1; EIG -9.3888368E-02 AU
 TTTTTTTTTTTTTTTTTTTTTTTTTTTTTT PDIG        TELAPSE      143.36 TCPU      123.31
 TOTAL ATOMIC CHARGES:
   1.3586506   1.3586506   1.3586506   1.3586506   1.2085835   1.2085835
   1.2085835   1.2085835   6.2134504   6.2134504   6.2134504   6.2134504
   5.4620296   5.4620296   5.4620296   5.4620296   5.2187899   5.2187899
   5.2187899   5.2187899   5.0053657   5.0053657   5.0053657   5.0053657
   5.7939986   5.7939986   5.7939986   5.7939986   6.3817197   6.3817197
   6.3817197   6.3817197   7.4261833   7.4261833   7.4261833   7.4261833
   7.1601318   7.1601318   7.1601318   7.1601318   7.4374678   7.4374678
   7.4374678   7.4374678   7.1746569   7.1746569   7.1746569   7.1746569
   7.5856865   7.5856865   7.5856865   7.5856865  17.3077072  17.3077072
  17.3077072  17.3077072  17.3051872  17.3051872  17.3051872  17.3051872
  27.8677915  27.9737739
 TTTTTTTTTTTTTTTTTTTTTTTTTTTTTT MOQGAD      TELAPSE      143.41 TCPU      123.36
 TTTTTTTTTTTTTTTTTTTTTTTTTTTTTT SHELLXN     TELAPSE      230.28 TCPU      207.72
 TTTTTTTTTTTTTTTTTTTTTTTTTTTTTT MONMO3      TELAPSE      233.12 TCPU      210.55
 NUMERICALLY INTEGRATED DENSITY    487.9999034959
 TTTTTTTTTTTTTTTTTTTTTTTTTTTTTT NUMDFT      TELAPSE      240.02 TCPU      217.43
 CYC   1 ETOT(AU) -9.246117861142E+03 DETOT  5.30E+00 tst  0.00E+00 PX  1.00E+00
 TTTTTTTTTTTTTTTTTTTTTTTTTTTTTT DIIS        TELAPSE      240.20 TCPU      217.60
 DIIS TEST: 0.97680E+01 AT SCF   CYCLE   1 - MIX   30 %
 TTTTTTTTTTTTTTTTTTTTTTTTTTTTTT FDIK        TELAPSE      255.57 TCPU      230.57
 INSULATING STATE
 TOP OF VALENCE BANDS -    BAND    244; K    1; EIG -1.3909656E-01 AU
 BOTTOM OF VIRTUAL BANDS - BAND    245; K    1; EIG -1.2369100E-01 AU
 DIRECT ENERGY BAND GAP:   0.4192 eV
 TTTTTTTTTTTTTTTTTTTTTTTTTTTTTT PDIG        TELAPSE      256.26 TCPU      231.27
 TOTAL ATOMIC CHARGES:
   1.3539968   1.3539968   1.3539968   1.3539968   1.1740614   1.1740614
   1.1740614   1.1740614   6.1816485   6.1816485   6.1816485   6.1816485
   6.2577132   6.2577132   6.2577132   6.2577132   6.1045919   6.1045919
   6.1045919   6.1045919   6.0589992   6.0589992   6.0589992   6.0589992
   6.1854979   6.1854979   6.1854979   6.1854979   5.9494219   5.9494219
   5.9494219   5.9494219   6.9524678   6.9524678   6.9524678   6.9524678
   6.8854140   6.8854140   6.8854140   6.8854140   6.8820533   6.8820533
   6.8820533   6.8820533   6.9132190   6.9132190   6.9132190   6.9132190
   6.0023575   6.0023575   6.0023575   6.0023575  17.1934385  17.1934385
  17.1934385  17.1934385  17.1419049  17.1419049  17.1419049  17.1419049
  29.5760273  29.4768291
 TTTTTTTTTTTTTTTTTTTTTTTTTTTTTT MOQGAD      TELAPSE      256.31 TCPU      231.32
 TTTTTTTTTTTTTTTTTTTTTTTTTTTTTT SHELLXN     TELAPSE      343.06 TCPU      315.74
 TTTTTTTTTTTTTTTTTTTTTTTTTTTTTT MONMO3      TELAPSE      346.05 TCPU      318.73
 NUMERICALLY INTEGRATED DENSITY    487.9998901756
 TTTTTTTTTTTTTTTTTTTTTTTTTTTTTT NUMDFT      TELAPSE      353.02 TCPU      325.68
 CYC   2 ETOT(AU) -9.244954890519E+03 DETOT  1.16E+00 tst  5.75E-02 PX  6.76E-01
 TTTTTTTTTTTTTTTTTTTTTTTTTTTTTT DIIS        TELAPSE      353.21 TCPU      325.87
 DIIS TEST: 0.16891E+02 AT SCF   CYCLE   2 - DIIS ACTIVE - HISTORY:     2 CYCLES
 TTTTTTTTTTTTTTTTTTTTTTTTTTTTTT FDIK        TELAPSE      367.98 TCPU      335.94
 INSULATING STATE
 TOP OF VALENCE BANDS -    BAND    244; K    1; EIG -2.4352820E-01 AU
 BOTTOM OF VIRTUAL BANDS - BAND    245; K    6; EIG -1.2359961E-01 AU
 INDIRECT ENERGY BAND GAP:   3.2634 eV
 BOTTOM OF VIRTUAL BANDS - BAND    245; K    1; EIG -1.2359651E-01 AU
 TTTTTTTTTTTTTTTTTTTTTTTTTTTTTT PDIG        TELAPSE      368.70 TCPU      336.66
 TOTAL ATOMIC CHARGES:
   1.2931821   1.2931821   1.2931821   1.2931821   1.1564982   1.1564982
   1.1564982   1.1564982   5.9778766   5.9778766   5.9778766   5.9778766
   5.8003802   5.8003802   5.8003802   5.8003802   5.4086544   5.4086544
   5.4086544   5.4086544   5.6039591   5.6039591   5.6039591   5.6039591
   6.0230154   6.0230154   6.0230154   6.0230154   6.0484757   6.0484757
   6.0484757   6.0484757   7.1129875   7.1129875   7.1129875   7.1129875
   7.0728984   7.0728984   7.0728984   7.0728984   7.1062409   7.1062409
   7.1062409   7.1062409   7.0859592   7.0859592   7.0859592   7.0859592
   7.4098308   7.4098308   7.4098308   7.4098308  17.2230885  17.2230885
  17.2230885  17.2230885  17.1368502  17.1368502  17.1368502  17.1368502
  29.1080251  29.0523859
 TTTTTTTTTTTTTTTTTTTTTTTTTTTTTT MOQGAD      TELAPSE      368.75 TCPU      336.71
 TTTTTTTTTTTTTTTTTTTTTTTTTTTTTT SHELLXN     TELAPSE      455.25 TCPU      420.86
 TTTTTTTTTTTTTTTTTTTTTTTTTTTTTT MONMO3      TELAPSE      457.59 TCPU      423.19
 NUMERICALLY INTEGRATED DENSITY    487.9999013283
 TTTTTTTTTTTTTTTTTTTTTTTTTTTTTT NUMDFT      TELAPSE      464.38 TCPU      429.96
 CYC   3 ETOT(AU) -9.247472298962E+03 DETOT -2.52E+00 tst  6.90E-03 PX  5.02E-01
 TTTTTTTTTTTTTTTTTTTTTTTTTTTTTT DIIS        TELAPSE      464.65 TCPU      430.23
 DIIS TEST: 0.29466E+01 AT SCF   CYCLE   3 - DIIS ACTIVE - HISTORY:     3 CYCLES
 TTTTTTTTTTTTTTTTTTTTTTTTTTTTTT FDIK        TELAPSE      478.70 TCPU      442.13
 INSULATING STATE
 TOP OF VALENCE BANDS -    BAND    244; K    1; EIG -2.2038439E-01 AU
 BOTTOM OF VIRTUAL BANDS - BAND    245; K    1; EIG -1.2522705E-01 AU
 DIRECT ENERGY BAND GAP:   2.5894 eV
 TTTTTTTTTTTTTTTTTTTTTTTTTTTTTT PDIG        TELAPSE      479.40 TCPU      442.83
 TOTAL ATOMIC CHARGES:
   1.3063077   1.3063077   1.3063077   1.3063077   1.1632000   1.1632000
   1.1632000   1.1632000   6.1870940   6.1870940   6.1870940   6.1870940
   5.7637887   5.7637887   5.7637887   5.7637887   5.6270908   5.6270908
   5.6270908   5.6270908   5.3602015   5.3602015   5.3602015   5.3602015
   5.9239486   5.9239486   5.9239486   5.9239486   6.2655933   6.2655933
   6.2655933   6.2655933   7.2190693   7.2190693   7.2190693   7.2190693
   7.0507067   7.0507067   7.0507067   7.0507067   7.2108068   7.2108068
   7.2108068   7.2108068   7.0986581   7.0986581   7.0986581   7.0986581
   6.9889042   6.9889042   6.9889042   6.9889042  17.2364823  17.2364823
  17.2364823  17.2364823  17.2092185  17.2092185  17.2092185  17.2092185
  28.7741278  28.7815896
 TTTTTTTTTTTTTTTTTTTTTTTTTTTTTT MOQGAD      TELAPSE      479.45 TCPU      442.88
 TTTTTTTTTTTTTTTTTTTTTTTTTTTTTT SHELLXN     TELAPSE      566.48 TCPU      527.26
 TTTTTTTTTTTTTTTTTTTTTTTTTTTTTT MONMO3      TELAPSE      569.40 TCPU      530.17
 NUMERICALLY INTEGRATED DENSITY    487.9998975651
 TTTTTTTTTTTTTTTTTTTTTTTTTTTTTT NUMDFT      TELAPSE      576.36 TCPU      537.11
 CYC   4 ETOT(AU) -9.247805328067E+03 DETOT -3.33E-01 tst  2.09E-03 PX  1.77E-01
 TTTTTTTTTTTTTTTTTTTTTTTTTTTTTT DIIS        TELAPSE      576.55 TCPU      537.29
 DIIS TEST: 0.64014E+00 AT SCF   CYCLE   4 - DIIS ACTIVE - HISTORY:     4 CYCLES
 TTTTTTTTTTTTTTTTTTTTTTTTTTTTTT FDIK        TELAPSE      590.36 TCPU      548.93
 INSULATING STATE
 TOP OF VALENCE BANDS -    BAND    244; K    2; EIG -2.4055758E-01 AU
 TOP OF VALENCE BANDS -    BAND    244; K    1; EIG -2.4063467E-01 AU
 BOTTOM OF VIRTUAL BANDS - BAND    245; K    1; EIG -1.2653838E-01 AU
 INDIRECT ENERGY BAND GAP:   3.1026 eV
 TTTTTTTTTTTTTTTTTTTTTTTTTTTTTT PDIG        TELAPSE      591.10 TCPU      549.66
 TOTAL ATOMIC CHARGES:
   1.2957296   1.2957296   1.2957296   1.2957296   1.1573900   1.1573900
   1.1573900   1.1573900   6.1304248   6.1304248   6.1304248   6.1304248
   5.8035627   5.8035627   5.8035627   5.8035627   5.5748818   5.5748818
   5.5748818   5.5748818   5.5287831   5.5287831   5.5287831   5.5287831
   6.0091639   6.0091639   6.0091639   6.0091639   6.1667675   6.1667675
   6.1667675   6.1667675   7.2004403   7.2004403   7.2004403   7.2004403
   7.0602841   7.0602841   7.0602841   7.0602841   7.1311968   7.1311968
   7.1311968   7.1311968   7.0707921   7.0707921   7.0707921   7.0707921
   7.0478537   7.0478537   7.0478537   7.0478537  17.2327867  17.2327867
  17.2327867  17.2327867  17.1978922  17.1978922  17.1978922  17.1978922
  28.7894649  28.7787379
 TTTTTTTTTTTTTTTTTTTTTTTTTTTTTT MOQGAD      TELAPSE      591.15 TCPU      549.71
 TTTTTTTTTTTTTTTTTTTTTTTTTTTTTT SHELLXN     TELAPSE      677.01 TCPU      633.10
 TTTTTTTTTTTTTTTTTTTTTTTTTTTTTT MONMO3      TELAPSE      680.89 TCPU      636.96
 NUMERICALLY INTEGRATED DENSITY    487.9998974069
 TTTTTTTTTTTTTTTTTTTTTTTTTTTTTT NUMDFT      TELAPSE      688.05 TCPU      644.10
 CYC   5 ETOT(AU) -9.247891145938E+03 DETOT -8.58E-02 tst  3.84E-04 PX  8.35E-02
 TTTTTTTTTTTTTTTTTTTTTTTTTTTTTT DIIS        TELAPSE      688.22 TCPU      644.27
 DIIS TEST: 0.66986E-01 AT SCF   CYCLE   5 - DIIS ACTIVE - HISTORY:     5 CYCLES
 TTTTTTTTTTTTTTTTTTTTTTTTTTTTTT FDIK        TELAPSE      701.48 TCPU      655.31
 INSULATING STATE
 TOP OF VALENCE BANDS -    BAND    244; K    1; EIG -2.3826486E-01 AU
 BOTTOM OF VIRTUAL BANDS - BAND    245; K    1; EIG -1.2634127E-01 AU
 DIRECT ENERGY BAND GAP:   3.0456 eV
 TTTTTTTTTTTTTTTTTTTTTTTTTTTTTT PDIG        TELAPSE      702.18 TCPU      656.01
 TOTAL ATOMIC CHARGES:
   1.2986746   1.2986746   1.2986746   1.2986746   1.1592409   1.1592409
   1.1592409   1.1592409   6.1323158   6.1323158   6.1323158   6.1323158
   5.7839772   5.7839772   5.7839772   5.7839772   5.5857728   5.5857728
   5.5857728   5.5857728   5.4673554   5.4673554   5.4673554   5.4673554
   5.9764918   5.9764918   5.9764918   5.9764918   6.1709503   6.1709503
   6.1709503   6.1709503   7.1610191   7.1610191   7.1610191   7.1610191
   7.0341576   7.0341576   7.0341576   7.0341576   7.1938835   7.1938835
   7.1938835   7.1938835   7.1111875   7.1111875   7.1111875   7.1111875
   7.0780996   7.0780996   7.0780996   7.0780996  17.2434132  17.2434132
  17.2434132  17.2434132  17.1940882  17.1940882  17.1940882  17.1940882
  28.8196976  28.8177930
 TTTTTTTTTTTTTTTTTTTTTTTTTTTTTT MOQGAD      TELAPSE      702.24 TCPU      656.06
 TTTTTTTTTTTTTTTTTTTTTTTTTTTTTT SHELLXN     TELAPSE      788.15 TCPU      739.66
 TTTTTTTTTTTTTTTTTTTTTTTTTTTTTT MONMO3      TELAPSE      794.58 TCPU      746.07
 NUMERICALLY INTEGRATED DENSITY    487.9998977009
 TTTTTTTTTTTTTTTTTTTTTTTTTTTTTT NUMDFT      TELAPSE      801.71 TCPU      753.18
 CYC   6 ETOT(AU) -9.247896751901E+03 DETOT -5.61E-03 tst  7.60E-05 PX  3.01E-02
 TTTTTTTTTTTTTTTTTTTTTTTTTTTTTT DIIS        TELAPSE      801.94 TCPU      753.40
 DIIS TEST: 0.37844E-01 AT SCF   CYCLE   6 - DIIS ACTIVE - HISTORY:     6 CYCLES
 TTTTTTTTTTTTTTTTTTTTTTTTTTTTTT FDIK        TELAPSE      816.71 TCPU      765.97
 INSULATING STATE
 TOP OF VALENCE BANDS -    BAND    244; K    2; EIG -2.3771601E-01 AU
 TOP OF VALENCE BANDS -    BAND    244; K    1; EIG -2.3774876E-01 AU
 BOTTOM OF VIRTUAL BANDS - BAND    245; K    1; EIG -1.2581286E-01 AU
 INDIRECT ENERGY BAND GAP:   3.0450 eV
 TTTTTTTTTTTTTTTTTTTTTTTTTTTTTT PDIG        TELAPSE      817.43 TCPU      766.69
 TOTAL ATOMIC CHARGES:
   1.3007624   1.3007624   1.3007624   1.3007624   1.1587061   1.1587061
   1.1587061   1.1587061   6.1239663   6.1239663   6.1239663   6.1239663
   5.7928152   5.7928152   5.7928152   5.7928152   5.5832537   5.5832537
   5.5832537   5.5832537   5.4739605   5.4739605   5.4739605   5.4739605
   5.9831282   5.9831282   5.9831282   5.9831282   6.1801615   6.1801615
   6.1801615   6.1801615   7.2036532   7.2036532   7.2036532   7.2036532
   7.0716962   7.0716962   7.0716962   7.0716962   7.1452163   7.1452163
   7.1452163   7.1452163   7.0740600   7.0740600   7.0740600   7.0740600
   7.0728926   7.0728926   7.0728926   7.0728926  17.2344438  17.2344438
  17.2344438  17.2344438  17.1895256  17.1895256  17.1895256  17.1895256
  28.8278562  28.8191782
 TTTTTTTTTTTTTTTTTTTTTTTTTTTTTT MOQGAD      TELAPSE      817.48 TCPU      766.74
 TTTTTTTTTTTTTTTTTTTTTTTTTTTTTT SHELLXN     TELAPSE      903.43 TCPU      850.30
 TTTTTTTTTTTTTTTTTTTTTTTTTTTTTT MONMO3      TELAPSE      910.17 TCPU      857.03
 NUMERICALLY INTEGRATED DENSITY    487.9998981393
 TTTTTTTTTTTTTTTTTTTTTTTTTTTTTT NUMDFT      TELAPSE      917.17 TCPU      864.01
 CYC   7 ETOT(AU) -9.247900524147E+03 DETOT -3.77E-03 tst  2.80E-05 PX  1.49E-02
 TTTTTTTTTTTTTTTTTTTTTTTTTTTTTT DIIS        TELAPSE      917.43 TCPU      864.27
 DIIS TEST: 0.15367E-01 AT SCF   CYCLE   7 - DIIS ACTIVE - HISTORY:     7 CYCLES
 TTTTTTTTTTTTTTTTTTTTTTTTTTTTTT FDIK        TELAPSE      930.13 TCPU      874.67
 INSULATING STATE
 TOP OF VALENCE BANDS -    BAND    244; K    1; EIG -2.3799202E-01 AU
 BOTTOM OF VIRTUAL BANDS - BAND    245; K    1; EIG -1.2633111E-01 AU
 DIRECT ENERGY BAND GAP:   3.0384 eV
 TTTTTTTTTTTTTTTTTTTTTTTTTTTTTT PDIG        TELAPSE      930.83 TCPU      875.37
 TOTAL ATOMIC CHARGES:
   1.2982304   1.2982304   1.2982304   1.2982304   1.1571620   1.1571620
   1.1571620   1.1571620   6.1230371   6.1230371   6.1230371   6.1230371
   5.7972117   5.7972117   5.7972117   5.7972117   5.5816672   5.5816672
   5.5816672   5.5816672   5.4930263   5.4930263   5.4930263   5.4930263
   5.9866619   5.9866619   5.9866619   5.9866619   6.1751315   6.1751315
   6.1751315   6.1751315   7.1830004   7.1830004   7.1830004   7.1830004
   7.0480414   7.0480414   7.0480414   7.0480414   7.1623412   7.1623412
   7.1623412   7.1623412   7.0914209   7.0914209   7.0914209   7.0914209
   7.0675075   7.0675075   7.0675075   7.0675075  17.2366722  17.2366722
  17.2366722  17.2366722  17.1889846  17.1889846  17.1889846  17.1889846
  28.8227909  28.8168244
 TTTTTTTTTTTTTTTTTTTTTTTTTTTTTT MOQGAD      TELAPSE      930.88 TCPU      875.42
 TTTTTTTTTTTTTTTTTTTTTTTTTTTTTT SHELLXN     TELAPSE     1017.10 TCPU      959.13
 TTTTTTTTTTTTTTTTTTTTTTTTTTTTTT MONMO3      TELAPSE     1022.00 TCPU      964.01
 NUMERICALLY INTEGRATED DENSITY    487.9998977499
 TTTTTTTTTTTTTTTTTTTTTTTTTTTTTT NUMDFT      TELAPSE     1029.16 TCPU      971.15
 CYC   8 ETOT(AU) -9.247902779663E+03 DETOT -2.26E-03 tst  5.88E-06 PX  8.15E-03
 TTTTTTTTTTTTTTTTTTTTTTTTTTTTTT DIIS        TELAPSE     1029.34 TCPU      971.33
 DIIS TEST: 0.10194E-02 AT SCF   CYCLE   8 - DIIS ACTIVE - HISTORY:     8 CYCLES
 TTTTTTTTTTTTTTTTTTTTTTTTTTTTTT FDIK        TELAPSE     1043.32 TCPU      982.93
 INSULATING STATE
 TOP OF VALENCE BANDS -    BAND    244; K    1; EIG -2.3820737E-01 AU
 BOTTOM OF VIRTUAL BANDS - BAND    245; K    1; EIG -1.2630688E-01 AU
 DIRECT ENERGY BAND GAP:   3.0450 eV
 TTTTTTTTTTTTTTTTTTTTTTTTTTTTTT PDIG        TELAPSE     1044.04 TCPU      983.65
 TOTAL ATOMIC CHARGES:
   1.2971837   1.2971837   1.2971837   1.2971837   1.1575232   1.1575232
   1.1575232   1.1575232   6.1296647   6.1296647   6.1296647   6.1296647
   5.7903419   5.7903419   5.7903419   5.7903419   5.5809411   5.5809411
   5.5809411   5.5809411   5.4836651   5.4836651   5.4836651   5.4836651
   5.9883963   5.9883963   5.9883963   5.9883963   6.1703308   6.1703308
   6.1703308   6.1703308   7.1872694   7.1872694   7.1872694   7.1872694
   7.0521134   7.0521134   7.0521134   7.0521134   7.1638169   7.1638169
   7.1638169   7.1638169   7.0862879   7.0862879   7.0862879   7.0862879
   7.0696478   7.0696478   7.0696478   7.0696478  17.2381000  17.2381000
  17.2381000  17.2381000  17.1939643  17.1939643  17.1939643  17.1939643
  28.8253765  28.8176382
 TTTTTTTTTTTTTTTTTTTTTTTTTTTTTT MOQGAD      TELAPSE     1044.09 TCPU      983.70
 TTTTTTTTTTTTTTTTTTTTTTTTTTTTTT SHELLXN     TELAPSE     1130.41 TCPU     1067.42
 TTTTTTTTTTTTTTTTTTTTTTTTTTTTTT MONMO3      TELAPSE     1137.31 TCPU     1074.29
 NUMERICALLY INTEGRATED DENSITY    487.9998978258
 TTTTTTTTTTTTTTTTTTTTTTTTTTTTTT NUMDFT      TELAPSE     1144.47 TCPU     1081.43
 CYC   9 ETOT(AU) -9.247902906079E+03 DETOT -1.26E-04 tst  5.57E-07 PX  2.55E-03
 TTTTTTTTTTTTTTTTTTTTTTTTTTTTTT DIIS        TELAPSE     1144.68 TCPU     1081.63
 DIIS TEST: 0.34534E-03 AT SCF   CYCLE   9 - DIIS ACTIVE - HISTORY:     9 CYCLES
 TTTTTTTTTTTTTTTTTTTTTTTTTTTTTT FDIK        TELAPSE     1155.29 TCPU     1092.13
 INSULATING STATE
 TOP OF VALENCE BANDS -    BAND    244; K    1; EIG -2.3831943E-01 AU
 BOTTOM OF VIRTUAL BANDS - BAND    245; K    1; EIG -1.2629197E-01 AU
 DIRECT ENERGY BAND GAP:   3.0484 eV
 TTTTTTTTTTTTTTTTTTTTTTTTTTTTTT PDIG        TELAPSE     1155.99 TCPU     1092.83
 TOTAL ATOMIC CHARGES:
   1.2977026   1.2977026   1.2977026   1.2977026   1.1571446   1.1571446
   1.1571446   1.1571446   6.1255310   6.1255310   6.1255310   6.1255310
   5.7921040   5.7921040   5.7921040   5.7921040   5.5815721   5.5815721
   5.5815721   5.5815721   5.4862564   5.4862564   5.4862564   5.4862564
   5.9844342   5.9844342   5.9844342   5.9844342   6.1757195   6.1757195
   6.1757195   6.1757195   7.1863497   7.1863497   7.1863497   7.1863497
   7.0517968   7.0517968   7.0517968   7.0517968   7.1614030   7.1614030
   7.1614030   7.1614030   7.0889761   7.0889761   7.0889761   7.0889761
   7.0709229   7.0709229   7.0709229   7.0709229  17.2378672  17.2378672
  17.2378672  17.2378672  17.1915919  17.1915919  17.1915919  17.1915919
  28.8245755  28.8179363
 TTTTTTTTTTTTTTTTTTTTTTTTTTTTTT MOQGAD      TELAPSE     1156.04 TCPU     1092.88
 TTTTTTTTTTTTTTTTTTTTTTTTTTTTTT SHELLXN     TELAPSE     1241.94 TCPU     1176.33
 TTTTTTTTTTTTTTTTTTTTTTTTTTTTTT MONMO3      TELAPSE     1248.71 TCPU     1183.08
 NUMERICALLY INTEGRATED DENSITY    487.9998977996
 TTTTTTTTTTTTTTTTTTTTTTTTTTTTTT NUMDFT      TELAPSE     1255.91 TCPU     1190.25
 CYC  10 ETOT(AU) -9.247902940425E+03 DETOT -3.43E-05 tst  5.00E-07 PX  1.87E-03
 TTTTTTTTTTTTTTTTTTTTTTTTTTTTTT DIIS        TELAPSE     1256.11 TCPU     1190.46
 DIIS TEST: 0.14321E-03 AT SCF   CYCLE  10 - DIIS ACTIVE - HISTORY:    10 CYCLES
 TTTTTTTTTTTTTTTTTTTTTTTTTTTTTT FDIK        TELAPSE     1267.56 TCPU     1201.80
 INSULATING STATE
 TOP OF VALENCE BANDS -    BAND    244; K    1; EIG -2.3822881E-01 AU
 BOTTOM OF VIRTUAL BANDS - BAND    245; K    1; EIG -1.2634545E-01 AU
 DIRECT ENERGY BAND GAP:   3.0445 eV
 TTTTTTTTTTTTTTTTTTTTTTTTTTTTTT PDIG        TELAPSE     1268.28 TCPU     1202.52
 TOTAL ATOMIC CHARGES:
   1.2976418   1.2976418   1.2976418   1.2976418   1.1572780   1.1572780
   1.1572780   1.1572780   6.1261077   6.1261077   6.1261077   6.1261077
   5.7936352   5.7936352   5.7936352   5.7936352   5.5812211   5.5812211
   5.5812211   5.5812211   5.4860634   5.4860634   5.4860634   5.4860634
   5.9867433   5.9867433   5.9867433   5.9867433   6.1735503   6.1735503
   6.1735503   6.1735503   7.1864933   7.1864933   7.1864933   7.1864933
   7.0512916   7.0512916   7.0512916   7.0512916   7.1623577   7.1623577
   7.1623577   7.1623577   7.0882162   7.0882162   7.0882162   7.0882162
   7.0700690   7.0700690   7.0700690   7.0700690  17.2376936  17.2376936
  17.2376936  17.2376936  17.1914045  17.1914045  17.1914045  17.1914045
  28.8238631  28.8170705
 TTTTTTTTTTTTTTTTTTTTTTTTTTTTTT MOQGAD      TELAPSE     1268.33 TCPU     1202.57
 TTTTTTTTTTTTTTTTTTTTTTTTTTTTTT SHELLXN     TELAPSE     1352.29 TCPU     1286.14
 TTTTTTTTTTTTTTTTTTTTTTTTTTTTTT MONMO3      TELAPSE     1361.08 TCPU     1294.91
 NUMERICALLY INTEGRATED DENSITY    487.9998978188
 TTTTTTTTTTTTTTTTTTTTTTTTTTTTTT NUMDFT      TELAPSE     1368.27 TCPU     1302.08
 CYC  11 ETOT(AU) -9.247902956975E+03 DETOT -1.65E-05 tst  1.08E-07 PX  7.43E-04
 TTTTTTTTTTTTTTTTTTTTTTTTTTTTTT DIIS        TELAPSE     1368.49 TCPU     1302.29
 DIIS TEST: 0.19070E-04 AT SCF   CYCLE  11 - DIIS ACTIVE - HISTORY:    11 CYCLES
 TTTTTTTTTTTTTTTTTTTTTTTTTTTTTT FDIK        TELAPSE     1381.64 TCPU     1313.27
 INSULATING STATE
 TOP OF VALENCE BANDS -    BAND    244; K    1; EIG -2.3822307E-01 AU
 BOTTOM OF VIRTUAL BANDS - BAND    245; K    1; EIG -1.2628873E-01 AU
 DIRECT ENERGY BAND GAP:   3.0459 eV
 TTTTTTTTTTTTTTTTTTTTTTTTTTTTTT PDIG        TELAPSE     1382.34 TCPU     1313.96
 TOTAL ATOMIC CHARGES:
   1.2976307   1.2976307   1.2976307   1.2976307   1.1573015   1.1573015
   1.1573015   1.1573015   6.1264538   6.1264538   6.1264538   6.1264538
   5.7919591   5.7919591   5.7919591   5.7919591   5.5814995   5.5814995
   5.5814995   5.5814995   5.4859711   5.4859711   5.4859711   5.4859711
   5.9863209   5.9863209   5.9863209   5.9863209   6.1736491   6.1736491
   6.1736491   6.1736491   7.1861222   7.1861222   7.1861222   7.1861222
   7.0521564   7.0521564   7.0521564   7.0521564   7.1623500   7.1623500
   7.1623500   7.1623500   7.0882440   7.0882440   7.0882440   7.0882440
   7.0699943   7.0699943   7.0699943   7.0699943  17.2377810  17.2377810
  17.2377810  17.2377810  17.1920309  17.1920309  17.1920309  17.1920309
  28.8246429  28.8174994
 TTTTTTTTTTTTTTTTTTTTTTTTTTTTTT MOQGAD      TELAPSE     1382.39 TCPU     1314.01
 TTTTTTTTTTTTTTTTTTTTTTTTTTTTTT SHELLXN     TELAPSE     1468.36 TCPU     1397.44
 TTTTTTTTTTTTTTTTTTTTTTTTTTTTTT MONMO3      TELAPSE     1475.72 TCPU     1404.78
 NUMERICALLY INTEGRATED DENSITY    487.9998978153
 TTTTTTTTTTTTTTTTTTTTTTTTTTTTTT NUMDFT      TELAPSE     1482.63 TCPU     1411.67
 CYC  12 ETOT(AU) -9.247902958510E+03 DETOT -1.54E-06 tst  1.15E-08 PX  4.75E-04
 TTTTTTTTTTTTTTTTTTTTTTTTTTTTTT DIIS        TELAPSE     1482.84 TCPU     1411.88
 DIIS TEST: 0.83972E-05 AT SCF   CYCLE  12 - DIIS ACTIVE - HISTORY:    12 CYCLES
 TTTTTTTTTTTTTTTTTTTTTTTTTTTTTT FDIK        TELAPSE     1495.90 TCPU     1423.47
 INSULATING STATE
 TOP OF VALENCE BANDS -    BAND    244; K    1; EIG -2.3825228E-01 AU
 BOTTOM OF VIRTUAL BANDS - BAND    245; K    1; EIG -1.2631267E-01 AU
 DIRECT ENERGY BAND GAP:   3.0460 eV
 TTTTTTTTTTTTTTTTTTTTTTTTTTTTTT PDIG        TELAPSE     1496.63 TCPU     1424.20
 TOTAL ATOMIC CHARGES:
   1.2976176   1.2976176   1.2976176   1.2976176   1.1572913   1.1572913
   1.1572913   1.1572913   6.1265958   6.1265958   6.1265958   6.1265958
   5.7927188   5.7927188   5.7927188   5.7927188   5.5811601   5.5811601
   5.5811601   5.5811601   5.4857227   5.4857227   5.4857227   5.4857227
   5.9861083   5.9861083   5.9861083   5.9861083   6.1738224   6.1738224
   6.1738224   6.1738224   7.1867402   7.1867402   7.1867402   7.1867402
   7.0512348   7.0512348   7.0512348   7.0512348   7.1623448   7.1623448
   7.1623448   7.1623448   7.0880896   7.0880896   7.0880896   7.0880896
   7.0703461   7.0703461   7.0703461   7.0703461  17.2378135  17.2378135
  17.2378135  17.2378135  17.1919408  17.1919408  17.1919408  17.1919408
  28.8243174  28.8174949
 TTTTTTTTTTTTTTTTTTTTTTTTTTTTTT MOQGAD      TELAPSE     1496.68 TCPU     1424.25
 TTTTTTTTTTTTTTTTTTTTTTTTTTTTTT SHELLXN     TELAPSE     1582.42 TCPU     1507.63
 TTTTTTTTTTTTTTTTTTTTTTTTTTTTTT MONMO3      TELAPSE     1588.55 TCPU     1513.74
 NUMERICALLY INTEGRATED DENSITY    487.9998978192
 TTTTTTTTTTTTTTTTTTTTTTTTTTTTTT NUMDFT      TELAPSE     1595.41 TCPU     1520.59
 CYC  13 ETOT(AU) -9.247902959323E+03 DETOT -8.13E-07 tst  7.17E-09 PX  2.57E-04
 TTTTTTTTTTTTTTTTTTTTTTTTTTTTTT DIIS        TELAPSE     1595.66 TCPU     1520.84
 DIIS TEST: 0.27750E-05 AT SCF   CYCLE  13 - DIIS ACTIVE - HISTORY:    13 CYCLES
 TTTTTTTTTTTTTTTTTTTTTTTTTTTTTT FDIK        TELAPSE     1608.80 TCPU     1531.72
 INSULATING STATE
 TOP OF VALENCE BANDS -    BAND    244; K    1; EIG -2.3823427E-01 AU
 BOTTOM OF VIRTUAL BANDS - BAND    245; K    1; EIG -1.2631140E-01 AU
 DIRECT ENERGY BAND GAP:   3.0456 eV
 TTTTTTTTTTTTTTTTTTTTTTTTTTTTTT PDIG        TELAPSE     1609.50 TCPU     1532.42
 TOTAL ATOMIC CHARGES:
   1.2975999   1.2975999   1.2975999   1.2975999   1.1572832   1.1572832
   1.1572832   1.1572832   6.1263550   6.1263550   6.1263550   6.1263550
   5.7926693   5.7926693   5.7926693   5.7926693   5.5813433   5.5813433
   5.5813433   5.5813433   5.4859044   5.4859044   5.4859044   5.4859044
   5.9864406   5.9864406   5.9864406   5.9864406   6.1736807   6.1736807
[...]
 DIIS TEST: 0.18904E+03 AT CPHF  CYCLE   3 - DIIS ACTIVE - HISTORY:     3 CYCLES
 CYCLE   3   ALPHA 1382.883318  EPSILON    4.410328  DELTA    1.0618E+02
 TTTTTTTTTTTTTTTTTTTTTTTTTTTTTT MOQGAD      TELAPSE   161070.92 TCPU   160175.51
 TTTTTTTTTTTTTTTTTTTTTTTTTTTTTT CP_MONMON   TELAPSE   161102.40 TCPU   160206.88
 DIIS TEST: 0.13596E+02 AT CPHF  CYCLE   4 - DIIS ACTIVE - HISTORY:     4 CYCLES
 CYCLE   4   ALPHA 1405.112056  EPSILON    4.465146  DELTA    2.2229E+01
 TTTTTTTTTTTTTTTTTTTTTTTTTTTTTT MOQGAD      TELAPSE   162810.08 TCPU   161905.86
 TTTTTTTTTTTTTTTTTTTTTTTTTTTTTT CP_MONMON   TELAPSE   162841.65 TCPU   161937.34
 DIIS TEST: 0.15326E+01 AT CPHF  CYCLE   5 - DIIS ACTIVE - HISTORY:     5 CYCLES
 CYCLE   5   ALPHA 1413.379116  EPSILON    4.485534  DELTA    8.2671E+00
 TTTTTTTTTTTTTTTTTTTTTTTTTTTTTT MOQGAD      TELAPSE   164574.06 TCPU   163660.00
 TTTTTTTTTTTTTTTTTTTTTTTTTTTTTT CP_MONMON   TELAPSE   164605.53 TCPU   163691.38
 DIIS TEST: 0.30068E+00 AT CPHF  CYCLE   6 - DIIS ACTIVE - HISTORY:     6 CYCLES
 CYCLE   6   ALPHA 1416.417383  EPSILON    4.493026  DELTA    3.0383E+00
 TTTTTTTTTTTTTTTTTTTTTTTTTTTTTT MOQGAD      TELAPSE   166334.60 TCPU   165413.29
 TTTTTTTTTTTTTTTTTTTTTTTTTTTTTT CP_MONMON   TELAPSE   166366.04 TCPU   165444.65
 DIIS TEST: 0.44257E-01 AT CPHF  CYCLE   7 - DIIS ACTIVE - HISTORY:     7 CYCLES
 CYCLE   7   ALPHA 1417.329217  EPSILON    4.495275  DELTA    9.1183E-01
 TTTTTTTTTTTTTTTTTTTTTTTTTTTTTT MOQGAD      TELAPSE   168040.69 TCPU   167111.67
 TTTTTTTTTTTTTTTTTTTTTTTTTTTTTT CP_MONMON   TELAPSE   168072.29 TCPU   167143.16
 DIIS TEST: 0.39820E-02 AT CPHF  CYCLE   8 - DIIS ACTIVE - HISTORY:     8 CYCLES
 CYCLE   8   ALPHA 1417.575264  EPSILON    4.495882  DELTA    2.4605E-01
 TTTTTTTTTTTTTTTTTTTTTTTTTTTTTT MOQGAD      TELAPSE   169719.44 TCPU   168779.24
 TTTTTTTTTTTTTTTTTTTTTTTTTTTTTT CP_MONMON   TELAPSE   169751.63 TCPU   168810.57
 DIIS TEST: 0.44985E-03 AT CPHF  CYCLE   9 - DIIS ACTIVE - HISTORY:     9 CYCLES
 CYCLE   9   ALPHA 1417.566878  EPSILON    4.495861  DELTA   -8.3863E-03
 TTTTTTTTTTTTTTTTTTTTTTTTTTTTTT MOQGAD      TELAPSE   171436.81 TCPU   170488.91
 TTTTTTTTTTTTTTTTTTTTTTTTTTTTTT CP_MONMON   TELAPSE   171468.51 TCPU   170520.50
 DIIS TEST: 0.81279E-04 AT CPHF  CYCLE  10 - DIIS ACTIVE - HISTORY:    10 CYCLES
 CYCLE  10   ALPHA 1417.532434  EPSILON    4.495776  DELTA   -3.4444E-02
 TTTTTTTTTTTTTTTTTTTTTTTTTTTTTT MOQGAD      TELAPSE   173196.35 TCPU   172241.30
 TTTTTTTTTTTTTTTTTTTTTTTTTTTTTT CP_MONMON   TELAPSE   173227.82 TCPU   172272.66
 DIIS TEST: 0.90090E-05 AT CPHF  CYCLE  11 - DIIS ACTIVE - HISTORY:    11 CYCLES
 CYCLE  11   ALPHA 1417.516908  EPSILON    4.495738  DELTA   -1.5526E-02
 TTTTTTTTTTTTTTTTTTTTTTTTTTTTTT MOQGAD      TELAPSE   174930.52 TCPU   173967.76
 TTTTTTTTTTTTTTTTTTTTTTTTTTTTTT CP_MONMON   TELAPSE   174962.22 TCPU   173999.36
 DIIS TEST: 0.26362E-05 AT CPHF  CYCLE  12 - DIIS ACTIVE - HISTORY:    12 CYCLES
 CYCLE  12   ALPHA 1417.511683  EPSILON    4.495725  DELTA   -5.2246E-03
 TTTTTTTTTTTTTTTTTTTTTTTTTTTTTT MOQGAD      TELAPSE   176633.88 TCPU   175662.24
 TTTTTTTTTTTTTTTTTTTTTTTTTTTTTT CP_MONMON   TELAPSE   176665.74 TCPU   175693.64
 DIIS TEST: 0.21859E-06 AT CPHF  CYCLE  13 - DIIS ACTIVE - HISTORY:    13 CYCLES
 CYCLE  13   ALPHA 1417.510421  EPSILON    4.495722  DELTA   -1.2622E-03
 TTTTTTTTTTTTTTTTTTTTTTTTTTTTTT MOQGAD      TELAPSE   178334.35 TCPU   177356.02
 TTTTTTTTTTTTTTTTTTTTTTTTTTTTTT CP_MONMON   TELAPSE   178365.91 TCPU   177387.47
 DIIS TEST: 0.21197E-07 AT CPHF  CYCLE  14 - DIIS ACTIVE - HISTORY:    14 CYCLES
 CYCLE  14   ALPHA 1417.509954  EPSILON    4.495721  DELTA   -4.6684E-04
 TTTTTTTTTTTTTTTTTTTTTTTTTTTTTT CP_SC       TELAPSE   178495.93 TCPU   177513.58

 *******************************************************************************

 ELECTRIC FIELD APPLIED ALONG CARTESIAN DIRECTION Z

 *******************************************************************************
 THE NUMBER OF SYMMETRY OPERATORS HAS BEEN REDUCED FROM  4 TO  1

 NEW GRID IN RECIPROCAL SPACE
 *******************************************************************************
 POINTS IN THE IBZ                  14 SHRINKING FACTORS               3  3  3
 *******************************************************************************
 *** K POINTS COORDINATES (OBLIQUE COORDINATES IN UNITS OF SHRINK FAC. )
   1-R(  0  0  0)   2-C(  1  0  0)   3-C(  0  1  2)   4-C(  2  0  1)
   5-C(  0  2  0)   6-C(  1  1  0)   7-C(  1  1  1)   8-C(  1  0  1)
   9-C(  0  1  1)  10-C(  2  1  0)  11-C(  0  0  2)  12-C(  2  1  1)
  13-C(  2  1  2)  14-C(  2  2  1)

 GCALCO - MAX INDICES DIRECT LATTICE VECTOR    14    14    16
 NO.OF VECTORS CREATED 6999 STARS  487 RMAX   204.89584 BOHR
 TTTTTTTTTTTTTTTTTTTTTTTTTTTTTT gordsh1     TELAPSE   178548.64 TCPU   177565.74

 MATRIX SIZE: P(G) 1865596, F(G)  933504, P(G) IRR  935158, F(G) IRR  935158
 MAX G-VECTOR INDEX FOR 1- AND 2-ELECTRON INTEGRALS  59

 TTTTTTTTTTTTTTTTTTTTTTTTTTTTTT INPUT       TELAPSE   178584.02 TCPU   177600.86
 TTTTTTTTTTTTTTTTTTTTTTTTTTTTTT SYMM        TELAPSE   178584.02 TCPU   177600.86

 ***** NEW REFERENCE GEOMETRY *****
 TTTTTTTTTTTTTTTTTTTTTTTTTTTTTT INT_SCREEN  TELAPSE   178584.04 TCPU   177600.88
 INFORMATION **** EXCBUF **** EXCH. BIPO BUFFER: WORDS USED =           0

 DFT PARAMETERS

     ATOM       ELECTRONS   NET CHARGE   R(ANGSTROM)
   1   1  H       1.0000      0.0000     1.11000000
   9   6  C       6.0000      0.0000     0.77000000
  33   7  N       7.0000      0.0000     0.74000000
  53  17  CL     17.0000      0.0000     0.99000000
  61  30  ZN     30.0000      0.0000     1.37000000

 SIZE OF GRID=    1870378
 TTTTTTTTTTTTTTTTTTTTTTTTTTTTTT MAKE_GRID2  TELAPSE   178586.35 TCPU   177603.18
 BECKE WEIGHT FUNCTION
 RADSAFE =     2.00
 TOLERANCES - DENSITY:10**- 6; POTENTIAL:10**- 9; GRID WGT:10**-14

 RADIAL INTEGRATION  - INTERVALS (POINTS,UPPER LIMIT):            1( 75,  4.0*R)

 ANGULAR INTEGRATION - INTERVALS (ACCURACY LEVEL [N. POINTS] UPPER LIMIT):
  1(  4[  86]   0.2)  2(  8[ 194]   0.5)  3( 12[ 350]   0.9)  4( 16[ 974]   3.5)
  5( 12[ 350]9999.0)
 TTTTTTTTTTTTTTTTTTTTTTTTTTTTTT INT_CALC    TELAPSE   178586.46 TCPU   177603.29
 CYCLE   0   ALPHA  722.776900  EPSILON    2.782440  DELTA    7.2278E+02
 TTTTTTTTTTTTTTTTTTTTTTTTTTTTTT MOQGAD      TELAPSE   180308.59 TCPU   179319.67
 TTTTTTTTTTTTTTTTTTTTTTTTTTTTTT CP_MONMON   TELAPSE   180340.68 TCPU   179351.63
 DIIS TEST: 0.75958E+02 AT CPHF  CYCLE   1 - MIX    0 %
 CYCLE   1   ALPHA  401.695593  EPSILON    1.990621  DELTA   -3.2108E+02
 TTTTTTTTTTTTTTTTTTTTTTTTTTTTTT MOQGAD      TELAPSE   182035.49 TCPU   181031.36
 TTTTTTTTTTTTTTTTTTTTTTTTTTTTTT CP_MONMON   TELAPSE   182066.99 TCPU   181062.74
 DIIS TEST: 0.53760E+03 AT CPHF  CYCLE   2 - DIIS ACTIVE - HISTORY:     2 CYCLES
 CYCLE   2   ALPHA  533.944705  EPSILON    2.316761  DELTA    1.3225E+02
 TTTTTTTTTTTTTTTTTTTTTTTTTTTTTT MOQGAD      TELAPSE   183820.21 TCPU   182807.83
 TTTTTTTTTTTTTTTTTTTTTTTTTTTTTT CP_MONMON   TELAPSE   183851.73 TCPU   182839.29
 DIIS TEST: 0.40533E+02 AT CPHF  CYCLE   3 - DIIS ACTIVE - HISTORY:     3 CYCLES
 CYCLE   3   ALPHA  575.397555  EPSILON    2.418988  DELTA    4.1453E+01
 TTTTTTTTTTTTTTTTTTTTTTTTTTTTTT MOQGAD      TELAPSE   185499.26 TCPU   184477.62
 TTTTTTTTTTTTTTTTTTTTTTTTTTTTTT CP_MONMON   TELAPSE   185530.78 TCPU   184509.03
 DIIS TEST: 0.14425E+01 AT CPHF  CYCLE   4 - DIIS ACTIVE - HISTORY:     4 CYCLES
 CYCLE   4   ALPHA  576.244769  EPSILON    2.421077  DELTA    8.4721E-01
 TTTTTTTTTTTTTTTTTTTTTTTTTTTTTT MOQGAD      TELAPSE   187277.82 TCPU   186247.98
 TTTTTTTTTTTTTTTTTTTTTTTTTTTTTT CP_MONMON   TELAPSE   187309.29 TCPU   186279.38
 DIIS TEST: 0.11670E+00 AT CPHF  CYCLE   5 - DIIS ACTIVE - HISTORY:     5 CYCLES
 CYCLE   5   ALPHA  576.475431  EPSILON    2.421646  DELTA    2.3066E-01
 TTTTTTTTTTTTTTTTTTTTTTTTTTTTTT MOQGAD      TELAPSE   188986.61 TCPU   187949.41
 TTTTTTTTTTTTTTTTTTTTTTTTTTTTTT CP_MONMON   TELAPSE   189018.33 TCPU   187981.03
 DIIS TEST: 0.19241E-01 AT CPHF  CYCLE   6 - DIIS ACTIVE - HISTORY:     6 CYCLES
 CYCLE   6   ALPHA  576.644998  EPSILON    2.422064  DELTA    1.6957E-01
 TTTTTTTTTTTTTTTTTTTTTTTTTTTTTT MOQGAD      TELAPSE   190697.83 TCPU   189654.88
 TTTTTTTTTTTTTTTTTTTTTTTTTTTTTT CP_MONMON   TELAPSE   190729.31 TCPU   189686.23
 DIIS TEST: 0.31873E-02 AT CPHF  CYCLE   7 - DIIS ACTIVE - HISTORY:     7 CYCLES
 CYCLE   7   ALPHA  576.669383  EPSILON    2.422124  DELTA    2.4385E-02
 TTTTTTTTTTTTTTTTTTTTTTTTTTTTTT MOQGAD      TELAPSE   192409.84 TCPU   191358.45
 TTTTTTTTTTTTTTTTTTTTTTTTTTTTTT CP_MONMON   TELAPSE   192441.53 TCPU   191390.02
 DIIS TEST: 0.11281E-02 AT CPHF  CYCLE   8 - DIIS ACTIVE - HISTORY:     8 CYCLES
 CYCLE   8   ALPHA  576.669222  EPSILON    2.422124  DELTA   -1.6085E-04
 TTTTTTTTTTTTTTTTTTTTTTTTTTTTTT CP_SC       TELAPSE   192558.66 TCPU   191503.32

 *******************************************************************************

 POLARIZABILITY (ALPHA), DIELECTRIC (EPSILON) AND FIRST-ORDER ELECTRIC
 SUSCEPTIBILITY (CHI(1)) TENSORS (INDEPENDENT COMPONENTS)

  FR.(eV) COMP.   ALPHA(Re,Im)           EPSILON(Re,Im)                CHI(1)
  2.331   XX    1417.5094       0.0000       4.4957       0.0000       3.4957
  2.331   XY       0.0004       0.0000       0.0000       0.0000       0.0000
  2.331   XZ      -0.0000       0.0000      -0.0000       0.0000      -0.0000
  2.331   YY    1417.5100       0.0000       4.4957       0.0000       3.4957
  2.331   YZ      -0.0000       0.0000      -0.0000       0.0000      -0.0000
  2.331   ZZ     576.6692       0.0000       2.4221       0.0000       1.4221

 DIELECTRIC TENSOR

 TENSOR IN PRINCIPAL AXES SYSTEM
 AA  4.495719E+00 BB  4.495721E+00 CC  2.422124E+00

 REFRACTIVE INDICES 
 AA  1.556317E+00 BB  2.120311E+00 CC  2.120312E+00

 OPTICALLY ANISOTROPIC - UNIAXIAL CRYSTAL

 BIREFRINGENCE =  0.5640 (NEGATIVE) - OBLATE OPTICAL ELLIPSOID

 EPSILON=N**2=1+CHI(1)=1+ALPHA*4*PI/V,   4*PI/V=   0.00247 BOHR**(-3)
 ALPHA IN BOHR**3; EPSILON AND CHI(1) ARE DIMENSIONLESS.
 *******************************************************************************


  Pockels Effect beta(-omega;omega,0) with omega=   1.1653 eV


 SIZE OF GRID=    1870378
 TTTTTTTTTTTTTTTTTTTTTTTTTTTTTT MAKE_GRID2  TELAPSE   193096.86 TCPU   192037.95
 BECKE WEIGHT FUNCTION
 RADSAFE =     2.00
 TOLERANCES - DENSITY:10**- 6; POTENTIAL:10**- 9; GRID WGT:10**-14

 RADIAL INTEGRATION  - INTERVALS (POINTS,UPPER LIMIT):            1( 75,  4.0*R)

 ANGULAR INTEGRATION - INTERVALS (ACCURACY LEVEL [N. POINTS] UPPER LIMIT):
  1(  4[  86]   0.2)  2(  8[ 194]   0.5)  3( 12[ 350]   0.9)  4( 16[ 974]   3.5)
  5( 12[ 350]9999.0)

 SIZE OF GRID=    1870378
 TTTTTTTTTTTTTTTTTTTTTTTTTTTTTT MAKE_GRID2  TELAPSE   193100.39 TCPU   192040.85
 BECKE WEIGHT FUNCTION
 RADSAFE =     2.00
 TOLERANCES - DENSITY:10**- 6; POTENTIAL:10**- 9; GRID WGT:10**-14

 RADIAL INTEGRATION  - INTERVALS (POINTS,UPPER LIMIT):            1( 75,  4.0*R)

 ANGULAR INTEGRATION - INTERVALS (ACCURACY LEVEL [N. POINTS] UPPER LIMIT):
  1(  4[  86]   0.2)  2(  8[ 194]   0.5)  3( 12[ 350]   0.9)  4( 16[ 974]   3.5)
  5( 12[ 350]9999.0)
 *******************************************************************************

 DC-POCKELS AND SECOND ELECTRIC SUSCEPTIBILITY (CHI(2))
 TENSORS (INDEPENDENT COMPONENTS)

BETA                                         CHI(2)       d(MKS)       d(cgs)
 *******************************************************************************

     XXX          0.7533E-02   0.9289E-05   0.9032E-05   0.2155E-06
     XXY         -0.2478E-03  -0.3056E-06  -0.2971E-06  -0.7089E-08
     XXZ          0.5183E+02   0.6391E-01   0.6214E-01   0.1483E-02
     XYX         -0.2203E-02  -0.2717E-05  -0.2642E-05  -0.6302E-07
     XYY          0.4173E-02   0.5146E-05   0.5003E-05   0.1194E-06
     XYZ         -0.3875E+03  -0.4778E+00  -0.4646E+00  -0.1108E-01
     XZX          0.5363E+02   0.6613E-01   0.6430E-01   0.1534E-02
     XZY         -0.3651E+03  -0.4502E+00  -0.4378E+00  -0.1044E-01
     XZZ          0.4383E-02   0.5404E-05   0.5255E-05   0.1254E-06
     YXX         -0.2206E-02  -0.2720E-05  -0.2645E-05  -0.6309E-07
     YXY          0.4101E-02   0.5057E-05   0.4917E-05   0.1173E-06
     YXZ         -0.3875E+03  -0.4778E+00  -0.4646E+00  -0.1108E-01
     YYX          0.1276E-03   0.1574E-06   0.1530E-06   0.3650E-08
     YYY         -0.4118E-02  -0.5077E-05  -0.4937E-05  -0.1178E-06
     YYZ         -0.5181E+02  -0.6389E-01  -0.6212E-01  -0.1482E-02
     YZX         -0.3651E+03  -0.4502E+00  -0.4378E+00  -0.1044E-01
     YZY         -0.5363E+02  -0.6612E-01  -0.6429E-01  -0.1534E-02
     YZZ         -0.2268E-02  -0.2796E-05  -0.2719E-05  -0.6487E-07
     ZXX          0.5243E+02   0.6464E-01   0.6286E-01   0.1500E-02
     ZXY         -0.3652E+03  -0.4504E+00  -0.4379E+00  -0.1045E-01
     ZXZ          0.4374E-02   0.5393E-05   0.5244E-05   0.1251E-06
     ZYX         -0.3652E+03  -0.4504E+00  -0.4379E+00  -0.1045E-01
     ZYY         -0.5240E+02  -0.6461E-01  -0.6282E-01  -0.1499E-02
     ZYZ         -0.2263E-02  -0.2790E-05  -0.2713E-05  -0.6472E-07
     ZZX          0.8651E-04   0.1067E-06   0.1037E-06   0.2474E-08
     ZZY         -0.1294E-04  -0.1595E-07  -0.1551E-07  -0.3701E-09
     ZZZ         -0.2206E-02  -0.2720E-05  -0.2645E-05  -0.6311E-07
 *******************************************************************************
 CHI(2) = BETA*2PI/V

 BETA AND CHI(2) IN A.U.:    [BETA] = M**(-1/2) L**(7/2) T
                             [CHI(2)] = 1/F
                             (L=LENGTH, M=MASS, T=TIME, F=FIELD INTENSITY)

 ELECTRIC SUSCEPTIBILITY IN THE SECOND HARMONIC GENERATION (SHG) CONVENTION IS:
                   d(A.U.)= 1/2 CHI(2)
                   d(MKS) = d(A.U.)/0.514220632 pm/V
                   d(CGS) = d(A.U.)/(4PI*1.7152535)  10**(-7) esu

 FIELD INTENSITY: 1 A.U. = 0.514220632*10**(11) V/m = 1.7152535*10**7 esu
 BEWARE:                CHI(2)=P/(E0*F**2)   (MKS)
                        CHI(2)=P/F**2        (CGS)
 WHERE P IS THE POLARIZATION VECTOR AND F IS THE APPLIED ELECTRIC FIELD.
 CONSISTENCY IS  PRESERVED BY MULTIPLYING THE CGS VALUE TIMES THE PERMITTIVITY
 OF THE VACUUM, E0 (CONVERSION FACTORS FROM www.physics.nist.gov/constants).
 IN PARENTHESIS: BETA BEFORE SYMMETRIZATION.

  SHG Effect beta(-2omega;omega,omega) with omega=   1.1653 eV


 SIZE OF GRID=    1870378
 TTTTTTTTTTTTTTTTTTTTTTTTTTTTTT MAKE_GRID2  TELAPSE   193550.59 TCPU   192489.25
 BECKE WEIGHT FUNCTION
 RADSAFE =     2.00
 TOLERANCES - DENSITY:10**- 6; POTENTIAL:10**- 9; GRID WGT:10**-14

 RADIAL INTEGRATION  - INTERVALS (POINTS,UPPER LIMIT):            1( 75,  4.0*R)

 ANGULAR INTEGRATION - INTERVALS (ACCURACY LEVEL [N. POINTS] UPPER LIMIT):
  1(  4[  86]   0.2)  2(  8[ 194]   0.5)  3( 12[ 350]   0.9)  4( 16[ 974]   3.5)
  5( 12[ 350]9999.0)

 SIZE OF GRID=    1870378
 TTTTTTTTTTTTTTTTTTTTTTTTTTTTTT MAKE_GRID2  TELAPSE   193553.31 TCPU   192491.97
 BECKE WEIGHT FUNCTION
 RADSAFE =     2.00
 TOLERANCES - DENSITY:10**- 6; POTENTIAL:10**- 9; GRID WGT:10**-14

 RADIAL INTEGRATION  - INTERVALS (POINTS,UPPER LIMIT):            1( 75,  4.0*R)

 ANGULAR INTEGRATION - INTERVALS (ACCURACY LEVEL [N. POINTS] UPPER LIMIT):
  1(  4[  86]   0.2)  2(  8[ 194]   0.5)  3( 12[ 350]   0.9)  4( 16[ 974]   3.5)
  5( 12[ 350]9999.0)
 *******************************************************************************

 SECOND HARMONIC GENERATION (SHG)  AND SECOND ELECTRIC SUSCEPTIBILITY (CHI(2))
 TENSORS (INDEPENDENT COMPONENTS)

BETA                                         CHI(2)       d(MKS)       d(cgs)
 *******************************************************************************

     XXX          0.1318E-01   0.1625E-04   0.1580E-04   0.3770E-06
     XXY         -0.2809E-02  -0.3464E-05  -0.3368E-05  -0.8034E-07
     XXZ          0.1218E+03   0.1502E+00   0.1461E+00   0.3485E-02
     XYX         -0.2809E-02  -0.3464E-05  -0.3368E-05  -0.8034E-07
     XYY          0.4714E-02   0.5813E-05   0.5652E-05   0.1348E-06
     XYZ         -0.6376E+03  -0.7862E+00  -0.7644E+00  -0.1824E-01
     XZX          0.1218E+03   0.1502E+00   0.1461E+00   0.3485E-02
     XZY         -0.6376E+03  -0.7862E+00  -0.7644E+00  -0.1824E-01
     XZZ          0.5192E-02   0.6403E-05   0.6225E-05   0.1485E-06
     YXX         -0.2253E-02  -0.2778E-05  -0.2701E-05  -0.6443E-07
     YXY          0.4911E-02   0.6055E-05   0.5888E-05   0.1405E-06
     YXZ         -0.6376E+03  -0.7861E+00  -0.7644E+00  -0.1824E-01
     YYX          0.4911E-02   0.6055E-05   0.5888E-05   0.1405E-06
     YYY         -0.7050E-02  -0.8692E-05  -0.8452E-05  -0.2016E-06
     YYZ         -0.1218E+03  -0.1502E+00  -0.1460E+00  -0.3484E-02
     YZX         -0.6376E+03  -0.7861E+00  -0.7644E+00  -0.1824E-01
     YZY         -0.1218E+03  -0.1502E+00  -0.1460E+00  -0.3484E-02
     YZZ         -0.2596E-02  -0.3201E-05  -0.3113E-05  -0.7426E-07
     ZXX          0.1264E+03   0.1559E+00   0.1516E+00   0.3617E-02
     ZXY         -0.5798E+03  -0.7150E+00  -0.6952E+00  -0.1659E-01
     ZXZ          0.4655E-02   0.5740E-05   0.5582E-05   0.1332E-06
     ZYX         -0.5798E+03  -0.7150E+00  -0.6952E+00  -0.1659E-01
     ZYY         -0.1264E+03  -0.1558E+00  -0.1515E+00  -0.3615E-02
     ZYZ         -0.2417E-02  -0.2980E-05  -0.2898E-05  -0.6913E-07
     ZZX          0.4655E-02   0.5740E-05   0.5582E-05   0.1332E-06
     ZZY         -0.2417E-02  -0.2980E-05  -0.2898E-05  -0.6913E-07
     ZZZ         -0.2813E-02  -0.3469E-05  -0.3373E-05  -0.8046E-07
 *******************************************************************************
 CHI(2) = BETA*2PI/V

 BETA AND CHI(2) IN A.U.:    [BETA] = M**(-1/2) L**(7/2) T
                             [CHI(2)] = 1/F
                             (L=LENGTH, M=MASS, T=TIME, F=FIELD INTENSITY)

 ELECTRIC SUSCEPTIBILITY IN THE SECOND HARMONIC GENERATION (SHG) CONVENTION IS:
                   d(A.U.)= 1/2 CHI(2)
                   d(MKS) = d(A.U.)/0.514220632 pm/V
                   d(CGS) = d(A.U.)/(4PI*1.7152535)  10**(-7) esu

 FIELD INTENSITY: 1 A.U. = 0.514220632*10**(11) V/m = 1.7152535*10**7 esu
 BEWARE:                CHI(2)=P/(E0*F**2)   (MKS)
                        CHI(2)=P/F**2        (CGS)
 WHERE P IS THE POLARIZATION VECTOR AND F IS THE APPLIED ELECTRIC FIELD.
 CONSISTENCY IS  PRESERVED BY MULTIPLYING THE CGS VALUE TIMES THE PERMITTIVITY
 OF THE VACUUM, E0 (CONVERSION FACTORS FROM www.physics.nist.gov/constants).
 IN PARENTHESIS: BETA BEFORE SYMMETRIZATION.

 *******************************************************************************


 GCALCO - MAX INDICES DIRECT LATTICE VECTOR    14    14    16
 NO.OF VECTORS CREATED 6999 STARS  487 RMAX   204.89584 BOHR

 CAPPA:IS1  3;IS2  3;IS3  3; K PTS MONK NET   6; SYMMOPS:K SPACE   8;G SPACE   4

 TTTTTTTTTTTTTTTTTTTTTTTTTTTTTT END         TELAPSE   193553.68 TCPU   192492.33
 EEEEEEEEEE TERMINATION  DATE 13 12 2023 TIME 02:08:30.8
NODE    0 CPU TIME =    192492.331
NODE    1 CPU TIME =    192771.033
NODE    2 CPU TIME =    192084.250
NODE    3 CPU TIME =    192041.221
NODE    4 CPU TIME =    192577.666
NODE    5 CPU TIME =    192796.421
NODE    6 CPU TIME =    192083.584
NODE    7 CPU TIME =    192045.292
NODE    8 CPU TIME =    192573.937
NODE    9 CPU TIME =    192784.067
NODE   10 CPU TIME =    191932.112
NODE   11 CPU TIME =    191881.690
NODE   12 CPU TIME =    192460.344
NODE   13 CPU TIME =    192657.461
NODE   14 CPU TIME =    191961.409
NODE   15 CPU TIME =    191904.033
NODE   16 CPU TIME =    192454.933
NODE   17 CPU TIME =    192648.725
NODE   18 CPU TIME =    191915.570
NODE   19 CPU TIME =    191886.513
NODE   20 CPU TIME =    192470.627
NODE   21 CPU TIME =    192626.664
NODE   22 CPU TIME =    191940.824
NODE   23 CPU TIME =    191899.358
    TOTAL CPU TIME =   4614890.064
trying normal rsh (/usr/bin/rsh)
exec: No such file or directory
trying normal rsh (/usr/bin/rsh)
exec: No such file or directory
trying normal rsh (/usr/bin/rsh)
exec: No such file or directory
trying normal rsh (/usr/bin/rsh)
exec: No such file or directory
