Loading crystal17/1.0.2/intel/19.0
  Loading requirement: intel/19.0 ompi/4.0.1/intel/19.0
 PROCESS            1  OF           24  WORKING
 PROCESS            5  OF           24  WORKING
 PROCESS           13  OF           24  WORKING
 PROCESS           21  OF           24  WORKING
 PROCESS            0  OF           24  WORKING
 PROCESS            4  OF           24  WORKING
 PROCESS            9  OF           24  WORKING
 PROCESS           12  OF           24  WORKING
 PROCESS           16  OF           24  WORKING
 PROCESS           18  OF           24  WORKING
 PROCESS           20  OF           24  WORKING
 PROCESS           23  OF           24  WORKING
 PROCESS            2  OF           24  WORKING
 PROCESS            3  OF           24  WORKING
 PROCESS            6  OF           24  WORKING
 PROCESS            7  OF           24  WORKING
 PROCESS            8  OF           24  WORKING
 PROCESS           10  OF           24  WORKING
 PROCESS           11  OF           24  WORKING
 PROCESS           14  OF           24  WORKING
 PROCESS           15  OF           24  WORKING
 PROCESS           17  OF           24  WORKING
 PROCESS           19  OF           24  WORKING
 PROCESS           22  OF           24  WORKING

         
 *******************************************************************************
 *                                                                             *
 *                               CRYSTAL17                                     *
 *                      public : 1.0.2 - March 1st, 2018                       *
 *                       HTTP://WWW.CRYSTAL.UNITO.IT                           *
 *                                                                             *
 *                              MAIN AUTHORS                                   *
 *                                                                             *
 *  R. DOVESI(1,11), V.R. SAUNDERS(2), C. ROETTI(1,11), R. ORLANDO(1,11),      *
 *  C.M. ZICOVICH-WILSON(1,3), F. PASCALE(4), B. CIVALLERI(1,11),              *
 *  K. DOLL(5), N.M. HARRISON(2,6), I.J. BUSH(7), Ph. D'ARCO(8),               *
 *  M. LLUNELL(9), M. CAUSA'(10), Y. NOEL(8), L. MASCHIO(1,11), A. ERBA(1,11)  *
 *  M. RE'RAT(14), S. CASASSA(1,11)                                            *
 *                                                                             *
 *        CONTRIBUTIONS TO THE CODE HAVE ALSO BEEN GIVEN BY                    *
 *                                                                             *
 *  M. FERRABONE(1,11), M. DE LA PIERRE(1,11), M. FERRERO(1,11),               *
 *  J. BAIMA(1,11), E. ALBANESE(1,11), M.F. PEINTINGER(12), R. BAST(13),       *
 *  B. KIRTMAN(15), V. LACIVITA(1,11), R. DEMICHELIS(1,16)                     *
 *  G. BRANDEBURG(17), S. SALUSTRO(1,11), G. SANSONE(1,11)                     *
 *  M.T. RUGGIERO(18)                                                          *
 *                                                                             *
 * (1) THEORETICAL CHEMISTRY GROUP - UNIVERSITA' DI TORINO - TORINO (ITALY)    *
 * (2) COMPUTATIONAL SCIENCE & ENGINEERING DEPARTMENT - STFC DARESBURY (UK)    *
 * (3) UNIVERSIDAD AUTONOMA DEL ESTADO DE MORELOS - CUERNAVACA (MEXICO)        *
 * (4) UNIVERSITE' DE LORRAINE - NANCY (FRANCE)                                *
 * (5) UNIVERSITAET STUTTGART- STUTTGART (GERMANY)                             *
 * (6) IMPERIAL COLLEGE - LONDON (UK)                                          *
 * (7) OXFORD E-RESEARCH CENTRE - OXFORD (UK)                                  *
 * (8) UPMC - SORBONNE UNIVERSITES - PARIS (FRANCE)                            *
 * (9) UNIVERSIDAD DE BARCELONA - BARCELONA (SPAIN)                            *
 *(10) UNIVERSITA' DI NAPOLI "FEDERICO II" - NAPOLI (ITALY)                    *
 *(11) NIS - NANOSTRUCTURED INTERFACES AND SURFACES - TORINO (ITALY)           *
 *(12) MPI FUER CHEMISCHE ENERGIEKONVERSION - MUELHEIM AN DER RUHR (GERMANY)   *
 *(13) UNIVERSITY OF TROMSO - TROMSO (NORWAY)                                  *
 *(14) UNIVERSITE' DE PAU ET DES PAYS DE L'ADOUR - PAU (FRANCE)                *
 *(15) UNIVERSITY OF CALIFORNIA SANTA BARBARA - SANTA BARBARA (USA)            *
 *(16) CURTIN UNIVERSITY - PERTH (AUSTRALIA)                                   *
 *(17) UNIVERSITY COLLEGE LONDON - LONDON (UK)                                 *
 *(18) CAMBRIDGE UNIVERSITY - CAMBRIDGE (UK)                                   *
 *                                                                             *
 *******************************************************************************
 EEEEEEEEEE STARTING  DATE 11 12 2023 TIME 05:19:17.7
 Z:\home\sanoj\Downloads\tmp_p\newconn.mol                                       

 CRYSTAL CALCULATION
 (INPUT ACCORDING TO THE INTERNATIONAL TABLES FOR X-RAY CRYSTALLOGRAPHY)
 CRYSTAL FAMILY                       :  TETRAGONAL  
 CRYSTAL CLASS  (GROTH - 1921)        :  TETRAGONAL DISPHENOIDAL              

 SPACE GROUP (NONCENTROSYMMETRIC)     :  I -4            

 LATTICE PARAMETERS  (ANGSTROMS AND DEGREES) - CONVENTIONAL CELL
        A           B           C        ALPHA        BETA       GAMMA
    10.63546    10.63546    14.04419    90.00000    90.00000    90.00000


 NUMBER OF IRREDUCIBLE ATOMS IN THE CONVENTIONAL CELL:   17

 INPUT COORDINATES

 ATOM AT. N.              COORDINATES
   1   1     8.260000000000E-02  7.153200000000E-01  3.532300000000E-01
   2   1     3.842800000000E-01  4.429100000000E-01  3.876900000000E-01
   3   6     2.688700000000E-01  7.878200000000E-01  3.848900000000E-01
   4   6     2.418400000000E-01 -7.802000000000E-02  3.693800000000E-01
   5   6     1.804500000000E-01  6.915500000000E-01  3.679800000000E-01
   6   6     3.484400000000E-01  5.391600000000E-01  3.872400000000E-01
   7   6     3.923600000000E-01  7.484600000000E-01  4.058200000000E-01
   8   6     7.769000000000E-01  4.333300000000E-01  3.674300000000E-01
   9   7     3.112000000000E-01 -3.690000000000E-03  3.099500000000E-01
  10   7     2.535700000000E-01  1.119800000000E-01  3.090500000000E-01
  11   7     1.452600000000E-01 -9.430000000000E-03  4.054000000000E-01
  12   7     1.546000000000E-01  1.092300000000E-01  3.654900000000E-01
  13   7     4.306300000000E-01  6.304200000000E-01  4.079300000000E-01
  14  17     5.094800000000E-01  8.581300000000E-01  4.282200000000E-01
  15  17     1.328600000000E-01  4.344700000000E-01  3.427900000000E-01
  16  30     0.000000000000E+00  5.000000000000E-01  7.500000000000E-01
  17  30     0.000000000000E+00  0.000000000000E+00  5.000000000000E-01

 *******************************************************************************

 << INFORMATION >>: FROM NOW ON, ALL COORDINATES REFER TO THE PRIMITIVE CELL

 *******************************************************************************

 LATTICE PARAMETERS  (ANGSTROMS AND DEGREES) - PRIMITIVE CELL
       A          B          C        ALPHA      BETA     GAMMA        VOLUME
   10.28914   10.28914   10.28914   117.76036 117.76036  93.92502    794.289899

 COORDINATES OF THE EQUIVALENT ATOMS (FRACTIONAL UNITS)

 N. ATOM EQUIV AT. N.          X                  Y                  Z

   1   1   1    1 H     6.85500000000E-02  4.35830000000E-01 -2.02080000000E-01
   2   1   2    1 H    -3.62090000000E-01  2.70630000000E-01  2.02080000000E-01
   3   1   3    1 H    -4.35830000000E-01  3.62090000000E-01 -3.67280000000E-01
   4   1   4    1 H    -2.70630000000E-01 -6.85500000000E-02  3.67280000000E-01

   5   2   1    1 H    -1.69400000000E-01 -2.28030000000E-01 -1.72810000000E-01
   6   2   2    1 H    -5.52200000000E-02  3.41000000000E-03  1.72810000000E-01
   7   2   3    1 H     2.28030000000E-01  5.52200000000E-02  5.86300000000E-02
   8   2   4    1 H    -3.41000000000E-03  1.69400000000E-01 -5.86300000000E-02

   9   3   1    6 C     1.72710000000E-01 -3.46240000000E-01  5.66900000000E-02
  10   3   2    6 C    -4.02930000000E-01  1.16020000000E-01 -5.66900000000E-02
  11   3   3    6 C     3.46240000000E-01  4.02930000000E-01 -4.81050000000E-01
  12   3   4    6 C    -1.16020000000E-01 -1.72710000000E-01  4.81050000000E-01

  13   4   1    6 C     2.91360000000E-01 -3.88780000000E-01  1.63820000000E-01
  14   4   2    6 C     4.47400000000E-01  1.27540000000E-01 -1.63820000000E-01
  15   4   3    6 C     3.88780000000E-01 -4.47400000000E-01 -3.19860000000E-01
  16   4   4    6 C    -1.27540000000E-01 -2.91360000000E-01  3.19860000000E-01

  17   5   1    6 C     5.95300000000E-02 -4.51570000000E-01 -1.28000000000E-01
  18   5   2    6 C    -3.23570000000E-01  1.87530000000E-01  1.28000000000E-01
  19   5   3    6 C     4.51570000000E-01  3.23570000000E-01 -4.88900000000E-01
  20   5   4    6 C    -1.87530000000E-01 -5.95300000000E-02  4.88900000000E-01

  21   6   1    6 C    -7.36000000000E-02 -2.64320000000E-01 -1.12400000000E-01
  22   6   2    6 C    -1.51920000000E-01  3.88000000000E-02  1.12400000000E-01
  23   6   3    6 C     2.64320000000E-01  1.51920000000E-01  1.90720000000E-01
  24   6   4    6 C    -3.88000000000E-02  7.36000000000E-02 -1.90720000000E-01

  25   7   1    6 C     1.54280000000E-01 -2.01820000000E-01  1.40820000000E-01
  26   7   2    6 C    -3.42640000000E-01  1.34600000000E-02 -1.40820000000E-01
  27   7   3    6 C     2.01820000000E-01  3.42640000000E-01  3.56100000000E-01
  28   7   4    6 C    -1.34600000000E-02 -1.54280000000E-01 -3.56100000000E-01

  29   8   1    6 C    -1.99240000000E-01  1.44330000000E-01  2.10230000000E-01
  30   8   2    6 C    -6.59000000000E-02 -4.09470000000E-01 -2.10230000000E-01
  31   8   3    6 C    -1.44330000000E-01  6.59000000000E-02 -3.43570000000E-01
  32   8   4    6 C     4.09470000000E-01  1.99240000000E-01  3.43570000000E-01

  33   9   1    7 N     3.06260000000E-01 -3.78850000000E-01  3.07510000000E-01
  34   9   2    7 N     3.13640000000E-01 -1.25000000000E-03 -3.07510000000E-01
  35   9   3    7 N     3.78850000000E-01 -3.13640000000E-01 -3.14890000000E-01
  36   9   4    7 N     1.25000000000E-03 -3.06260000000E-01  3.14890000000E-01

  37  10   1    7 N     4.21030000000E-01 -4.37380000000E-01  3.65550000000E-01
  38  10   2    7 N     1.97070000000E-01  5.54800000000E-02 -3.65550000000E-01
  39  10   3    7 N     4.37380000000E-01 -1.97070000000E-01 -1.41590000000E-01
  40  10   4    7 N    -5.54800000000E-02 -4.21030000000E-01  1.41590000000E-01

  41  11   1    7 N     3.95970000000E-01 -4.49340000000E-01  1.35830000000E-01
  42  11   2    7 N     4.14830000000E-01  2.60140000000E-01 -1.35830000000E-01
  43  11   3    7 N     4.49340000000E-01 -4.14830000000E-01 -1.54690000000E-01
  44  11   4    7 N    -2.60140000000E-01 -3.95970000000E-01  1.54690000000E-01

  45  12   1    7 N     4.74720000000E-01 -4.79910000000E-01  2.63830000000E-01
  46  12   2    7 N     2.56260000000E-01  2.10890000000E-01 -2.63830000000E-01
  47  12   3    7 N     4.79910000000E-01 -2.56260000000E-01 -4.53700000000E-02
  48  12   4    7 N    -2.10890000000E-01 -4.74720000000E-01  4.53700000000E-02

  49  13   1    7 N     3.83500000000E-02 -1.61440000000E-01  6.10500000000E-02
  50  13   2    7 N    -2.22490000000E-01 -2.27000000000E-02 -6.10500000000E-02
  51  13   3    7 N     1.61440000000E-01  2.22490000000E-01  1.99790000000E-01
  52  13   4    7 N     2.27000000000E-02 -3.83500000000E-02 -1.99790000000E-01

  53  14   1   17 CL    2.86350000000E-01 -6.23000000000E-02  3.67610000000E-01
  54  14   2   17 CL   -4.29910000000E-01 -8.12600000000E-02 -3.67610000000E-01
  55  14   3   17 CL    6.23000000000E-02  4.29910000000E-01  3.48650000000E-01
  56  14   4   17 CL    8.12600000000E-02 -2.86350000000E-01 -3.48650000000E-01

  57  15   1   17 CL   -2.22740000000E-01  4.75650000000E-01 -4.32670000000E-01
  58  15   2   17 CL   -9.16800000000E-02  2.09930000000E-01  4.32670000000E-01
  59  15   3   17 CL   -4.75650000000E-01  9.16800000000E-02  3.01610000000E-01
  60  15   4   17 CL   -2.09930000000E-01  2.22740000000E-01 -3.01610000000E-01

  61  16   1   30 ZN    2.50000000000E-01 -2.50000000000E-01 -5.00000000000E-01

  62  17   1   30 ZN   -5.00000000000E-01 -5.00000000000E-01  0.00000000000E+00

 NUMBER OF SYMMETRY OPERATORS         :    4
 *******************************************************************************
 * GEOMETRY EDITING - INPUT COORDINATES ARE GIVEN IN ANGSTROM         
 *******************************************************************************

 GEOMETRY NOW FULLY CONSISTENT WITH THE GROUP

 GCALCO - MAX INDICES DIRECT LATTICE VECTOR    14    14    16
 NO.OF VECTORS CREATED 6999 STARS  481 RMAX   207.87203 BOHR

 GEOMETRY FOR WAVE FUNCTION - DIMENSIONALITY OF THE SYSTEM    3
 (NON PERIODIC DIRECTION: LATTICE PARAMETER FORMALLY SET TO 500)
 *******************************************************************************
 LATTICE PARAMETERS (ANGSTROMS AND DEGREES) - BOHR = 0.5291772083 ANGSTROM
 PRIMITIVE CELL - CENTRING CODE 6/0 VOLUME=   794.289899 - DENSITY  2.057 g/cm^3
         A              B              C           ALPHA      BETA       GAMMA 
    10.28913501    10.28913501    10.28913501   117.760362 117.760362  93.925015
 *******************************************************************************
 ATOMS IN THE ASYMMETRIC UNIT   17 - ATOMS IN THE UNIT CELL:   62
     ATOM                 X/A                 Y/B                 Z/C    
 *******************************************************************************
      1 T   1 H     6.855000000000E-02  4.358300000000E-01 -2.020800000000E-01
      2 F   1 H    -3.620900000000E-01  2.706300000000E-01  2.020800000000E-01
      3 F   1 H    -4.358300000000E-01  3.620900000000E-01 -3.672800000000E-01
      4 F   1 H    -2.706300000000E-01 -6.855000000000E-02  3.672800000000E-01
      5 T   1 H    -1.694000000000E-01 -2.280300000000E-01 -1.728100000000E-01
      6 F   1 H    -5.522000000000E-02  3.410000000000E-03  1.728100000000E-01
      7 F   1 H     2.280300000000E-01  5.522000000000E-02  5.863000000000E-02
      8 F   1 H    -3.410000000000E-03  1.694000000000E-01 -5.863000000000E-02
      9 T   6 C     1.727100000000E-01 -3.462400000000E-01  5.669000000000E-02
     10 F   6 C    -4.029300000000E-01  1.160200000000E-01 -5.669000000000E-02
     11 F   6 C     3.462400000000E-01  4.029300000000E-01 -4.810500000000E-01
     12 F   6 C    -1.160200000000E-01 -1.727100000000E-01  4.810500000000E-01
     13 T   6 C     2.913600000000E-01 -3.887800000000E-01  1.638200000000E-01
     14 F   6 C     4.474000000000E-01  1.275400000000E-01 -1.638200000000E-01
     15 F   6 C     3.887800000000E-01 -4.474000000000E-01 -3.198600000000E-01
     16 F   6 C    -1.275400000000E-01 -2.913600000000E-01  3.198600000000E-01
     17 T   6 C     5.953000000000E-02 -4.515700000000E-01 -1.280000000000E-01
     18 F   6 C    -3.235700000000E-01  1.875300000000E-01  1.280000000000E-01
     19 F   6 C     4.515700000000E-01  3.235700000000E-01 -4.889000000000E-01
     20 F   6 C    -1.875300000000E-01 -5.953000000000E-02  4.889000000000E-01
     21 T   6 C    -7.360000000000E-02 -2.643200000000E-01 -1.124000000000E-01
     22 F   6 C    -1.519200000000E-01  3.880000000000E-02  1.124000000000E-01
     23 F   6 C     2.643200000000E-01  1.519200000000E-01  1.907200000000E-01
     24 F   6 C    -3.880000000000E-02  7.360000000000E-02 -1.907200000000E-01
     25 T   6 C     1.542800000000E-01 -2.018200000000E-01  1.408200000000E-01
     26 F   6 C    -3.426400000000E-01  1.346000000000E-02 -1.408200000000E-01
     27 F   6 C     2.018200000000E-01  3.426400000000E-01  3.561000000000E-01
     28 F   6 C    -1.346000000000E-02 -1.542800000000E-01 -3.561000000000E-01
     29 T   6 C    -1.992400000000E-01  1.443300000000E-01  2.102300000000E-01
     30 F   6 C    -6.590000000000E-02 -4.094700000000E-01 -2.102300000000E-01
     31 F   6 C    -1.443300000000E-01  6.590000000000E-02 -3.435700000000E-01
     32 F   6 C     4.094700000000E-01  1.992400000000E-01  3.435700000000E-01
     33 T   7 N     3.062600000000E-01 -3.788500000000E-01  3.075100000000E-01
     34 F   7 N     3.136400000000E-01 -1.250000000000E-03 -3.075100000000E-01
     35 F   7 N     3.788500000000E-01 -3.136400000000E-01 -3.148900000000E-01
     36 F   7 N     1.250000000000E-03 -3.062600000000E-01  3.148900000000E-01
     37 T   7 N     4.210300000000E-01 -4.373800000000E-01  3.655500000000E-01
     38 F   7 N     1.970700000000E-01  5.548000000000E-02 -3.655500000000E-01
     39 F   7 N     4.373800000000E-01 -1.970700000000E-01 -1.415900000000E-01
     40 F   7 N    -5.548000000000E-02 -4.210300000000E-01  1.415900000000E-01
     41 T   7 N     3.959700000000E-01 -4.493400000000E-01  1.358300000000E-01
     42 F   7 N     4.148300000000E-01  2.601400000000E-01 -1.358300000000E-01
     43 F   7 N     4.493400000000E-01 -4.148300000000E-01 -1.546900000000E-01
     44 F   7 N    -2.601400000000E-01 -3.959700000000E-01  1.546900000000E-01
     45 T   7 N     4.747200000000E-01 -4.799100000000E-01  2.638300000000E-01
     46 F   7 N     2.562600000000E-01  2.108900000000E-01 -2.638300000000E-01
     47 F   7 N     4.799100000000E-01 -2.562600000000E-01 -4.537000000000E-02
     48 F   7 N    -2.108900000000E-01 -4.747200000000E-01  4.537000000000E-02
     49 T   7 N     3.835000000000E-02 -1.614400000000E-01  6.105000000000E-02
     50 F   7 N    -2.224900000000E-01 -2.270000000000E-02 -6.105000000000E-02
     51 F   7 N     1.614400000000E-01  2.224900000000E-01  1.997900000000E-01
     52 F   7 N     2.270000000000E-02 -3.835000000000E-02 -1.997900000000E-01
     53 T  17 CL    2.863500000000E-01 -6.230000000000E-02  3.676100000000E-01
     54 F  17 CL   -4.299100000000E-01 -8.126000000000E-02 -3.676100000000E-01
     55 F  17 CL    6.230000000000E-02  4.299100000000E-01  3.486500000000E-01
     56 F  17 CL    8.126000000000E-02 -2.863500000000E-01 -3.486500000000E-01
     57 T  17 CL   -2.227400000000E-01  4.756500000000E-01 -4.326700000000E-01
     58 F  17 CL   -9.168000000000E-02  2.099300000000E-01  4.326700000000E-01
     59 F  17 CL   -4.756500000000E-01  9.168000000000E-02  3.016100000000E-01
     60 F  17 CL   -2.099300000000E-01  2.227400000000E-01 -3.016100000000E-01
     61 T  30 ZN    2.500000000000E-01 -2.500000000000E-01 -5.000000000000E-01
     62 T  30 ZN    5.000000000000E-01 -5.000000000000E-01  0.000000000000E+00

 TRANSFORMATION MATRIX PRIMITIVE-CRYSTALLOGRAPHIC CELL
  0.0000  1.0000  1.0000  1.0000  0.0000  1.0000  1.0000  1.0000  0.0000

 *******************************************************************************
 CRYSTALLOGRAPHIC CELL (VOLUME=       1588.57979811)
         A              B              C           ALPHA      BETA       GAMMA 
    10.63545672    10.63545672    14.04419162    90.000000  90.000000  90.000000

 COORDINATES IN THE CRYSTALLOGRAPHIC CELL
     ATOM                 X/A                 Y/B                 Z/C    
 *******************************************************************************
      1 T   1 H    -4.174000000000E-01  2.153200000000E-01 -1.467700000000E-01
      2 F   1 H     4.174000000000E-01 -2.153200000000E-01 -1.467700000000E-01
      3 F   1 H     2.153200000000E-01  4.174000000000E-01  1.467700000000E-01
      4 F   1 H    -2.153200000000E-01 -4.174000000000E-01  1.467700000000E-01
      5 T   1 H    -1.157200000000E-01 -5.709000000000E-02 -1.123100000000E-01
      6 F   1 H     1.157200000000E-01  5.709000000000E-02 -1.123100000000E-01
      7 F   1 H    -5.709000000000E-02  1.157200000000E-01  1.123100000000E-01
      8 F   1 H     5.709000000000E-02 -1.157200000000E-01  1.123100000000E-01
      9 T   6 C    -2.311300000000E-01  2.878200000000E-01 -1.151100000000E-01
     10 F   6 C     2.311300000000E-01 -2.878200000000E-01 -1.151100000000E-01
     11 F   6 C     2.878200000000E-01  2.311300000000E-01  1.151100000000E-01
     12 F   6 C    -2.878200000000E-01 -2.311300000000E-01  1.151100000000E-01
     13 T   6 C    -2.581600000000E-01  4.219800000000E-01 -1.306200000000E-01
     14 F   6 C     2.581600000000E-01 -4.219800000000E-01 -1.306200000000E-01
     15 F   6 C     4.219800000000E-01  2.581600000000E-01  1.306200000000E-01
     16 F   6 C    -4.219800000000E-01 -2.581600000000E-01  1.306200000000E-01
     17 T   6 C    -3.195500000000E-01  1.915500000000E-01 -1.320200000000E-01
     18 F   6 C     3.195500000000E-01 -1.915500000000E-01 -1.320200000000E-01
     19 F   6 C     1.915500000000E-01  3.195500000000E-01  1.320200000000E-01
     20 F   6 C    -1.915500000000E-01 -3.195500000000E-01  1.320200000000E-01
     21 T   6 C    -1.515600000000E-01  3.916000000000E-02 -1.127600000000E-01
     22 F   6 C     1.515600000000E-01 -3.916000000000E-02 -1.127600000000E-01
     23 F   6 C     3.916000000000E-02  1.515600000000E-01  1.127600000000E-01
     24 F   6 C    -3.916000000000E-02 -1.515600000000E-01  1.127600000000E-01
     25 T   6 C    -1.076400000000E-01  2.484600000000E-01 -9.418000000000E-02
     26 F   6 C     1.076400000000E-01 -2.484600000000E-01 -9.418000000000E-02
     27 F   6 C     2.484600000000E-01  1.076400000000E-01  9.418000000000E-02
     28 F   6 C    -2.484600000000E-01 -1.076400000000E-01  9.418000000000E-02
     29 T   6 C     2.769000000000E-01 -6.667000000000E-02 -1.325700000000E-01
     30 F   6 C    -2.769000000000E-01  6.667000000000E-02 -1.325700000000E-01
     31 F   6 C    -6.667000000000E-02 -2.769000000000E-01  1.325700000000E-01
     32 F   6 C     6.667000000000E-02  2.769000000000E-01  1.325700000000E-01
     33 T   7 N     3.112000000000E-01 -3.690000000000E-03  3.099500000000E-01
     34 F   7 N    -3.112000000000E-01  3.690000000000E-03  3.099500000000E-01
     35 F   7 N    -3.690000000000E-03 -3.112000000000E-01 -3.099500000000E-01
     36 F   7 N     3.690000000000E-03  3.112000000000E-01 -3.099500000000E-01
     37 T   7 N     2.535700000000E-01  1.119800000000E-01  3.090500000000E-01
     38 F   7 N    -2.535700000000E-01 -1.119800000000E-01  3.090500000000E-01
     39 F   7 N     1.119800000000E-01 -2.535700000000E-01 -3.090500000000E-01
     40 F   7 N    -1.119800000000E-01  2.535700000000E-01 -3.090500000000E-01
     41 T   7 N     1.452600000000E-01 -9.430000000000E-03  4.054000000000E-01
     42 F   7 N    -1.452600000000E-01  9.430000000000E-03  4.054000000000E-01
     43 F   7 N    -9.430000000000E-03 -1.452600000000E-01 -4.054000000000E-01
     44 F   7 N     9.430000000000E-03  1.452600000000E-01 -4.054000000000E-01
     45 T   7 N     1.546000000000E-01  1.092300000000E-01  3.654900000000E-01
     46 F   7 N    -1.546000000000E-01 -1.092300000000E-01  3.654900000000E-01
     47 F   7 N     1.092300000000E-01 -1.546000000000E-01 -3.654900000000E-01
     48 F   7 N    -1.092300000000E-01  1.546000000000E-01 -3.654900000000E-01
     49 T   7 N    -6.937000000000E-02  1.304200000000E-01 -9.207000000000E-02
     50 F   7 N     6.937000000000E-02 -1.304200000000E-01 -9.207000000000E-02
     51 F   7 N     1.304200000000E-01  6.937000000000E-02  9.207000000000E-02
     52 F   7 N    -1.304200000000E-01 -6.937000000000E-02  9.207000000000E-02
     53 T  17 CL    9.480000000000E-03  3.581300000000E-01 -7.178000000000E-02
     54 F  17 CL   -9.480000000000E-03 -3.581300000000E-01 -7.178000000000E-02
     55 F  17 CL    3.581300000000E-01 -9.480000000000E-03  7.178000000000E-02
     56 F  17 CL   -3.581300000000E-01  9.480000000000E-03  7.178000000000E-02
     57 T  17 CL   -3.671400000000E-01 -6.553000000000E-02 -1.572100000000E-01
     58 F  17 CL    3.671400000000E-01  6.553000000000E-02 -1.572100000000E-01
     59 F  17 CL   -6.553000000000E-02  3.671400000000E-01  1.572100000000E-01
     60 F  17 CL    6.553000000000E-02 -3.671400000000E-01  1.572100000000E-01
     61 T  30 ZN    5.000000000000E-01  4.419215733230E-17  2.500000000000E-01
     62 T  30 ZN    0.000000000000E+00  0.000000000000E+00 -5.000000000000E-01

 T = ATOM BELONGING TO THE ASYMMETRIC UNIT

 ****    4 SYMMOPS - TRANSLATORS IN FRACTIONAL UNITS
 **** MATRICES AND TRANSLATORS IN THE CRYSTALLOGRAPHIC REFERENCE FRAME
   V INV                    ROTATION MATRICES                   TRANSLATORS
   1   1  1.00  0.00  0.00  0.00  1.00  0.00  0.00  0.00  1.00  0.00  0.00  0.00
   2   2 -0.00  1.00 -1.00  1.00 -0.00 -1.00  0.00  0.00 -1.00  0.00  0.00  0.00
   3   4  0.00 -1.00 -0.00  0.00 -1.00  1.00  1.00 -1.00  0.00  0.00  0.00  0.00
   4   3 -1.00  0.00  1.00 -1.00  0.00 -0.00 -1.00  1.00  0.00  0.00  0.00  0.00

 DIRECT LATTICE VECTORS CARTESIAN COMPONENTS (ANGSTROM)
          X                    Y                    Z
  -0.531772835930E+01   0.531772835930E+01   0.702209580770E+01
   0.531772835930E+01  -0.531772835930E+01   0.702209580770E+01
   0.531772835930E+01   0.531772835930E+01  -0.702209580770E+01


 CARTESIAN COORDINATES - PRIMITIVE CELL
 *******************************************************************************
 *      ATOM          X(ANGSTROM)         Y(ANGSTROM)         Z(ANGSTROM)
 *******************************************************************************
    1     1 H    -4.439239634344E+00  2.290026540649E+00 -2.061266003392E+00
    2     1 H     4.439239634344E+00 -2.290026540649E+00 -2.061266003392E+00
    3     1 H     2.290026540649E+00  4.439239634344E+00  2.061266003392E+00
    4     1 H    -2.290026540649E+00 -4.439239634344E+00  2.061266003392E+00
    5     1 H    -1.230735051476E+00 -6.071782240649E-01 -1.577303160326E+00
    6     1 H     1.230735051476E+00  6.071782240649E-01 -1.577303160326E+00
    7     1 H    -6.071782240649E-01  1.230735051476E+00  1.577303160326E+00
    8     1 H     6.071782240649E-01 -1.230735051476E+00  1.577303160326E+00
    9     6 C    -2.458173111370E+00  3.061097152747E+00 -1.616626896849E+00
   10     6 C     2.458173111370E+00 -3.061097152747E+00 -1.616626896849E+00
   11     6 C     3.061097152747E+00  2.458173111370E+00  1.616626896849E+00
   12     6 C    -3.061097152747E+00 -2.458173111370E+00  1.616626896849E+00
   13     6 C    -2.745649506474E+00  4.487950026115E+00 -1.834452308804E+00
   14     6 C     2.745649506474E+00 -4.487950026115E+00 -1.834452308804E+00
   15     6 C     4.487950026115E+00  2.745649506474E+00  1.834452308804E+00
   16     6 C    -4.487950026115E+00 -2.745649506474E+00  1.834452308804E+00
   17     6 C    -3.398560194429E+00  2.037221734448E+00 -1.854114177065E+00
   18     6 C     3.398560194429E+00 -2.037221734448E+00 -1.854114177065E+00
   19     6 C     2.037221734448E+00  3.398560194429E+00  1.854114177065E+00
   20     6 C    -2.037221734448E+00 -3.398560194429E+00  1.854114177065E+00
   21     6 C    -1.611909820271E+00  4.164844851004E-01 -1.583623046553E+00
   22     6 C     1.611909820271E+00 -4.164844851004E-01 -1.583623046553E+00
   23     6 C     4.164844851004E-01  1.611909820271E+00  1.583623046553E+00
   24     6 C    -4.164844851004E-01 -1.611909820271E+00  1.583623046553E+00
   25     6 C    -1.144800561190E+00  2.642485576303E+00 -1.322681966338E+00
   26     6 C     1.144800561190E+00 -2.642485576303E+00 -1.322681966338E+00
   27     6 C     2.642485576303E+00  1.144800561190E+00  1.322681966338E+00
   28     6 C    -2.642485576303E+00 -1.144800561190E+00  1.322681966338E+00
   29     6 C     2.944957965380E+00 -7.090658994291E-01 -1.861838482454E+00
   30     6 C    -2.944957965380E+00  7.090658994291E-01 -1.861838482454E+00
   31     6 C    -7.090658994291E-01 -2.944957965380E+00  1.861838482454E+00
   32     6 C     7.090658994291E-01  2.944957965380E+00  1.861838482454E+00
   33     7 N     3.309754130828E+00 -3.924483529163E-02  4.352997191193E+00
   34     7 N    -3.309754130828E+00  3.924483529163E-02  4.352997191193E+00
   35     7 N    -3.924483529164E-02 -3.309754130828E+00 -4.352997191193E+00
   36     7 N     3.924483529163E-02  3.309754130828E+00 -4.352997191193E+00
   37     7 N     2.696832760135E+00  1.190958443349E+00  4.340357418739E+00
   38     7 N    -2.696832760135E+00 -1.190958443349E+00  4.340357418739E+00
   39     7 N     1.190958443349E+00 -2.696832760135E+00 -4.340357418739E+00
   40     7 N    -1.190958443349E+00  2.696832760135E+00 -4.340357418739E+00
   41     7 N     1.544906442944E+00 -1.002923568564E-01  5.693515280883E+00
   42     7 N    -1.544906442944E+00  1.002923568564E-01  5.693515280883E+00
   43     7 N    -1.002923568564E-01 -1.544906442944E+00 -5.693515280883E+00
   44     7 N     1.002923568564E-01  1.544906442944E+00 -5.693515280883E+00
   45     7 N     1.644241608696E+00  1.161710937373E+00  5.133011593513E+00
   46     7 N    -1.644241608696E+00 -1.161710937373E+00  5.133011593513E+00
   47     7 N     1.161710937373E+00 -1.644241608696E+00 -5.133011593513E+00
   48     7 N    -1.161710937373E+00  1.644241608696E+00 -5.133011593513E+00
   49     7 N    -7.377816325693E-01  1.387076265240E+00 -1.293048722030E+00
   50     7 N     7.377816325693E-01 -1.387076265240E+00 -1.293048722030E+00
   51     7 N     1.387076265240E+00  7.377816325693E-01  1.293048722030E+00
   52     7 N    -1.387076265240E+00 -7.377816325693E-01  1.293048722030E+00
   53    17 CL    1.008241296923E-01  3.808876114632E+00 -1.008092074153E+00
   54    17 CL   -1.008241296923E-01 -3.808876114632E+00 -1.008092074153E+00
   55    17 CL    3.808876114632E+00 -1.008241296923E-01  1.008092074153E+00
   56    17 CL   -3.808876114632E+00  1.008241296923E-01  1.008092074153E+00
   57    17 CL   -3.904701579667E+00 -6.969414787699E-01 -2.207887363857E+00
   58    17 CL    3.904701579667E+00  6.969414787699E-01 -2.207887363857E+00
   59    17 CL   -6.969414787699E-01  3.904701579667E+00  2.207887363857E+00
   60    17 CL    6.969414787699E-01 -3.904701579667E+00  2.207887363857E+00
   61    30 ZN    5.317728359300E+00  4.700037766092E-16 -1.053314371155E+01
   62    30 ZN    0.000000000000E+00  0.000000000000E+00  7.022095807700E+00

 *******************************************************************************
 STARTING BASIS SET HANDLING 
 *******************************************************************************

 Loading internal basis set: POB-DZVPP           

 Please cite in your publication:
 Peintinger, M. F., Oliveira, D. V. and Bredow, T. (2013), Generally applicable 
 solid-state Gaussian basis sets, in preparation                                
                                                                                
                    

 *******************************************************************************
 LOCAL ATOMIC FUNCTIONS BASIS SET
 *******************************************************************************
   ATOM   X(AU)   Y(AU)   Z(AU)  N. TYPE  EXPONENT  S COEF   P COEF   D/F/G COEF
 *******************************************************************************
   1 H   -8.389   4.328  -3.895
                                  1 S  
                                         2.263E+01 1.441E-02 0.000E+00 0.000E+00
                                         3.236E+00 1.072E-01 0.000E+00 0.000E+00
                                         7.304E-01 3.846E-01 0.000E+00 0.000E+00
                                  2 S  
                                         1.417E-01 1.000E+00 0.000E+00 0.000E+00
                           3-     5 P  
                                         3.944E-01 0.000E+00 1.000E+00 0.000E+00
                           6-     8 P  
                                         1.006E-01 0.000E+00 1.000E+00 0.000E+00
   2 H    8.389  -4.328  -3.895
   3 H    4.328   8.389   3.895
   4 H   -4.328  -8.389   3.895
   5 H   -2.326  -1.147  -2.981
   6 H    2.326   1.147  -2.981
   7 H   -1.147   2.326   2.981
   8 H    1.147  -2.326   2.981
   9 C   -4.645   5.785  -3.055
                                 65 S  
                                         1.238E+03 5.457E-03 0.000E+00 0.000E+00
                                         1.863E+02 4.064E-02 0.000E+00 0.000E+00
                                         4.225E+01 1.803E-01 0.000E+00 0.000E+00
                                         1.168E+01 4.632E-01 0.000E+00 0.000E+00
                                         3.593E+00 4.409E-01 0.000E+00 0.000E+00
                                 66 S  
                                         5.281E+00 1.000E+00 0.000E+00 0.000E+00
                                 67 S  
                                         4.447E-01 1.000E+00 0.000E+00 0.000E+00
                          68-    70 P  
                                         9.468E+00 0.000E+00 3.839E-02 0.000E+00
                                         2.010E+00 0.000E+00 2.112E-01 0.000E+00
                                         5.477E-01 0.000E+00 5.133E-01 0.000E+00
                          71-    73 P  
                                         1.604E-01 0.000E+00 1.000E+00 0.000E+00
                          74-    78 D  
                                         6.070E-01 0.000E+00 0.000E+00 1.000E+00
                          79-    83 D  
                                         2.939E-01 0.000E+00 0.000E+00 1.000E+00
  10 C    4.645  -5.785  -3.055
  11 C    5.785   4.645   3.055
  12 C   -5.785  -4.645   3.055
  13 C   -5.189   8.481  -3.467
  14 C    5.189  -8.481  -3.467
  15 C    8.481   5.189   3.467
  16 C   -8.481  -5.189   3.467
  17 C   -6.422   3.850  -3.504
  18 C    6.422  -3.850  -3.504
  19 C    3.850   6.422   3.504
  20 C   -3.850  -6.422   3.504
  21 C   -3.046   0.787  -2.993
  22 C    3.046  -0.787  -2.993
  23 C    0.787   3.046   2.993
  24 C   -0.787  -3.046   2.993
  25 C   -2.163   4.994  -2.500
  26 C    2.163  -4.994  -2.500
  27 C    4.994   2.163   2.500
  28 C   -4.994  -2.163   2.500
  29 C    5.565  -1.340  -3.518
  30 C   -5.565   1.340  -3.518
  31 C   -1.340  -5.565   3.518
  32 C    1.340   5.565   3.518
  33 N    6.255  -0.074   8.226
                                521 S  
                                         1.713E+03-5.393E-03 0.000E+00 0.000E+00
                                         2.576E+02-4.022E-02 0.000E+00 0.000E+00
                                         5.846E+01-1.793E-01 0.000E+00 0.000E+00
                                         1.620E+01-4.638E-01 0.000E+00 0.000E+00
                                         5.005E+00-4.417E-01 0.000E+00 0.000E+00
                                522 S  
                                         6.217E-01 1.000E+00 0.000E+00 0.000E+00
                                523 S  
                                         2.921E-01 1.000E+00 0.000E+00 0.000E+00
                         524-   526 P  
                                         1.357E+01 0.000E+00-4.007E-02 0.000E+00
                                         2.926E+00 0.000E+00-2.181E-01 0.000E+00
                                         7.993E-01 0.000E+00-5.129E-01 0.000E+00
                         527-   529 P  
                                         2.244E-01 0.000E+00 1.000E+00 0.000E+00
                         530-   534 D  
                                         3.118E-01 0.000E+00 0.000E+00 1.000E+00
  34 N   -6.255   0.074   8.226
  35 N   -0.074  -6.255  -8.226
  36 N    0.074   6.255  -8.226
  37 N    5.096   2.251   8.202
  38 N   -5.096  -2.251   8.202
  39 N    2.251  -5.096  -8.202
  40 N   -2.251   5.096  -8.202
  41 N    2.919  -0.190  10.759
  42 N   -2.919   0.190  10.759
  43 N   -0.190  -2.919 -10.759
  44 N    0.190   2.919 -10.759
  45 N    3.107   2.195   9.700
  46 N   -3.107  -2.195   9.700
  47 N    2.195  -3.107  -9.700
  48 N   -2.195   3.107  -9.700
  49 N   -1.394   2.621  -2.444
  50 N    1.394  -2.621  -2.444
  51 N    2.621   1.394   2.444
  52 N   -2.621  -1.394   2.444
  53 CL   0.191   7.198  -1.905
                                801 S  
                                         1.045E+04 1.971E-03 0.000E+00 0.000E+00
                                         1.572E+03 1.475E-02 0.000E+00 0.000E+00
                                         3.571E+02 6.668E-02 0.000E+00 0.000E+00
                                         1.003E+02 1.723E-01 0.000E+00 0.000E+00
                                         3.081E+01 1.588E-01 0.000E+00 0.000E+00
                                802 S  
                                         5.192E+01-1.001E-01 0.000E+00 0.000E+00
                                         5.705E+00 6.084E-01 0.000E+00 0.000E+00
                                         2.351E+00 5.435E-01 0.000E+00 0.000E+00
                                803 S  
                                         4.886E-01 1.000E+00 0.000E+00 0.000E+00
                                804 S  
                                         1.984E-01 1.000E+00 0.000E+00 0.000E+00
                         805-   807 P  
                                         3.077E+02 0.000E+00-8.780E-03 0.000E+00
                                         7.210E+01 0.000E+00-6.356E-02 0.000E+00
                                         2.253E+01 0.000E+00-2.402E-01 0.000E+00
                                         7.899E+00 0.000E+00-4.780E-01 0.000E+00
                                         2.877E+00 0.000E+00-3.852E-01 0.000E+00
                         808-   810 P  
                                         9.483E-01 0.000E+00 1.000E+00 0.000E+00
                         811-   813 P  
                                         2.521E-01 0.000E+00 1.000E+00 0.000E+00
                         814-   818 D  
                                         9.722E-01 0.000E+00 0.000E+00 1.000E+00
                         819-   823 D  
                                         2.060E-01 0.000E+00 0.000E+00 1.000E+00
  54 CL  -0.191  -7.198  -1.905
  55 CL   7.198  -0.191   1.905
  56 CL  -7.198   0.191   1.905
  57 CL  -7.379  -1.317  -4.172
  58 CL   7.379   1.317  -4.172
  59 CL  -1.317   7.379   4.172
  60 CL   1.317  -7.379   4.172
  61 ZN  10.049   0.000 -19.905
                                985 S  
                                         8.200E+04 1.421E-03 0.000E+00 0.000E+00
                                         1.231E+04 1.089E-02 0.000E+00 0.000E+00
                                         2.801E+03 5.406E-02 0.000E+00 0.000E+00
                                         7.910E+02 1.885E-01 0.000E+00 0.000E+00
                                         2.576E+02 3.835E-01 0.000E+00 0.000E+00
                                         8.881E+01 2.972E-01 0.000E+00 0.000E+00
                                986 S  
                                         1.719E+02-1.105E-01 0.000E+00 0.000E+00
                                         2.030E+01 6.461E-01 0.000E+00 0.000E+00
                                         8.346E+00 4.422E-01 0.000E+00 0.000E+00
                                987 S  
                                         1.485E+01-2.271E-01 0.000E+00 0.000E+00
                                         2.450E+00 7.243E-01 0.000E+00 0.000E+00
                                         9.985E-01 4.484E-01 0.000E+00 0.000E+00
                                988 S  
                                         1.493E+00 1.000E+00 0.000E+00 0.000E+00
                                989 S  
                                         1.830E-01 1.000E+00 0.000E+00 0.000E+00
                         990-   992 P  
                                         1.072E+03 0.000E+00 9.277E-03 0.000E+00
                                         2.527E+02 0.000E+00 6.954E-02 0.000E+00
                                         8.010E+01 0.000E+00 2.716E-01 0.000E+00
                                         2.890E+01 0.000E+00 5.340E-01 0.000E+00
                                         1.077E+01 0.000E+00 3.450E-01 0.000E+00
                         993-   995 P  
                                         5.645E+00 0.000E+00 3.413E-01 0.000E+00
                                         2.168E+00 0.000E+00 5.639E-01 0.000E+00
                                         8.054E-01 0.000E+00 2.368E-01 0.000E+00
                         996-   998 P  
                                         2.721E-01 0.000E+00 1.000E+00 0.000E+00
                         999-  1003 D  
                                         5.609E+01 0.000E+00 0.000E+00 2.959E-02
                                         1.575E+01 0.000E+00 0.000E+00 1.587E-01
                                         5.312E+00 0.000E+00 0.000E+00 3.798E-01
                                         1.774E+00 0.000E+00 0.000E+00 4.690E-01
                        1004-  1008 D  
                                         5.073E-01 0.000E+00 0.000E+00 1.000E+00
                        1009-  1015 F  
                                         2.814E+00 0.000E+00 0.000E+00 1.000E+00
                        1016-  1022 F  
                                         1.300E+00 0.000E+00 0.000E+00 1.000E+00
  62 ZN   0.000   0.000  13.270

 *******************************************************************************
 FINISHED BASIS SET HANDLING 
 *******************************************************************************

 INFORMATION **** SET_MPP **** PCRYSTAL CALCULATION
 INFORMATION **** READM2 **** NEW DEFAULT: FOCK/KS MATRIX MIXING SET TO 30 %
 INFORMATION **** READM2 **** NEW DEFAULT: FULL DIRECT SCF MODE
 INFORMATION **** READM2 **** NEW DEFAULT: COULOMB BIPOLAR BUFFER SET TO 32 Mb
 INFORMATION **** READM2 **** NEW DEFAULT: EXCHANGE BIPOLAR BUFFER SET TO 32 Mb

 *******************************************************************************
 NEW DEFAULT: DFT INTEGRATION GRID INCREASED TO XLGRID
 NEW DEFAULT: DIIS ACCELERATOR ACTIVE
 USE KEYWORD NODIIS TO TURN IT OFF
 *******************************************************************************

 INFORMATION **** DFTD3_INPUT **** PERFORM DISPERSION CORRECTION DFT-D3(BJ) IN THE BECKE-JOHNSON DAMPING SCHEME

 PLEASE CITE:
 (1) DFT-D3 Reference
  S. Grimme, J. Antony, S. Ehrlich, and H. Krieg, J. Chem. Phys. 132 (2010), 154104
 (2) BJ-Damping Reference
  S. Grimme, S. Ehrlich, and L. Goerigk, J. Comput. Chem. 32 (2011), 1456-1465
 (3) General DFT-D Review
  S. Grimme, A. Hansen, J. G. Brandenburg, and C. Bannwarth,
  Chem. Rev. 116 (2016), 5105-5154

 INFORMATION **** TOLINTEG **** COULOMB AND EXCHANGE SERIES TOLERANCES MODIFIED
 INFORMATION **** BIPOSIZE **** COULOMB BIPOLAR BUFFER SET TO   100000000
 INFORMATION **** MAXCYCLE **** MAX NUMBER OF SCF CYCLES SET TO          50
 *******************************************************************************
 N. OF ATOMS PER CELL        62  COULOMB OVERLAP TOL         (T1) 10**  -12
 NUMBER OF SHELLS           416  COULOMB PENETRATION TOL     (T2) 10**  -12
 NUMBER OF AO              1060  EXCHANGE OVERLAP TOL        (T3) 10**   20
 N. OF ELECTRONS PER CELL   488  EXCHANGE PSEUDO OVP (F(G))  (T4) 10**   20
 CORE ELECTRONS PER CELL    204  EXCHANGE PSEUDO OVP (P(G))  (T5) 10**   20
 N. OF SYMMETRY OPERATORS     4  POLE ORDER IN MONO ZONE                  4
 *******************************************************************************
 TYPE OF CALCULATION :  RESTRICTED CLOSED SHELL
 KOHN-SHAM HAMILTONIAN

 (EXCHANGE)[CORRELATION] FUNCTIONAL:(PERDEW-BURKE-ERNZERHOF)[PERDEW-BURKE-ERNZERHOF]


 CAPPA:IS1  3;IS2  3;IS3  3; K PTS MONK NET   6; SYMMOPS:K SPACE   8;G SPACE   4

 *******************************************************************************
 MAX NUMBER OF SCF CYCLES      50  CONVERGENCE ON DELTAP        10**-16
 WEIGHT OF F(I) IN F(I+1)      30% CONVERGENCE ON ENERGY        10**- 6
 SHRINK. FACT.(MONKH.)    3  3  3  NUMBER OF K POINTS IN THE IBZ      6
 SHRINKING FACTOR(GILAT NET)    3  NUMBER OF K POINTS(GILAT NET)      6
 *******************************************************************************
 *** K POINTS COORDINATES (OBLIQUE COORDINATES IN UNITS OF IS =  3)
   1-R(  0  0  0)   2-C(  1  0  0)   3-C(  1  1  0)   4-C(  2  1  0)
   5-C(  2  1  1)   6-C(  2  2  1)

 DIRECT LATTICE VECTORS COMPON. (A.U.)     RECIP. LATTICE VECTORS COMPON. (A.U.) 
        X            Y            Z              X            Y            Z
  -10.0490503   10.0490503   13.2698380      0.0000000    0.3126258    0.2367469
   10.0490503  -10.0490503   13.2698380      0.3126258    0.0000000    0.2367469
   10.0490503   10.0490503  -13.2698380      0.3126258    0.3126258    0.0000000

 DISK SPACE FOR EIGENVECTORS (FTN 10)    12359600 REALS

 SYMMETRY ADAPTION OF THE BLOCH FUNCTIONS ENABLED
 TTTTTTTTTTTTTTTTTTTTTTTTTTTTTT gordsh1     TELAPSE        5.68 TCPU        0.08

 MATRIX SIZE: P(G) 1774808, F(G)  888110, P(G) IRR  224385, F(G) IRR  224385
 MAX G-VECTOR INDEX FOR 1- AND 2-ELECTRON INTEGRALS  63

 TTTTTTTTTTTTTTTTTTTTTTTTTTTTTT INPUT       TELAPSE        6.86 TCPU        1.25

 NEIGHBORS OF THE NON-EQUIVALENT ATOMS

 N = NUMBER OF NEIGHBORS AT DISTANCE R
    ATOM  N     R/ANG      R/AU   NEIGHBORS (ATOM LABELS AND CELL INDICES)
   1 H    1     1.0908     2.0613   17 C    0 0 0
   1 H    1     2.1718     4.1042    9 C    0 0 0
   1 H    1     2.1845     4.1281   30 C    0 0 0
   1 H    1     2.7840     5.2610   13 C    0 0 0
   1 H    1     2.7947     5.2813   58 CL   0-1-1
   1 H    1     2.8950     5.4707   60 CL   0-1 0

   5 H    1     1.0923     2.0642   21 C    0 0 0
   5 H    1     2.0739     3.9190   49 N    0 0 0
   5 H    1     2.1364     4.0372   50 N    0 0 0
   5 H    1     2.1799     4.1194   30 C    0 0 0
   5 H    1     2.7447     5.1868    6 H    0 0 0
   5 H    1     2.7488     5.1944   57 CL   0 0 0

   9 C    1     1.4095     2.6635   25 C    0 0 0
   9 C    1     1.4103     2.6651   17 C    0 0 0
   9 C    1     1.4717     2.7812   13 C    0 0 0
   9 C    1     2.1718     4.1042    1 H    0 0 0
   9 C    1     2.4144     4.5625   30 C    0 0 0
   9 C    1     2.4221     4.5772   49 N    0 0 0

  13 C    1     1.3576     2.5655   41 N    0-1 0
  13 C    1     1.3659     2.5812   33 N    0-1 0
  13 C    1     1.4717     2.7812    9 C    0 0 0
  13 C    1     2.1947     4.1474   37 N    0-1 0
  13 C    1     2.1977     4.1531   45 N    0-1 0
  13 C    1     2.4961     4.7169   25 C    0 0 0

  17 C    1     1.0908     2.0613    1 H    0 0 0
  17 C    1     1.4035     2.6522   30 C    0 0 0
  17 C    1     1.4103     2.6651    9 C    0 0 0
  17 C    1     2.3934     4.5228   25 C    0 0 0
  17 C    1     2.4274     4.5870   21 C    0 0 0
  17 C    1     2.5363     4.7929   13 C    0 0 0

  21 C    1     1.0923     2.0642    5 H    0 0 0
  21 C    1     1.3381     2.5287   49 N    0 0 0
  21 C    1     1.3928     2.6321   30 C    0 0 0
  21 C    1     2.2894     4.3263   25 C    0 0 0
  21 C    1     2.4274     4.5870   17 C    0 0 0
  21 C    1     2.6242     4.9590   57 CL   0 0 0

  25 C    1     1.3201     2.4946   49 N    0 0 0
  25 C    1     1.4095     2.6635    9 C    0 0 0
  25 C    1     1.7352     3.2791   53 CL   0 0 0
  25 C    1     2.2894     4.3263   21 C    0 0 0
  25 C    1     2.3934     4.5228   17 C    0 0 0
  25 C    1     2.4961     4.7169   13 C    0 0 0

  29 C    1     1.3928     2.6321   22 C    0 0 0
  29 C    1     1.4035     2.6522   18 C    0 0 0
  29 C    1     1.7372     3.2828   58 CL   0 0 0
  29 C    1     2.1799     4.1194    6 H    0 0 0
  29 C    1     2.1845     4.1281    2 H    0 0 0
  29 C    1     2.3780     4.4938   50 N    0 0 0

  33 N    1     1.3659     2.5812   13 C    0 1 0
  33 N    1     1.3745     2.5974   37 N    0 0 0
  33 N    1     2.1777     4.1153   61 ZN   1 1 0
  33 N    1     2.1965     4.1508   45 N    0 0 0
  33 N    1     2.2171     4.1897   41 N    0 0 0
  33 N    1     2.4954     4.7157    9 C    0 1 0

  37 N    1     1.3180     2.4906   45 N    0 0 0
  37 N    1     1.3745     2.5974   33 N    0 0 0
  37 N    1     2.1947     4.1474   13 C    0 1 0
  37 N    1     2.1967     4.1511   41 N    0 0 0
  37 N    1     2.9959     5.6614   61 ZN   1 1 0
  37 N    1     3.0185     5.7042   27 C    0 0 0

  41 N    1     1.3576     2.5655   13 C    0 1 0
  41 N    1     1.3844     2.6162   45 N    0 0 0
  41 N    1     2.0401     3.8552   62 ZN   0 0 0
  41 N    1     2.1967     4.1511   37 N    0 0 0
  41 N    1     2.2171     4.1897   33 N    0 0 0
  41 N    1     2.5419     4.8034    9 C    0 1 0

  45 N    1     1.3180     2.4906   37 N    0 0 0
  45 N    1     1.3844     2.6162   41 N    0 0 0
  45 N    1     2.1965     4.1508   33 N    0 0 0
  45 N    1     2.1977     4.1531   13 C    0 1 0
  45 N    1     2.7608     5.2171   62 ZN   0 0 0
  45 N    1     3.1426     5.9386    2 H    1 0 0

  49 N    1     1.3201     2.4946   25 C    0 0 0
  49 N    1     1.3381     2.5287   21 C    0 0 0
  49 N    1     2.0739     3.9190    5 H    0 0 0
  49 N    1     2.1364     4.0372    6 H    0 0 0
  49 N    1     2.3780     4.4938   30 C    0 0 0
  49 N    1     2.4221     4.5772    9 C    0 0 0

  53 CL   1     1.7352     3.2791   25 C    0 0 0
  53 CL   1     2.5787     4.8730   49 N    0 0 0
  53 CL   1     2.7346     5.1676    9 C    0 0 0
  53 CL   1     2.9243     5.5261   61 ZN   1 0 0
  53 CL   1     2.9653     5.6035   34 N    0 0 1
  53 CL   1     3.0244     5.7154   54 CL   1 0 1

  57 CL   1     1.7372     3.2828   30 C    0 0 0
  57 CL   1     2.6242     4.9590   21 C    0 0 0
  57 CL   1     2.7488     5.1944    5 H    0 0 0
  57 CL   1     2.7947     5.2813    2 H    0-1-1
  57 CL   1     2.8030     5.2970   17 C    0 0 0
  57 CL   1     2.8950     5.4707    3 H   -1-1-1

  61 ZN   4     2.1777     4.1153   33 N   -1-1 0   34 N   -1 0 1   35 N    0 0 1
                                    36 N   -1 0 0
  61 ZN   4     2.9243     5.5261   53 CL  -1 0 0   54 CL   0 0 1   55 CL  -1-1 0
                                    56 CL  -1 0 1
  61 ZN   4     2.9959     5.6614   37 N   -1-1 0   38 N   -1 0 1   39 N    0 0 1
                                    40 N   -1 0 0
  61 ZN   4     3.3224     6.2784   13 C   -1 0 0   14 C    0 0 1   15 C   -1-1 0
                                    16 C   -1 0 1
  61 ZN   4     3.6409     6.8804   25 C   -1 0 0   26 C    0 0 1   27 C   -1-1 0
                                    28 C   -1 0 1
  61 ZN   4     3.8372     7.2512    9 C   -1 0 0   10 C    0 0 1   11 C   -1-1 0
                                    12 C   -1 0 1

  62 ZN   4     2.0401     3.8552   41 N    0 0 0   42 N    0 0 0   43 N    1 1 0
                                    44 N    1 1 0
  62 ZN   4     2.7608     5.2171   45 N    0 0 0   46 N    0 0 0   47 N    1 1 0
                                    48 N    1 1 0
  62 ZN   4     3.2664     6.1726   13 C    0 1 0   14 C    1 0 0   15 C    0 0-1
                                    16 C    1 1 1
  62 ZN   4     3.7666     7.1179    1 H    0 1 0    2 H    1 0 0    3 H    0 0-1
                                     4 H    1 1 1
  62 ZN   4     3.9853     7.5312    9 C    0 1 0   10 C    1 0 0   11 C    0 0-1
                                    12 C    1 1 1
  62 ZN   4     3.9853     7.5312   37 N    0 0 0   38 N    0 0 0   39 N    1 1 0
                                    40 N    1 1 0


 SYMMETRY ALLOWED INTERNAL DEGREE(S) OF FREEDOM:  45
 TTTTTTTTTTTTTTTTTTTTTTTTTTTTTT SYMM        TELAPSE        6.94 TCPU        1.30
 TTTTTTTTTTTTTTTTTTTTTTTTTTTTTT INT_SCREEN  TELAPSE        6.97 TCPU        1.31
 INFORMATION **** EXCBUF **** EXCH. BIPO BUFFER: WORDS USED =           0

 DFT PARAMETERS

     ATOM       ELECTRONS   NET CHARGE   R(ANGSTROM)
   1   1  H       1.0000      0.0000     1.11000000
   9   6  C       6.0000      0.0000     0.77000000
  33   7  N       7.0000      0.0000     0.74000000
  53  17  CL     17.0000      0.0000     0.99000000
  61  30  ZN     30.0000      0.0000     1.37000000

 SIZE OF GRID=     475573
 TTTTTTTTTTTTTTTTTTTTTTTTTTTTTT MAKE_GRID2  TELAPSE        7.78 TCPU        2.10
 BECKE WEIGHT FUNCTION
 RADSAFE =     2.00
 TOLERANCES - DENSITY:10**- 6; POTENTIAL:10**- 9; GRID WGT:10**-14

 RADIAL INTEGRATION  - INTERVALS (POINTS,UPPER LIMIT):            1( 75,  4.0*R)

 ANGULAR INTEGRATION - INTERVALS (ACCURACY LEVEL [N. POINTS] UPPER LIMIT):
  1(  4[  86]   0.2)  2(  8[ 194]   0.5)  3( 12[ 350]   0.9)  4( 16[ 974]   3.5)
  5( 12[ 350]9999.0)
 TTTTTTTTTTTTTTTTTTTTTTTTTTTTTT INT_CALC    TELAPSE        7.84 TCPU        2.15
 EEEEEEEEEE INT_CALC TERMINATION  DATE 11 12 2023 TIME 05:19:24.7

 *******************************************************************************
 Z:\home\sanoj\Downloads\tmp_p\newconn.mol                                       
 CRYSTAL - SCF - TYPE OF CALCULATION :  RESTRICTED CLOSED SHELL
 *******************************************************************************

 CAPPA:IS1  3;IS2  3;IS3  3; K PTS MONK NET   6; SYMMOPS:K SPACE   8;G SPACE   4

 TTTTTTTTTTTTTTTTTTTTTTTTTTTTTT SDIK        TELAPSE        8.07 TCPU        2.38

 AAAAAAAAAAAAAAAAAAAAAAAAAAAAAAAAAAAAAAAAAAAAAAAAAAAAAAAAAAAAAAAAAAAAAAAAAAAAAAA
         ATOMIC WAVEFUNCTION(S)


 NUCLEAR CHARGE  1.0  SYMMETRY SPECIES            S
 N. ELECTRONS    1.0  NUMBER OF PRIMITIVE GTOS    4
                      NUMBER OF CONTRACTED GTOS   2
                      NUMBER OF CLOSED SHELLS     0
                      OPEN SHELL OCCUPATION       1

  ZNUC SCFIT  TOTAL HF ENERGY   KINETIC ENERGY   VIRIAL THEOREM ACCURACY
   1.0   1   -4.946643675E-01  4.917913167E-01 -2.005842012E+00  9.4E-17

 NUCLEAR CHARGE  6.0  SYMMETRY SPECIES            S    P
 N. ELECTRONS    6.0  NUMBER OF PRIMITIVE GTOS    7    4
                      NUMBER OF CONTRACTED GTOS   3    2
                      NUMBER OF CLOSED SHELLS     2    0
                      OPEN SHELL OCCUPATION       0    2

  ZNUC SCFIT  TOTAL HF ENERGY   KINETIC ENERGY   VIRIAL THEOREM ACCURACY
   6.0   6   -3.750912652E+01  3.905246519E+01 -1.960480378E+00  3.7E-06

 NUCLEAR CHARGE  7.0  SYMMETRY SPECIES            S    P
 N. ELECTRONS    7.0  NUMBER OF PRIMITIVE GTOS    7    4
                      NUMBER OF CONTRACTED GTOS   3    2
                      NUMBER OF CLOSED SHELLS     2    0
                      OPEN SHELL OCCUPATION       0    3

  ZNUC SCFIT  TOTAL HF ENERGY   KINETIC ENERGY   VIRIAL THEOREM ACCURACY
   7.0   9   -5.432196661E+01  5.425066284E+01 -2.001314339E+00  1.2E-06

 NUCLEAR CHARGE 17.0  SYMMETRY SPECIES            S    P
 N. ELECTRONS   17.0  NUMBER OF PRIMITIVE GTOS   10    7
                      NUMBER OF CONTRACTED GTOS   4    3
                      NUMBER OF CLOSED SHELLS     3    1
                      OPEN SHELL OCCUPATION       0    5

  ZNUC SCFIT  TOTAL HF ENERGY   KINETIC ENERGY   VIRIAL THEOREM ACCURACY
  17.0   9   -4.593005957E+02  4.593991532E+02 -1.999785464E+00  2.3E-06

 NUCLEAR CHARGE 30.0  SYMMETRY SPECIES            S    P    D
 N. ELECTRONS   30.0  NUMBER OF PRIMITIVE GTOS   14    9    5
                      NUMBER OF CONTRACTED GTOS   5    3    2
                      NUMBER OF CLOSED SHELLS     4    2    1
                      OPEN SHELL OCCUPATION       0    0    0

  ZNUC SCFIT  TOTAL HF ENERGY   KINETIC ENERGY   VIRIAL THEOREM ACCURACY
  30.0  10   -1.777404290E+03  1.777325716E+03 -2.000044209E+00  2.5E-06

 AAAAAAAAAAAAAAAAAAAAAAAAAAAAAAAAAAAAAAAAAAAAAAAAAAAAAAAAAAAAAAAAAAAAAAAAAAAAAAA

 TOTAL ATOMIC CHARGES:
   1.0000000   1.0000000   1.0000000   1.0000000   1.0000000   1.0000000
   1.0000000   1.0000000   6.0000000   6.0000000   6.0000000   6.0000000
   6.0000000   6.0000000   6.0000000   6.0000000   6.0000000   6.0000000
   6.0000000   6.0000000   6.0000000   6.0000000   6.0000000   6.0000000
   6.0000000   6.0000000   6.0000000   6.0000000   6.0000000   6.0000000
   6.0000000   6.0000000   7.0000000   7.0000000   7.0000000   7.0000000
   7.0000000   7.0000000   7.0000000   7.0000000   7.0000000   7.0000000
   7.0000000   7.0000000   7.0000000   7.0000000   7.0000000   7.0000000
   7.0000000   7.0000000   7.0000000   7.0000000  17.0000000  17.0000000
  17.0000000  17.0000000  17.0000000  17.0000000  17.0000000  17.0000000
  30.0000000  30.0000000
 TTTTTTTTTTTTTTTTTTTTTTTTTTTTTT MOQGAD      TELAPSE        9.81 TCPU        4.09
 TTTTTTTTTTTTTTTTTTTTTTTTTTTTTT SHELLXN     TELAPSE       80.05 TCPU       63.84
 TTTTTTTTTTTTTTTTTTTTTTTTTTTTTT MONMO3      TELAPSE       86.67 TCPU       70.45
 NUMERICALLY INTEGRATED DENSITY    487.9998936039
 TTTTTTTTTTTTTTTTTTTTTTTTTTTTTT NUMDFT      TELAPSE       88.95 TCPU       72.71
 CYC   0 ETOT(AU) -9.251277606311E+03 DETOT -9.25E+03 tst  0.00E+00 PX  1.00E+00
 TTTTTTTTTTTTTTTTTTTTTTTTTTTTTT DIIS        TELAPSE       89.03 TCPU       72.80
 TTTTTTTTTTTTTTTTTTTTTTTTTTTTTT FDIK        TELAPSE      130.24 TCPU      109.64
 INSULATING STATE
 TOP OF VALENCE BANDS -    BAND    244; K    4; EIG -1.2596394E-01 AU
 TOP OF VALENCE BANDS -    BAND    244; K    1; EIG -1.2749460E-01 AU
 BOTTOM OF VIRTUAL BANDS - BAND    245; K    4; EIG -1.0312975E-01 AU
 DIRECT ENERGY BAND GAP:   0.6214 eV
 BOTTOM OF VIRTUAL BANDS - BAND    245; K    1; EIG -1.0308455E-01 AU
 TTTTTTTTTTTTTTTTTTTTTTTTTTTTTT PDIG        TELAPSE      130.94 TCPU      110.33
 TOTAL ATOMIC CHARGES:
   1.2171906   1.2171906   1.2171906   1.2171906   1.2771768   1.2771768
   1.2771768   1.2771768   6.1819896   6.1819896   6.1819896   6.1819896
   5.4842076   5.4842076   5.4842076   5.4842076   6.3338097   6.3338097
   6.3338097   6.3338097   5.9312835   5.9312835   5.9312835   5.9312835
   5.0483888   5.0483888   5.0483888   5.0483888   5.1631865   5.1631865
   5.1631865   5.1631865   7.4550715   7.4550715   7.4550715   7.4550715
   7.1873763   7.1873763   7.1873763   7.1873763   7.4185744   7.4185744
   7.4185744   7.4185744   7.1499887   7.1499887   7.1499887   7.1499887
   7.5153632   7.5153632   7.5153632   7.5153632  17.3450072  17.3450072
  17.3450072  17.3450072  17.2865551  17.2865551  17.2865551  17.2865551
  28.0239754  27.9953462
 TTTTTTTTTTTTTTTTTTTTTTTTTTTTTT MOQGAD      TELAPSE      130.99 TCPU      110.38
 TTTTTTTTTTTTTTTTTTTTTTTTTTTTTT SHELLXN     TELAPSE      204.68 TCPU      179.78
 TTTTTTTTTTTTTTTTTTTTTTTTTTTTTT MONMO3      TELAPSE      212.50 TCPU      187.58
 NUMERICALLY INTEGRATED DENSITY    487.9998745705
 TTTTTTTTTTTTTTTTTTTTTTTTTTTTTT NUMDFT      TELAPSE      218.73 TCPU      193.79
 CYC   1 ETOT(AU) -9.246255717760E+03 DETOT  5.02E+00 tst  0.00E+00 PX  1.00E+00
 TTTTTTTTTTTTTTTTTTTTTTTTTTTTTT DIIS        TELAPSE      218.90 TCPU      193.96
 DIIS TEST: 0.88528E+01 AT SCF   CYCLE   1 - MIX   30 %
 TTTTTTTTTTTTTTTTTTTTTTTTTTTTTT FDIK        TELAPSE      234.74 TCPU      205.87
 INSULATING STATE
 TOP OF VALENCE BANDS -    BAND    244; K    3; EIG -1.5506013E-01 AU
 TOP OF VALENCE BANDS -    BAND    244; K    1; EIG -1.5689792E-01 AU
 BOTTOM OF VIRTUAL BANDS - BAND    245; K    5; EIG -1.2235230E-01 AU
 INDIRECT ENERGY BAND GAP:   0.8900 eV
 BOTTOM OF VIRTUAL BANDS - BAND    245; K    1; EIG -1.2189205E-01 AU
 TTTTTTTTTTTTTTTTTTTTTTTTTTTTTT PDIG        TELAPSE      235.43 TCPU      206.55
 TOTAL ATOMIC CHARGES:
   1.1865171   1.1865171   1.1865171   1.1865171   1.2487799   1.2487799
   1.2487799   1.2487799   6.3303744   6.3303744   6.3303744   6.3303744
   6.3824969   6.3824969   6.3824969   6.3824969   6.3056207   6.3056207
   6.3056207   6.3056207   5.9262454   5.9262454   5.9262454   5.9262454
   6.1218056   6.1218056   6.1218056   6.1218056   5.6869945   5.6869945
   5.6869945   5.6869945   6.8921158   6.8921158   6.8921158   6.8921158
   6.9183026   6.9183026   6.9183026   6.9183026   6.9613632   6.9613632
   6.9613632   6.9613632   6.8560621   6.8560621   6.8560621   6.8560621
   6.0443122   6.0443122   6.0443122   6.0443122  17.2844316  17.2844316
  17.2844316  17.2844316  17.1217993  17.1217993  17.1217993  17.1217993
  29.4535890  29.4775260
 TTTTTTTTTTTTTTTTTTTTTTTTTTTTTT MOQGAD      TELAPSE      235.48 TCPU      206.60
 TTTTTTTTTTTTTTTTTTTTTTTTTTTTTT SHELLXN     TELAPSE      307.02 TCPU      275.73
 TTTTTTTTTTTTTTTTTTTTTTTTTTTTTT MONMO3      TELAPSE      315.49 TCPU      284.17
 NUMERICALLY INTEGRATED DENSITY    487.9998726891
 TTTTTTTTTTTTTTTTTTTTTTTTTTTTTT NUMDFT      TELAPSE      321.77 TCPU      290.43
 CYC   2 ETOT(AU) -9.244868597699E+03 DETOT  1.39E+00 tst  3.12E-02 PX  6.08E-01
 TTTTTTTTTTTTTTTTTTTTTTTTTTTTTT DIIS        TELAPSE      321.94 TCPU      290.60
 DIIS TEST: 0.20146E+02 AT SCF   CYCLE   2 - DIIS ACTIVE - HISTORY:     2 CYCLES
 TTTTTTTTTTTTTTTTTTTTTTTTTTTTTT FDIK        TELAPSE      338.61 TCPU      302.64
 INSULATING STATE
 TOP OF VALENCE BANDS -    BAND    244; K    3; EIG -2.4469614E-01 AU
 TOP OF VALENCE BANDS -    BAND    244; K    1; EIG -2.4630589E-01 AU
 BOTTOM OF VIRTUAL BANDS - BAND    245; K    1; EIG -1.2786921E-01 AU
 INDIRECT ENERGY BAND GAP:   3.1790 eV
 TTTTTTTTTTTTTTTTTTTTTTTTTTTTTT PDIG        TELAPSE      339.31 TCPU      303.33
 TOTAL ATOMIC CHARGES:
   1.1762459   1.1762459   1.1762459   1.1762459   1.1968376   1.1968376
   1.1968376   1.1968376   5.9810138   5.9810138   5.9810138   5.9810138
   5.8956966   5.8956966   5.8956966   5.8956966   6.1359882   6.1359882
   6.1359882   6.1359882   6.1817458   6.1817458   6.1817458   6.1817458
   5.5425090   5.5425090   5.5425090   5.5425090   5.4570364   5.4570364
   5.4570364   5.4570364   7.0790754   7.0790754   7.0790754   7.0790754
   7.1132902   7.1132902   7.1132902   7.1132902   7.0415078   7.0415078
   7.0415078   7.0415078   7.0581069   7.0581069   7.0581069   7.0581069
   7.3351481   7.3351481   7.3351481   7.3351481  17.1346271  17.1346271
  17.1346271  17.1346271  17.1085021  17.1085021  17.1085021  17.1085021
  29.0764467  29.1742292
 TTTTTTTTTTTTTTTTTTTTTTTTTTTTTT MOQGAD      TELAPSE      339.35 TCPU      303.38
 TTTTTTTTTTTTTTTTTTTTTTTTTTTTTT SHELLXN     TELAPSE      410.59 TCPU      372.29
 TTTTTTTTTTTTTTTTTTTTTTTTTTTTTT MONMO3      TELAPSE      418.93 TCPU      380.61
 NUMERICALLY INTEGRATED DENSITY    487.9998757254
 TTTTTTTTTTTTTTTTTTTTTTTTTTTTTT NUMDFT      TELAPSE      425.22 TCPU      386.88
 CYC   3 ETOT(AU) -9.247362932909E+03 DETOT -2.49E+00 tst  1.22E-02 PX  3.81E-01
 TTTTTTTTTTTTTTTTTTTTTTTTTTTTTT DIIS        TELAPSE      425.40 TCPU      387.06
 DIIS TEST: 0.30704E+01 AT SCF   CYCLE   3 - DIIS ACTIVE - HISTORY:     3 CYCLES
 TTTTTTTTTTTTTTTTTTTTTTTTTTTTTT FDIK        TELAPSE      439.50 TCPU      398.95
 INSULATING STATE
 TOP OF VALENCE BANDS -    BAND    244; K    3; EIG -2.2766394E-01 AU
 TOP OF VALENCE BANDS -    BAND    244; K    1; EIG -2.2973067E-01 AU
 BOTTOM OF VIRTUAL BANDS - BAND    245; K    1; EIG -1.2390561E-01 AU
 INDIRECT ENERGY BAND GAP:   2.8234 eV
 TTTTTTTTTTTTTTTTTTTTTTTTTTTTTT PDIG        TELAPSE      440.27 TCPU      399.68
 TOTAL ATOMIC CHARGES:
   1.1600563   1.1600563   1.1600563   1.1600563   1.2280821   1.2280821
   1.2280821   1.2280821   6.2475104   6.2475104   6.2475104   6.2475104
   5.8221441   5.8221441   5.8221441   5.8221441   6.3737392   6.3737392
   6.3737392   6.3737392   5.8747989   5.8747989   5.8747989   5.8747989
   5.4371592   5.4371592   5.4371592   5.4371592   5.4112087   5.4112087
   5.4112087   5.4112087   7.2390459   7.2390459   7.2390459   7.2390459
   7.0696213   7.0696213   7.0696213   7.0696213   7.2203151   7.2203151
   7.2203151   7.2203151   7.0279804   7.0279804   7.0279804   7.0279804
   6.9952772   6.9952772   6.9952772   6.9952772  17.2664999  17.2664999
  17.2664999  17.2664999  17.2243859  17.2243859  17.2243859  17.2243859
  28.7809097  28.8277916
 TTTTTTTTTTTTTTTTTTTTTTTTTTTTTT MOQGAD      TELAPSE      440.34 TCPU      399.75
 TTTTTTTTTTTTTTTTTTTTTTTTTTTTTT SHELLXN     TELAPSE      511.56 TCPU      468.64
 TTTTTTTTTTTTTTTTTTTTTTTTTTTTTT MONMO3      TELAPSE      519.88 TCPU      476.94
 NUMERICALLY INTEGRATED DENSITY    487.9998753139
 TTTTTTTTTTTTTTTTTTTTTTTTTTTTTT NUMDFT      TELAPSE      526.17 TCPU      483.21
 CYC   4 ETOT(AU) -9.247765012209E+03 DETOT -4.02E-01 tst  4.22E-03 PX  2.11E-01
 TTTTTTTTTTTTTTTTTTTTTTTTTTTTTT DIIS        TELAPSE      526.35 TCPU      483.40
 DIIS TEST: 0.60528E+00 AT SCF   CYCLE   4 - DIIS ACTIVE - HISTORY:     4 CYCLES
 TTTTTTTTTTTTTTTTTTTTTTTTTTTTTT FDIK        TELAPSE      541.34 TCPU      496.24
 INSULATING STATE
 TOP OF VALENCE BANDS -    BAND    244; K    4; EIG -2.4572750E-01 AU
 TOP OF VALENCE BANDS -    BAND    244; K    1; EIG -2.4875937E-01 AU
 BOTTOM OF VIRTUAL BANDS - BAND    245; K    1; EIG -1.2762445E-01 AU
 INDIRECT ENERGY BAND GAP:   3.2137 eV
 TTTTTTTTTTTTTTTTTTTTTTTTTTTTTT PDIG        TELAPSE      542.04 TCPU      496.94
 TOTAL ATOMIC CHARGES:
   1.1648361   1.1648361   1.1648361   1.1648361   1.2173370   1.2173370
   1.2173370   1.2173370   6.1880093   6.1880093   6.1880093   6.1880093
   5.8670659   5.8670659   5.8670659   5.8670659   6.2708653   6.2708653
   6.2708653   6.2708653   5.9943953   5.9943953   5.9943953   5.9943953
   5.5447067   5.5447067   5.5447067   5.5447067   5.4054709   5.4054709
   5.4054709   5.4054709   7.1773147   7.1773147   7.1773147   7.1773147
   7.1141845   7.1141845   7.1141845   7.1141845   7.1502273   7.1502273
   7.1502273   7.1502273   7.0331436   7.0331436   7.0331436   7.0331436
   7.0506551   7.0506551   7.0506551   7.0506551  17.2507942  17.2507942
  17.2507942  17.2507942  17.1792860  17.1792860  17.1792860  17.1792860
  28.7693161  28.7975160
 TTTTTTTTTTTTTTTTTTTTTTTTTTTTTT MOQGAD      TELAPSE      542.09 TCPU      496.99
 TTTTTTTTTTTTTTTTTTTTTTTTTTTTTT SHELLXN     TELAPSE      614.37 TCPU      565.88
 TTTTTTTTTTTTTTTTTTTTTTTTTTTTTT MONMO3      TELAPSE      622.43 TCPU      573.93
 NUMERICALLY INTEGRATED DENSITY    487.9998751521
 TTTTTTTTTTTTTTTTTTTTTTTTTTTTTT NUMDFT      TELAPSE      628.70 TCPU      580.18
 CYC   5 ETOT(AU) -9.247838503105E+03 DETOT -7.35E-02 tst  4.94E-04 PX  5.31E-02
 TTTTTTTTTTTTTTTTTTTTTTTTTTTTTT DIIS        TELAPSE      628.87 TCPU      580.35
 DIIS TEST: 0.81237E-01 AT SCF   CYCLE   5 - DIIS ACTIVE - HISTORY:     5 CYCLES
 TTTTTTTTTTTTTTTTTTTTTTTTTTTTTT FDIK        TELAPSE      642.23 TCPU      591.55
 INSULATING STATE
 TOP OF VALENCE BANDS -    BAND    244; K    3; EIG -2.4366564E-01 AU
 TOP OF VALENCE BANDS -    BAND    244; K    1; EIG -2.4691917E-01 AU
 BOTTOM OF VIRTUAL BANDS - BAND    245; K    1; EIG -1.2614252E-01 AU
 INDIRECT ENERGY BAND GAP:   3.1980 eV
 TTTTTTTTTTTTTTTTTTTTTTTTTTTTTT PDIG        TELAPSE      642.92 TCPU      592.23
 TOTAL ATOMIC CHARGES:
   1.1658752   1.1658752   1.1658752   1.1658752   1.2177597   1.2177597
   1.2177597   1.2177597   6.1672320   6.1672320   6.1672320   6.1672320
   5.8449601   5.8449601   5.8449601   5.8449601   6.3044513   6.3044513
   6.3044513   6.3044513   5.9811243   5.9811243   5.9811243   5.9811243
   5.4722122   5.4722122   5.4722122   5.4722122   5.4348938   5.4348938
   5.4348938   5.4348938   7.1759024   7.1759024   7.1759024   7.1759024
   7.0687860   7.0687860   7.0687860   7.0687860   7.1912907   7.1912907
   7.1912907   7.1912907   7.0570172   7.0570172   7.0570172   7.0570172
   7.0703723   7.0703723   7.0703723   7.0703723  17.2482073  17.2482073
  17.2482073  17.2482073  17.1906724  17.1906724  17.1906724  17.1906724
  28.7959026  28.8410696
 TTTTTTTTTTTTTTTTTTTTTTTTTTTTTT MOQGAD      TELAPSE      642.96 TCPU      592.28
 TTTTTTTTTTTTTTTTTTTTTTTTTTTTTT SHELLXN     TELAPSE      714.23 TCPU      661.24
 TTTTTTTTTTTTTTTTTTTTTTTTTTTTTT MONMO3      TELAPSE      722.45 TCPU      669.43
 NUMERICALLY INTEGRATED DENSITY    487.9998744999
 TTTTTTTTTTTTTTTTTTTTTTTTTTTTTT NUMDFT      TELAPSE      728.71 TCPU      675.67
 CYC   6 ETOT(AU) -9.247847162099E+03 DETOT -8.66E-03 tst  7.24E-05 PX  3.85E-02
 TTTTTTTTTTTTTTTTTTTTTTTTTTTTTT DIIS        TELAPSE      728.88 TCPU      675.84
 DIIS TEST: 0.29619E-01 AT SCF   CYCLE   6 - DIIS ACTIVE - HISTORY:     6 CYCLES
 TTTTTTTTTTTTTTTTTTTTTTTTTTTTTT FDIK        TELAPSE      742.48 TCPU      687.26
 INSULATING STATE
 TOP OF VALENCE BANDS -    BAND    244; K    4; EIG -2.4356366E-01 AU
 TOP OF VALENCE BANDS -    BAND    244; K    1; EIG -2.4679021E-01 AU
 BOTTOM OF VIRTUAL BANDS - BAND    245; K    1; EIG -1.2646993E-01 AU
 INDIRECT ENERGY BAND GAP:   3.1863 eV
 TTTTTTTTTTTTTTTTTTTTTTTTTTTTTT PDIG        TELAPSE      743.18 TCPU      687.96
 TOTAL ATOMIC CHARGES:
   1.1653122   1.1653122   1.1653122   1.1653122   1.2188185   1.2188185
   1.2188185   1.2188185   6.1747292   6.1747292   6.1747292   6.1747292
   5.8506801   5.8506801   5.8506801   5.8506801   6.2937466   6.2937466
   6.2937466   6.2937466   5.9736719   5.9736719   5.9736719   5.9736719
   5.4970223   5.4970223   5.4970223   5.4970223   5.4162709   5.4162709
   5.4162709   5.4162709   7.2091201   7.2091201   7.2091201   7.2091201
   7.1031039   7.1031039   7.1031039   7.1031039   7.1564969   7.1564969
   7.1564969   7.1564969   7.0218220   7.0218220   7.0218220   7.0218220
   7.0780626   7.0780626   7.0780626   7.0780626  17.2418149  17.2418149
  17.2418149  17.2418149  17.1876031  17.1876031  17.1876031  17.1876031
  28.8040684  28.8428314
 TTTTTTTTTTTTTTTTTTTTTTTTTTTTTT MOQGAD      TELAPSE      743.23 TCPU      688.00
 TTTTTTTTTTTTTTTTTTTTTTTTTTTTTT SHELLXN     TELAPSE      814.77 TCPU      757.21
 TTTTTTTTTTTTTTTTTTTTTTTTTTTTTT MONMO3      TELAPSE      822.56 TCPU      764.98
 NUMERICALLY INTEGRATED DENSITY    487.9998745084
 TTTTTTTTTTTTTTTTTTTTTTTTTTTTTT NUMDFT      TELAPSE      828.85 TCPU      771.24
 CYC   7 ETOT(AU) -9.247849033080E+03 DETOT -1.87E-03 tst  3.24E-05 PX  1.00E-02
 TTTTTTTTTTTTTTTTTTTTTTTTTTTTTT DIIS        TELAPSE      829.02 TCPU      771.42
 DIIS TEST: 0.16540E-01 AT SCF   CYCLE   7 - DIIS ACTIVE - HISTORY:     7 CYCLES
 TTTTTTTTTTTTTTTTTTTTTTTTTTTTTT FDIK        TELAPSE      840.05 TCPU      781.29
 INSULATING STATE
 TOP OF VALENCE BANDS -    BAND    244; K    4; EIG -2.4360843E-01 AU
 TOP OF VALENCE BANDS -    BAND    244; K    1; EIG -2.4682034E-01 AU
 BOTTOM OF VIRTUAL BANDS - BAND    245; K    1; EIG -1.2645736E-01 AU
 INDIRECT ENERGY BAND GAP:   3.1878 eV
 TTTTTTTTTTTTTTTTTTTTTTTTTTTTTT PDIG        TELAPSE      840.74 TCPU      781.98
 TOTAL ATOMIC CHARGES:
   1.1654665   1.1654665   1.1654665   1.1654665   1.2183185   1.2183185
   1.2183185   1.2183185   6.1732054   6.1732054   6.1732054   6.1732054
   5.8542169   5.8542169   5.8542169   5.8542169   6.2906353   6.2906353
   6.2906353   6.2906353   5.9827605   5.9827605   5.9827605   5.9827605
   5.5028762   5.5028762   5.5028762   5.5028762   5.4196441   5.4196441
   5.4196441   5.4196441   7.1775707   7.1775707   7.1775707   7.1775707
   7.0880885   7.0880885   7.0880885   7.0880885   7.1744966   7.1744966
   7.1744966   7.1744966   7.0455058   7.0455058   7.0455058   7.0455058
   7.0700477   7.0700477   7.0700477   7.0700477  17.2406303  17.2406303
  17.2406303  17.2406303  17.1863252  17.1863252  17.1863252  17.1863252
  28.7995196  28.8413273
 TTTTTTTTTTTTTTTTTTTTTTTTTTTTTT MOQGAD      TELAPSE      840.79 TCPU      782.03
 TTTTTTTTTTTTTTTTTTTTTTTTTTTTTT SHELLXN     TELAPSE      912.25 TCPU      851.21
 TTTTTTTTTTTTTTTTTTTTTTTTTTTTTT MONMO3      TELAPSE      920.14 TCPU      859.08
 NUMERICALLY INTEGRATED DENSITY    487.9998748145
 TTTTTTTTTTTTTTTTTTTTTTTTTTTTTT NUMDFT      TELAPSE      926.42 TCPU      865.35
 CYC   8 ETOT(AU) -9.247851244702E+03 DETOT -2.21E-03 tst  1.48E-05 PX  8.14E-03
 TTTTTTTTTTTTTTTTTTTTTTTTTTTTTT DIIS        TELAPSE      926.60 TCPU      865.53
 DIIS TEST: 0.15852E-02 AT SCF   CYCLE   8 - DIIS ACTIVE - HISTORY:     8 CYCLES
 TTTTTTTTTTTTTTTTTTTTTTTTTTTTTT FDIK        TELAPSE      939.15 TCPU      875.94
 INSULATING STATE
 TOP OF VALENCE BANDS -    BAND    244; K    4; EIG -2.4392265E-01 AU
 TOP OF VALENCE BANDS -    BAND    244; K    1; EIG -2.4711225E-01 AU
 BOTTOM OF VIRTUAL BANDS - BAND    245; K    1; EIG -1.2655644E-01 AU
 INDIRECT ENERGY BAND GAP:   3.1937 eV
 TTTTTTTTTTTTTTTTTTTTTTTTTTTTTT PDIG        TELAPSE      939.85 TCPU      876.64
 TOTAL ATOMIC CHARGES:
   1.1646757   1.1646757   1.1646757   1.1646757   1.2173662   1.2173662
   1.2173662   1.2173662   6.1700391   6.1700391   6.1700391   6.1700391
   5.8489635   5.8489635   5.8489635   5.8489635   6.2919762   6.2919762
   6.2919762   6.2919762   5.9854634   5.9854634   5.9854634   5.9854634
   5.4944128   5.4944128   5.4944128   5.4944128   5.4259357   5.4259357
   5.4259357   5.4259357   7.1903754   7.1903754   7.1903754   7.1903754
   7.0908136   7.0908136   7.0908136   7.0908136   7.1701801   7.1701801
   7.1701801   7.1701801   7.0375870   7.0375870   7.0375870   7.0375870
   7.0684677   7.0684677   7.0684677   7.0684677  17.2467978  17.2467978
  17.2467978  17.2467978  17.1867316  17.1867316  17.1867316  17.1867316
  28.7994560  28.8413998
 TTTTTTTTTTTTTTTTTTTTTTTTTTTTTT MOQGAD      TELAPSE      939.89 TCPU      876.69
 TTTTTTTTTTTTTTTTTTTTTTTTTTTTTT SHELLXN     TELAPSE     1011.40 TCPU      945.87
 TTTTTTTTTTTTTTTTTTTTTTTTTTTTTT MONMO3      TELAPSE     1019.21 TCPU      953.67
 NUMERICALLY INTEGRATED DENSITY    487.9998747366
 TTTTTTTTTTTTTTTTTTTTTTTTTTTTTT NUMDFT      TELAPSE     1025.51 TCPU      959.94
 CYC   9 ETOT(AU) -9.247851402336E+03 DETOT -1.58E-04 tst  1.96E-06 PX  3.18E-03
 TTTTTTTTTTTTTTTTTTTTTTTTTTTTTT DIIS        TELAPSE     1025.69 TCPU      960.12
 DIIS TEST: 0.73706E-03 AT SCF   CYCLE   9 - DIIS ACTIVE - HISTORY:     9 CYCLES
 TTTTTTTTTTTTTTTTTTTTTTTTTTTTTT FDIK        TELAPSE     1038.53 TCPU      970.73
 INSULATING STATE
 TOP OF VALENCE BANDS -    BAND    244; K    4; EIG -2.4391627E-01 AU
 TOP OF VALENCE BANDS -    BAND    244; K    1; EIG -2.4714012E-01 AU
 BOTTOM OF VIRTUAL BANDS - BAND    245; K    1; EIG -1.2658500E-01 AU
 INDIRECT ENERGY BAND GAP:   3.1927 eV
 TTTTTTTTTTTTTTTTTTTTTTTTTTTTTT PDIG        TELAPSE     1039.22 TCPU      971.42
 TOTAL ATOMIC CHARGES:
   1.1647122   1.1647122   1.1647122   1.1647122   1.2176869   1.2176869
   1.2176869   1.2176869   6.1735132   6.1735132   6.1735132   6.1735132
   5.8505362   5.8505362   5.8505362   5.8505362   6.2920516   6.2920516
   6.2920516   6.2920516   5.9812587   5.9812587   5.9812587   5.9812587
   5.4968157   5.4968157   5.4968157   5.4968157   5.4201525   5.4201525
   5.4201525   5.4201525   7.1861101   7.1861101   7.1861101   7.1861101
   7.0893467   7.0893467   7.0893467   7.0893467   7.1720535   7.1720535
   7.1720535   7.1720535   7.0402395   7.0402395   7.0402395   7.0402395
   7.0734931   7.0734931   7.0734931   7.0734931  17.2439109  17.2439109
  17.2439109  17.2439109  17.1874639  17.1874639  17.1874639  17.1874639
  28.8006196  28.8420015
 TTTTTTTTTTTTTTTTTTTTTTTTTTTTTT MOQGAD      TELAPSE     1039.26 TCPU      971.47
 TTTTTTTTTTTTTTTTTTTTTTTTTTTTTT SHELLXN     TELAPSE     1110.66 TCPU     1040.48
 TTTTTTTTTTTTTTTTTTTTTTTTTTTTTT MONMO3      TELAPSE     1118.51 TCPU     1048.31
 NUMERICALLY INTEGRATED DENSITY    487.9998746966
 TTTTTTTTTTTTTTTTTTTTTTTTTTTTTT NUMDFT      TELAPSE     1124.83 TCPU     1054.61
 CYC  10 ETOT(AU) -9.247851504468E+03 DETOT -1.02E-04 tst  3.04E-07 PX  1.61E-03
 TTTTTTTTTTTTTTTTTTTTTTTTTTTTTT DIIS        TELAPSE     1125.05 TCPU     1054.83
 DIIS TEST: 0.99406E-04 AT SCF   CYCLE  10 - DIIS ACTIVE - HISTORY:    10 CYCLES
 TTTTTTTTTTTTTTTTTTTTTTTTTTTTTT FDIK        TELAPSE     1139.03 TCPU     1066.64
 INSULATING STATE
 TOP OF VALENCE BANDS -    BAND    244; K    4; EIG -2.4384144E-01 AU
 TOP OF VALENCE BANDS -    BAND    244; K    1; EIG -2.4705512E-01 AU
 BOTTOM OF VIRTUAL BANDS - BAND    245; K    1; EIG -1.2654438E-01 AU
 INDIRECT ENERGY BAND GAP:   3.1918 eV
 TTTTTTTTTTTTTTTTTTTTTTTTTTTTTT PDIG        TELAPSE     1139.72 TCPU     1067.33
 TOTAL ATOMIC CHARGES:
   1.1648527   1.1648527   1.1648527   1.1648527   1.2176896   1.2176896
   1.2176896   1.2176896   6.1716958   6.1716958   6.1716958   6.1716958
   5.8513140   5.8513140   5.8513140   5.8513140   6.2918945   6.2918945
   6.2918945   6.2918945   5.9827065   5.9827065   5.9827065   5.9827065
   5.4975812   5.4975812   5.4975812   5.4975812   5.4221333   5.4221333
   5.4221333   5.4221333   7.1857361   7.1857361   7.1857361   7.1857361
   7.0909411   7.0909411   7.0909411   7.0909411   7.1708348   7.1708348
   7.1708348   7.1708348   7.0404477   7.0404477   7.0404477   7.0404477
   7.0716098   7.0716098   7.0716098   7.0716098  17.2432173  17.2432173
  17.2432173  17.2432173  17.1869848  17.1869848  17.1869848  17.1869848
  28.8000507  28.8413922
 TTTTTTTTTTTTTTTTTTTTTTTTTTTTTT MOQGAD      TELAPSE     1139.77 TCPU     1067.37
 TTTTTTTTTTTTTTTTTTTTTTTTTTTTTT SHELLXN     TELAPSE     1211.39 TCPU     1136.60
 TTTTTTTTTTTTTTTTTTTTTTTTTTTTTT MONMO3      TELAPSE     1219.50 TCPU     1144.69
 NUMERICALLY INTEGRATED DENSITY    487.9998747341
 TTTTTTTTTTTTTTTTTTTTTTTTTTTTTT NUMDFT      TELAPSE     1225.79 TCPU     1150.96
 CYC  11 ETOT(AU) -9.247851515264E+03 DETOT -1.08E-05 tst  4.00E-08 PX  8.44E-04
 TTTTTTTTTTTTTTTTTTTTTTTTTTTTTT DIIS        TELAPSE     1225.98 TCPU     1151.15
 DIIS TEST: 0.20426E-04 AT SCF   CYCLE  11 - DIIS ACTIVE - HISTORY:    11 CYCLES
 TTTTTTTTTTTTTTTTTTTTTTTTTTTTTT FDIK        TELAPSE     1239.55 TCPU     1162.58
 INSULATING STATE
 TOP OF VALENCE BANDS -    BAND    244; K    4; EIG -2.4385081E-01 AU
 TOP OF VALENCE BANDS -    BAND    244; K    1; EIG -2.4706838E-01 AU
 BOTTOM OF VIRTUAL BANDS - BAND    245; K    1; EIG -1.2654995E-01 AU
 INDIRECT ENERGY BAND GAP:   3.1919 eV
 TTTTTTTTTTTTTTTTTTTTTTTTTTTTTT PDIG        TELAPSE     1240.24 TCPU     1163.26
 TOTAL ATOMIC CHARGES:
   1.1648556   1.1648556   1.1648556   1.1648556   1.2177009   1.2177009
   1.2177009   1.2177009   6.1724236   6.1724236   6.1724236   6.1724236
   5.8506806   5.8506806   5.8506806   5.8506806   6.2915833   6.2915833
   6.2915833   6.2915833   5.9825100   5.9825100   5.9825100   5.9825100
   5.4971197   5.4971197   5.4971197   5.4971197   5.4215103   5.4215103
   5.4215103   5.4215103   7.1872083   7.1872083   7.1872083   7.1872083
   7.0892990   7.0892990   7.0892990   7.0892990   7.1720481   7.1720481
   7.1720481   7.1720481   7.0395946   7.0395946   7.0395946   7.0395946
   7.0720512   7.0720512   7.0720512   7.0720512  17.2439389  17.2439389
  17.2439389  17.2439389  17.1870153  17.1870153  17.1870153  17.1870153
  28.8000573  28.8417844
 TTTTTTTTTTTTTTTTTTTTTTTTTTTTTT MOQGAD      TELAPSE     1240.28 TCPU     1163.31
 TTTTTTTTTTTTTTTTTTTTTTTTTTTTTT SHELLXN     TELAPSE     1311.53 TCPU     1232.23
 TTTTTTTTTTTTTTTTTTTTTTTTTTTTTT MONMO3      TELAPSE     1319.78 TCPU     1240.46
 NUMERICALLY INTEGRATED DENSITY    487.9998747142
 TTTTTTTTTTTTTTTTTTTTTTTTTTTTTT NUMDFT      TELAPSE     1326.16 TCPU     1246.82
 CYC  12 ETOT(AU) -9.247851516264E+03 DETOT -1.00E-06 tst  5.91E-08 PX  4.11E-04
 TTTTTTTTTTTTTTTTTTTTTTTTTTTTTT DIIS        TELAPSE     1326.35 TCPU     1247.01
 DIIS TEST: 0.16831E-04 AT SCF   CYCLE  12 - DIIS ACTIVE - HISTORY:    12 CYCLES
 TTTTTTTTTTTTTTTTTTTTTTTTTTTTTT FDIK        TELAPSE     1338.99 TCPU     1257.51
 INSULATING STATE
 TOP OF VALENCE BANDS -    BAND    244; K    4; EIG -2.4385519E-01 AU
 TOP OF VALENCE BANDS -    BAND    244; K    1; EIG -2.4706940E-01 AU
 BOTTOM OF VIRTUAL BANDS - BAND    245; K    1; EIG -1.2653966E-01 AU
 INDIRECT ENERGY BAND GAP:   3.1923 eV
 TTTTTTTTTTTTTTTTTTTTTTTTTTTTTT PDIG        TELAPSE     1339.70 TCPU     1258.21
 TOTAL ATOMIC CHARGES:
   1.1647942   1.1647942   1.1647942   1.1647942   1.2177011   1.2177011
   1.2177011   1.2177011   6.1724149   6.1724149   6.1724149   6.1724149
   5.8507272   5.8507272   5.8507272   5.8507272   6.2919747   6.2919747
   6.2919747   6.2919747   5.9823471   5.9823471   5.9823471   5.9823471
   5.4970149   5.4970149   5.4970149   5.4970149   5.4216175   5.4216175
   5.4216175   5.4216175   7.1862519   7.1862519   7.1862519   7.1862519
   7.0904138   7.0904138   7.0904138   7.0904138   7.1711151   7.1711151
   7.1711151   7.1711151   7.0400998   7.0400998   7.0400998   7.0400998
   7.0719189   7.0719189   7.0719189   7.0719189  17.2439143  17.2439143
  17.2439143  17.2439143  17.1871694  17.1871694  17.1871694  17.1871694
  28.8002668  28.8418337
 TTTTTTTTTTTTTTTTTTTTTTTTTTTTTT MOQGAD      TELAPSE     1339.74 TCPU     1258.26
 TTTTTTTTTTTTTTTTTTTTTTTTTTTTTT SHELLXN     TELAPSE     1411.12 TCPU     1327.33
 TTTTTTTTTTTTTTTTTTTTTTTTTTTTTT MONMO3      TELAPSE     1419.30 TCPU     1335.49
 NUMERICALLY INTEGRATED DENSITY    487.9998747248
 TTTTTTTTTTTTTTTTTTTTTTTTTTTTTT NUMDFT      TELAPSE     1425.60 TCPU     1341.77
 CYC  13 ETOT(AU) -9.247851518633E+03 DETOT -2.37E-06 tst  2.68E-08 PX  2.63E-04
 TTTTTTTTTTTTTTTTTTTTTTTTTTTTTT DIIS        TELAPSE     1425.79 TCPU     1341.96
[...]
 DIIS TEST: 0.45896E-02 AT CPHF  CYCLE   8 - DIIS ACTIVE - HISTORY:     8 CYCLES
 CYCLE   8   ALPHA 1228.574298  EPSILON    3.880286  DELTA    3.0594E-01
 TTTTTTTTTTTTTTTTTTTTTTTTTTTTTT MOQGAD      TELAPSE   142242.86 TCPU   141393.92
 TTTTTTTTTTTTTTTTTTTTTTTTTTTTTT CP_MONMON   TELAPSE   142272.68 TCPU   141423.66
 DIIS TEST: 0.35543E-03 AT CPHF  CYCLE   9 - DIIS ACTIVE - HISTORY:     9 CYCLES
 CYCLE   9   ALPHA 1228.521865  EPSILON    3.880163  DELTA   -5.2433E-02
 TTTTTTTTTTTTTTTTTTTTTTTTTTTTTT MOQGAD      TELAPSE   143687.47 TCPU   142832.26
 TTTTTTTTTTTTTTTTTTTTTTTTTTTTTT CP_MONMON   TELAPSE   143717.06 TCPU   142861.75
 DIIS TEST: 0.14623E-03 AT CPHF  CYCLE  10 - DIIS ACTIVE - HISTORY:    10 CYCLES
 CYCLE  10   ALPHA 1228.509917  EPSILON    3.880135  DELTA   -1.1948E-02
 TTTTTTTTTTTTTTTTTTTTTTTTTTTTTT MOQGAD      TELAPSE   145130.98 TCPU   144267.54
 TTTTTTTTTTTTTTTTTTTTTTTTTTTTTT CP_MONMON   TELAPSE   145160.78 TCPU   144297.25
 DIIS TEST: 0.10122E-04 AT CPHF  CYCLE  11 - DIIS ACTIVE - HISTORY:    11 CYCLES
 CYCLE  11   ALPHA 1228.487706  EPSILON    3.880083  DELTA   -2.2211E-02
 TTTTTTTTTTTTTTTTTTTTTTTTTTTTTT MOQGAD      TELAPSE   146576.02 TCPU   145706.90
 TTTTTTTTTTTTTTTTTTTTTTTTTTTTTT CP_MONMON   TELAPSE   146605.52 TCPU   145736.33
 DIIS TEST: 0.14975E-05 AT CPHF  CYCLE  12 - DIIS ACTIVE - HISTORY:    12 CYCLES
 CYCLE  12   ALPHA 1228.484200  EPSILON    3.880075  DELTA   -3.5055E-03
 TTTTTTTTTTTTTTTTTTTTTTTTTTTTTT MOQGAD      TELAPSE   148021.29 TCPU   147143.60
 TTTTTTTTTTTTTTTTTTTTTTTTTTTTTT CP_MONMON   TELAPSE   148050.80 TCPU   147173.01
 DIIS TEST: 0.15793E-06 AT CPHF  CYCLE  13 - DIIS ACTIVE - HISTORY:    13 CYCLES
 CYCLE  13   ALPHA 1228.482789  EPSILON    3.880072  DELTA   -1.4116E-03
 TTTTTTTTTTTTTTTTTTTTTTTTTTTTTT MOQGAD      TELAPSE   149468.19 TCPU   148582.37
 TTTTTTTTTTTTTTTTTTTTTTTTTTTTTT CP_MONMON   TELAPSE   149497.77 TCPU   148611.85
 DIIS TEST: 0.12493E-07 AT CPHF  CYCLE  14 - DIIS ACTIVE - HISTORY:    14 CYCLES
 CYCLE  14   ALPHA 1228.482529  EPSILON    3.880071  DELTA   -2.5931E-04
 TTTTTTTTTTTTTTTTTTTTTTTTTTTTTT CP_SC       TELAPSE   149624.81 TCPU   148736.79

 *******************************************************************************

 ELECTRIC FIELD APPLIED ALONG CARTESIAN DIRECTION Z

 *******************************************************************************
 THE NUMBER OF SYMMETRY OPERATORS HAS BEEN REDUCED FROM  4 TO  1

 NEW GRID IN RECIPROCAL SPACE
 *******************************************************************************
 POINTS IN THE IBZ                  14 SHRINKING FACTORS               3  3  3
 *******************************************************************************
 *** K POINTS COORDINATES (OBLIQUE COORDINATES IN UNITS OF SHRINK FAC. )
   1-R(  0  0  0)   2-C(  1  0  0)   3-C(  0  1  2)   4-C(  2  0  1)
   5-C(  0  2  0)   6-C(  1  1  0)   7-C(  1  1  1)   8-C(  1  0  1)
   9-C(  0  1  1)  10-C(  2  1  0)  11-C(  0  0  2)  12-C(  2  1  1)
  13-C(  2  1  2)  14-C(  2  2  1)

 GCALCO - MAX INDICES DIRECT LATTICE VECTOR    14    14    16
 NO.OF VECTORS CREATED 6999 STARS  481 RMAX   207.87203 BOHR
 TTTTTTTTTTTTTTTTTTTTTTTTTTTTTT gordsh1     TELAPSE   149675.17 TCPU   148786.67

 MATRIX SIZE: P(G) 1774808, F(G)  888110, P(G) IRR  889764, F(G) IRR  889764
 MAX G-VECTOR INDEX FOR 1- AND 2-ELECTRON INTEGRALS  63

 TTTTTTTTTTTTTTTTTTTTTTTTTTTTTT INPUT       TELAPSE   149708.86 TCPU   148820.04
 TTTTTTTTTTTTTTTTTTTTTTTTTTTTTT SYMM        TELAPSE   149708.86 TCPU   148820.04

 ***** NEW REFERENCE GEOMETRY *****
 TTTTTTTTTTTTTTTTTTTTTTTTTTTTTT INT_SCREEN  TELAPSE   149708.88 TCPU   148820.05
 INFORMATION **** EXCBUF **** EXCH. BIPO BUFFER: WORDS USED =           0

 DFT PARAMETERS

     ATOM       ELECTRONS   NET CHARGE   R(ANGSTROM)
   1   1  H       1.0000      0.0000     1.11000000
   9   6  C       6.0000      0.0000     0.77000000
  33   7  N       7.0000      0.0000     0.74000000
  53  17  CL     17.0000      0.0000     0.99000000
  61  30  ZN     30.0000      0.0000     1.37000000

 SIZE OF GRID=    1902062
 TTTTTTTTTTTTTTTTTTTTTTTTTTTTTT MAKE_GRID2  TELAPSE   149711.07 TCPU   148822.24
 BECKE WEIGHT FUNCTION
 RADSAFE =     2.00
 TOLERANCES - DENSITY:10**- 6; POTENTIAL:10**- 9; GRID WGT:10**-14

 RADIAL INTEGRATION  - INTERVALS (POINTS,UPPER LIMIT):            1( 75,  4.0*R)

 ANGULAR INTEGRATION - INTERVALS (ACCURACY LEVEL [N. POINTS] UPPER LIMIT):
  1(  4[  86]   0.2)  2(  8[ 194]   0.5)  3( 12[ 350]   0.9)  4( 16[ 974]   3.5)
  5( 12[ 350]9999.0)
 TTTTTTTTTTTTTTTTTTTTTTTTTTTTTT INT_CALC    TELAPSE   149711.18 TCPU   148822.35
 CYCLE   0   ALPHA  855.698820  EPSILON    3.006112  DELTA    8.5570E+02
 TTTTTTTTTTTTTTTTTTTTTTTTTTTTTT MOQGAD      TELAPSE   151121.81 TCPU   150227.15
 TTTTTTTTTTTTTTTTTTTTTTTTTTTTTT CP_MONMON   TELAPSE   151151.51 TCPU   150256.77
 DIIS TEST: 0.16252E+03 AT CPHF  CYCLE   1 - MIX    0 %
 CYCLE   1   ALPHA  283.585573  EPSILON    1.664842  DELTA   -5.7211E+02
 TTTTTTTTTTTTTTTTTTTTTTTTTTTTTT MOQGAD      TELAPSE   152567.62 TCPU   151664.81
 TTTTTTTTTTTTTTTTTTTTTTTTTTTTTT CP_MONMON   TELAPSE   152597.28 TCPU   151694.37
 DIIS TEST: 0.16988E+04 AT CPHF  CYCLE   2 - DIIS ACTIVE - HISTORY:     2 CYCLES
 CYCLE   2   ALPHA  600.640126  EPSILON    2.408149  DELTA    3.1705E+02
 TTTTTTTTTTTTTTTTTTTTTTTTTTTTTT MOQGAD      TELAPSE   154016.57 TCPU   153103.87
 TTTTTTTTTTTTTTTTTTTTTTTTTTTTTT CP_MONMON   TELAPSE   154046.19 TCPU   153133.40
 DIIS TEST: 0.29342E+02 AT CPHF  CYCLE   3 - DIIS ACTIVE - HISTORY:     3 CYCLES
 CYCLE   3   ALPHA  648.088636  EPSILON    2.519388  DELTA    4.7449E+01
 TTTTTTTTTTTTTTTTTTTTTTTTTTTTTT MOQGAD      TELAPSE   155461.29 TCPU   154540.15
 TTTTTTTTTTTTTTTTTTTTTTTTTTTTTT CP_MONMON   TELAPSE   155493.24 TCPU   154569.83
 DIIS TEST: 0.83638E+01 AT CPHF  CYCLE   4 - DIIS ACTIVE - HISTORY:     4 CYCLES
 CYCLE   4   ALPHA  651.430829  EPSILON    2.527223  DELTA    3.3422E+00
 TTTTTTTTTTTTTTTTTTTTTTTTTTTTTT MOQGAD      TELAPSE   156922.55 TCPU   155987.21
 TTTTTTTTTTTTTTTTTTTTTTTTTTTTTT CP_MONMON   TELAPSE   156952.46 TCPU   156017.05
 DIIS TEST: 0.41357E+00 AT CPHF  CYCLE   5 - DIIS ACTIVE - HISTORY:     5 CYCLES
 CYCLE   5   ALPHA  652.190716  EPSILON    2.529005  DELTA    7.5989E-01
 TTTTTTTTTTTTTTTTTTTTTTTTTTTTTT MOQGAD      TELAPSE   158367.64 TCPU   157425.57
 TTTTTTTTTTTTTTTTTTTTTTTTTTTTTT CP_MONMON   TELAPSE   158397.54 TCPU   157455.39
 DIIS TEST: 0.58150E-01 AT CPHF  CYCLE   6 - DIIS ACTIVE - HISTORY:     6 CYCLES
 CYCLE   6   ALPHA  652.877401  EPSILON    2.530615  DELTA    6.8669E-01
 TTTTTTTTTTTTTTTTTTTTTTTTTTTTTT MOQGAD      TELAPSE   159812.31 TCPU   158856.83
 TTTTTTTTTTTTTTTTTTTTTTTTTTTTTT CP_MONMON   TELAPSE   159841.97 TCPU   158886.39
 DIIS TEST: 0.12878E-01 AT CPHF  CYCLE   7 - DIIS ACTIVE - HISTORY:     7 CYCLES
 CYCLE   7   ALPHA  652.997660  EPSILON    2.530897  DELTA    1.2026E-01
 TTTTTTTTTTTTTTTTTTTTTTTTTTTTTT MOQGAD      TELAPSE   161258.77 TCPU   160297.86
 TTTTTTTTTTTTTTTTTTTTTTTTTTTTTT CP_MONMON   TELAPSE   161288.43 TCPU   160327.45
 DIIS TEST: 0.12592E-02 AT CPHF  CYCLE   8 - DIIS ACTIVE - HISTORY:     8 CYCLES
 CYCLE   8   ALPHA  653.033272  EPSILON    2.530980  DELTA    3.5613E-02
 TTTTTTTTTTTTTTTTTTTTTTTTTTTTTT MOQGAD      TELAPSE   162704.26 TCPU   161735.11
 TTTTTTTTTTTTTTTTTTTTTTTTTTTTTT CP_MONMON   TELAPSE   162733.92 TCPU   161764.69
 DIIS TEST: 0.35578E-03 AT CPHF  CYCLE   9 - DIIS ACTIVE - HISTORY:     9 CYCLES
 CYCLE   9   ALPHA  653.008833  EPSILON    2.530923  DELTA   -2.4439E-02
 TTTTTTTTTTTTTTTTTTTTTTTTTTTTTT MOQGAD      TELAPSE   164150.71 TCPU   163175.87
 TTTTTTTTTTTTTTTTTTTTTTTTTTTTTT CP_MONMON   TELAPSE   164180.39 TCPU   163205.46
 DIIS TEST: 0.34411E-04 AT CPHF  CYCLE  10 - DIIS ACTIVE - HISTORY:    10 CYCLES
 CYCLE  10   ALPHA  653.003640  EPSILON    2.530911  DELTA   -5.1931E-03
 TTTTTTTTTTTTTTTTTTTTTTTTTTTTTT MOQGAD      TELAPSE   165595.92 TCPU   164610.79
 TTTTTTTTTTTTTTTTTTTTTTTTTTTTTT CP_MONMON   TELAPSE   165625.64 TCPU   164640.40
 DIIS TEST: 0.65566E-05 AT CPHF  CYCLE  11 - DIIS ACTIVE - HISTORY:    11 CYCLES
 CYCLE  11   ALPHA  652.997640  EPSILON    2.530896  DELTA   -5.9999E-03
 TTTTTTTTTTTTTTTTTTTTTTTTTTTTTT MOQGAD      TELAPSE   167041.56 TCPU   166050.79
 TTTTTTTTTTTTTTTTTTTTTTTTTTTTTT CP_MONMON   TELAPSE   167071.49 TCPU   166080.65
 DIIS TEST: 0.41660E-06 AT CPHF  CYCLE  12 - DIIS ACTIVE - HISTORY:    12 CYCLES
 CYCLE  12   ALPHA  652.996462  EPSILON    2.530894  DELTA   -1.1785E-03
 TTTTTTTTTTTTTTTTTTTTTTTTTTTTTT MOQGAD      TELAPSE   168485.51 TCPU   167487.15
 TTTTTTTTTTTTTTTTTTTTTTTTTTTTTT CP_MONMON   TELAPSE   168515.16 TCPU   167516.73
 DIIS TEST: 0.97877E-07 AT CPHF  CYCLE  13 - DIIS ACTIVE - HISTORY:    13 CYCLES
 CYCLE  13   ALPHA  652.996170  EPSILON    2.530893  DELTA   -2.9118E-04
 TTTTTTTTTTTTTTTTTTTTTTTTTTTTTT CP_SC       TELAPSE   168627.70 TCPU   167626.44

 *******************************************************************************

 POLARIZABILITY (ALPHA), DIELECTRIC (EPSILON) AND FIRST-ORDER ELECTRIC
 SUSCEPTIBILITY (CHI(1)) TENSORS (INDEPENDENT COMPONENTS)

  FR.(eV) COMP.   ALPHA(Re,Im)           EPSILON(Re,Im)                CHI(1)
  2.331   XX    1228.4824       0.0000       3.8801       0.0000       2.8801
  2.331   XY      -0.0016       0.0000      -0.0000       0.0000      -0.0000
  2.331   XZ       0.0000       0.0000       0.0000       0.0000       0.0000
  2.331   YY    1228.4825       0.0000       3.8801       0.0000       2.8801
  2.331   YZ      -0.0000       0.0000      -0.0000       0.0000      -0.0000
  2.331   ZZ     652.9962       0.0000       2.5309       0.0000       1.5309

 DIELECTRIC TENSOR

 TENSOR IN PRINCIPAL AXES SYSTEM
 AA  3.880067E+00 BB  3.880075E+00 CC  2.530893E+00

 REFRACTIVE INDICES 
 AA  1.590878E+00 BB  1.969789E+00 CC  1.969791E+00

 OPTICALLY ANISOTROPIC - UNIAXIAL CRYSTAL

 BIREFRINGENCE =  0.3789 (NEGATIVE) - OBLATE OPTICAL ELLIPSOID

 EPSILON=N**2=1+CHI(1)=1+ALPHA*4*PI/V,   4*PI/V=   0.00234 BOHR**(-3)
 ALPHA IN BOHR**3; EPSILON AND CHI(1) ARE DIMENSIONLESS.
 *******************************************************************************


  Pockels Effect beta(-omega;omega,0) with omega=   1.1653 eV


 SIZE OF GRID=    1902062
 TTTTTTTTTTTTTTTTTTTTTTTTTTTTTT MAKE_GRID2  TELAPSE   169155.52 TCPU   168149.58
 BECKE WEIGHT FUNCTION
 RADSAFE =     2.00
 TOLERANCES - DENSITY:10**- 6; POTENTIAL:10**- 9; GRID WGT:10**-14

 RADIAL INTEGRATION  - INTERVALS (POINTS,UPPER LIMIT):            1( 75,  4.0*R)

 ANGULAR INTEGRATION - INTERVALS (ACCURACY LEVEL [N. POINTS] UPPER LIMIT):
  1(  4[  86]   0.2)  2(  8[ 194]   0.5)  3( 12[ 350]   0.9)  4( 16[ 974]   3.5)
  5( 12[ 350]9999.0)

 SIZE OF GRID=    1902062
 TTTTTTTTTTTTTTTTTTTTTTTTTTTTTT MAKE_GRID2  TELAPSE   169158.63 TCPU   168152.17
 BECKE WEIGHT FUNCTION
 RADSAFE =     2.00
 TOLERANCES - DENSITY:10**- 6; POTENTIAL:10**- 9; GRID WGT:10**-14

 RADIAL INTEGRATION  - INTERVALS (POINTS,UPPER LIMIT):            1( 75,  4.0*R)

 ANGULAR INTEGRATION - INTERVALS (ACCURACY LEVEL [N. POINTS] UPPER LIMIT):
  1(  4[  86]   0.2)  2(  8[ 194]   0.5)  3( 12[ 350]   0.9)  4( 16[ 974]   3.5)
  5( 12[ 350]9999.0)
 *******************************************************************************

 DC-POCKELS AND SECOND ELECTRIC SUSCEPTIBILITY (CHI(2))
 TENSORS (INDEPENDENT COMPONENTS)

BETA                                         CHI(2)       d(MKS)       d(cgs)
 *******************************************************************************

     XXX         -0.9435E-03  -0.1106E-05  -0.1075E-05  -0.2565E-07
     XXY         -0.6516E-06  -0.7638E-09  -0.7427E-09  -0.1772E-10
     XXZ          0.1030E+04   0.1208E+01   0.1174E+01   0.2802E-01
     XYX          0.5778E-03   0.6773E-06   0.6586E-06   0.1571E-07
     XYY         -0.7290E-03  -0.8545E-06  -0.8309E-06  -0.1982E-07
     XYZ          0.1473E+02   0.1727E-01   0.1679E-01   0.4006E-03
     XZX          0.1008E+04   0.1182E+01   0.1149E+01   0.2742E-01
     XZY          0.5769E+02   0.6762E-01   0.6575E-01   0.1569E-02
     XZZ         -0.6632E-03  -0.7774E-06  -0.7559E-06  -0.1803E-07
     YXX          0.5713E-03   0.6697E-06   0.6511E-06   0.1553E-07
     YXY         -0.6823E-03  -0.7997E-06  -0.7776E-06  -0.1855E-07
     YXZ          0.1473E+02   0.1726E-01   0.1679E-01   0.4005E-03
     YYX         -0.1669E-03  -0.1956E-06  -0.1902E-06  -0.4538E-08
     YYY          0.1238E-02   0.1451E-05   0.1411E-05   0.3365E-07
     YYZ         -0.1030E+04  -0.1208E+01  -0.1174E+01  -0.2802E-01
     YZX          0.5769E+02   0.6762E-01   0.6575E-01   0.1569E-02
     YZY         -0.1008E+04  -0.1182E+01  -0.1149E+01  -0.2742E-01
     YZZ          0.6188E-03   0.7254E-06   0.7053E-06   0.1683E-07
     ZXX          0.1008E+04   0.1182E+01   0.1149E+01   0.2742E-01
     ZXY          0.5766E+02   0.6759E-01   0.6572E-01   0.1568E-02
     ZXZ         -0.6545E-03  -0.7673E-06  -0.7460E-06  -0.1780E-07
     ZYX          0.5766E+02   0.6759E-01   0.6572E-01   0.1568E-02
     ZYY         -0.1008E+04  -0.1182E+01  -0.1149E+01  -0.2742E-01
     ZYZ          0.6184E-03   0.7249E-06   0.7049E-06   0.1682E-07
     ZZX         -0.1075E-03  -0.1260E-06  -0.1225E-06  -0.2922E-08
     ZZY          0.1297E-04   0.1520E-07   0.1478E-07   0.3527E-09
     ZZZ         -0.6122E-02  -0.7176E-05  -0.6978E-05  -0.1665E-06
 *******************************************************************************
 CHI(2) = BETA*2PI/V

 BETA AND CHI(2) IN A.U.:    [BETA] = M**(-1/2) L**(7/2) T
                             [CHI(2)] = 1/F
                             (L=LENGTH, M=MASS, T=TIME, F=FIELD INTENSITY)

 ELECTRIC SUSCEPTIBILITY IN THE SECOND HARMONIC GENERATION (SHG) CONVENTION IS:
                   d(A.U.)= 1/2 CHI(2)
                   d(MKS) = d(A.U.)/0.514220632 pm/V
                   d(CGS) = d(A.U.)/(4PI*1.7152535)  10**(-7) esu

 FIELD INTENSITY: 1 A.U. = 0.514220632*10**(11) V/m = 1.7152535*10**7 esu
 BEWARE:                CHI(2)=P/(E0*F**2)   (MKS)
                        CHI(2)=P/F**2        (CGS)
 WHERE P IS THE POLARIZATION VECTOR AND F IS THE APPLIED ELECTRIC FIELD.
 CONSISTENCY IS  PRESERVED BY MULTIPLYING THE CGS VALUE TIMES THE PERMITTIVITY
 OF THE VACUUM, E0 (CONVERSION FACTORS FROM www.physics.nist.gov/constants).
 IN PARENTHESIS: BETA BEFORE SYMMETRIZATION.

  SHG Effect beta(-2omega;omega,omega) with omega=   1.1653 eV


 SIZE OF GRID=    1902062
 TTTTTTTTTTTTTTTTTTTTTTTTTTTTTT MAKE_GRID2  TELAPSE   169598.79 TCPU   168590.17
 BECKE WEIGHT FUNCTION
 RADSAFE =     2.00
 TOLERANCES - DENSITY:10**- 6; POTENTIAL:10**- 9; GRID WGT:10**-14

 RADIAL INTEGRATION  - INTERVALS (POINTS,UPPER LIMIT):            1( 75,  4.0*R)

 ANGULAR INTEGRATION - INTERVALS (ACCURACY LEVEL [N. POINTS] UPPER LIMIT):
  1(  4[  86]   0.2)  2(  8[ 194]   0.5)  3( 12[ 350]   0.9)  4( 16[ 974]   3.5)
  5( 12[ 350]9999.0)

 SIZE OF GRID=    1902062
 TTTTTTTTTTTTTTTTTTTTTTTTTTTTTT MAKE_GRID2  TELAPSE   169601.37 TCPU   168592.75
 BECKE WEIGHT FUNCTION
 RADSAFE =     2.00
 TOLERANCES - DENSITY:10**- 6; POTENTIAL:10**- 9; GRID WGT:10**-14

 RADIAL INTEGRATION  - INTERVALS (POINTS,UPPER LIMIT):            1( 75,  4.0*R)

 ANGULAR INTEGRATION - INTERVALS (ACCURACY LEVEL [N. POINTS] UPPER LIMIT):
  1(  4[  86]   0.2)  2(  8[ 194]   0.5)  3( 12[ 350]   0.9)  4( 16[ 974]   3.5)
  5( 12[ 350]9999.0)
 *******************************************************************************

 SECOND HARMONIC GENERATION (SHG)  AND SECOND ELECTRIC SUSCEPTIBILITY (CHI(2))
 TENSORS (INDEPENDENT COMPONENTS)

BETA                                         CHI(2)       d(MKS)       d(cgs)
 *******************************************************************************

     XXX         -0.1512E-02  -0.1772E-05  -0.1723E-05  -0.4110E-07
     XXY          0.6675E-03   0.7824E-06   0.7608E-06   0.1815E-07
     XXZ          0.1604E+04   0.1880E+01   0.1828E+01   0.4362E-01
     XYX          0.6675E-03   0.7824E-06   0.7608E-06   0.1815E-07
     XYY         -0.9256E-03  -0.1085E-05  -0.1055E-05  -0.2517E-07
     XYZ         -0.7818E+02  -0.9164E-01  -0.8911E-01  -0.2126E-02
     XZX          0.1604E+04   0.1880E+01   0.1828E+01   0.4362E-01
     XZY         -0.7818E+02  -0.9164E-01  -0.8911E-01  -0.2126E-02
     XZZ         -0.7784E-03  -0.9125E-06  -0.8873E-06  -0.2117E-07
     YXX          0.6899E-03   0.8087E-06   0.7863E-06   0.1876E-07
     YXY         -0.7495E-03  -0.8785E-06  -0.8542E-06  -0.2038E-07
     YXZ         -0.7819E+02  -0.9166E-01  -0.8912E-01  -0.2126E-02
     YYX         -0.7495E-03  -0.8785E-06  -0.8542E-06  -0.2038E-07
     YYY          0.2239E-02   0.2624E-05   0.2552E-05   0.6088E-07
     YYZ         -0.1604E+04  -0.1880E+01  -0.1828E+01  -0.4362E-01
     YZX         -0.7819E+02  -0.9166E-01  -0.8912E-01  -0.2126E-02
     YZY         -0.1604E+04  -0.1880E+01  -0.1828E+01  -0.4362E-01
     YZZ          0.7004E-03   0.8210E-06   0.7983E-06   0.1904E-07
     ZXX          0.1602E+04   0.1878E+01   0.1826E+01   0.4357E-01
     ZXY          0.1090E+03   0.1278E+00   0.1243E+00   0.2964E-02
     ZXZ         -0.7313E-03  -0.8572E-06  -0.8335E-06  -0.1988E-07
     ZYX          0.1090E+03   0.1278E+00   0.1243E+00   0.2964E-02
     ZYY         -0.1602E+04  -0.1878E+01  -0.1826E+01  -0.4357E-01
     ZYZ          0.6509E-03   0.7630E-06   0.7419E-06   0.1770E-07
     ZZX         -0.7313E-03  -0.8572E-06  -0.8335E-06  -0.1988E-07
     ZZY          0.6509E-03   0.7630E-06   0.7419E-06   0.1770E-07
     ZZZ         -0.7924E-02  -0.9288E-05  -0.9031E-05  -0.2155E-06
 *******************************************************************************
 CHI(2) = BETA*2PI/V

 BETA AND CHI(2) IN A.U.:    [BETA] = M**(-1/2) L**(7/2) T
                             [CHI(2)] = 1/F
                             (L=LENGTH, M=MASS, T=TIME, F=FIELD INTENSITY)

 ELECTRIC SUSCEPTIBILITY IN THE SECOND HARMONIC GENERATION (SHG) CONVENTION IS:
                   d(A.U.)= 1/2 CHI(2)
                   d(MKS) = d(A.U.)/0.514220632 pm/V
                   d(CGS) = d(A.U.)/(4PI*1.7152535)  10**(-7) esu

 FIELD INTENSITY: 1 A.U. = 0.514220632*10**(11) V/m = 1.7152535*10**7 esu
 BEWARE:                CHI(2)=P/(E0*F**2)   (MKS)
                        CHI(2)=P/F**2        (CGS)
 WHERE P IS THE POLARIZATION VECTOR AND F IS THE APPLIED ELECTRIC FIELD.
 CONSISTENCY IS  PRESERVED BY MULTIPLYING THE CGS VALUE TIMES THE PERMITTIVITY
 OF THE VACUUM, E0 (CONVERSION FACTORS FROM www.physics.nist.gov/constants).
 IN PARENTHESIS: BETA BEFORE SYMMETRIZATION.

 *******************************************************************************


 GCALCO - MAX INDICES DIRECT LATTICE VECTOR    14    14    16
 NO.OF VECTORS CREATED 6999 STARS  481 RMAX   207.87203 BOHR

 CAPPA:IS1  3;IS2  3;IS3  3; K PTS MONK NET   6; SYMMOPS:K SPACE   8;G SPACE   4

 TTTTTTTTTTTTTTTTTTTTTTTTTTTTTT END         TELAPSE   169601.74 TCPU   168593.11
 EEEEEEEEEE TERMINATION  DATE 13 12 2023 TIME 04:25:58.6
NODE    0 CPU TIME =    168593.113
NODE    1 CPU TIME =    168873.837
NODE    2 CPU TIME =    168722.998
NODE    3 CPU TIME =    168664.688
NODE    4 CPU TIME =    168677.955
NODE    5 CPU TIME =    168866.433
NODE    6 CPU TIME =    168734.582
NODE    7 CPU TIME =    168666.427
NODE    8 CPU TIME =    168665.668
NODE    9 CPU TIME =    168852.921
NODE   10 CPU TIME =    168609.292
NODE   11 CPU TIME =    168508.514
NODE   12 CPU TIME =    168553.362
NODE   13 CPU TIME =    168731.743
NODE   14 CPU TIME =    168615.417
NODE   15 CPU TIME =    168509.156
NODE   16 CPU TIME =    168512.333
NODE   17 CPU TIME =    168731.235
NODE   18 CPU TIME =    168605.791
NODE   19 CPU TIME =    168483.598
NODE   20 CPU TIME =    168529.490
NODE   21 CPU TIME =    168729.029
NODE   22 CPU TIME =    168546.351
NODE   23 CPU TIME =    168468.346
    TOTAL CPU TIME =   4047452.278
trying normal rsh (/usr/bin/rsh)
exec: No such file or directory
trying normal rsh (/usr/bin/rsh)
exec: No such file or directory
trying normal rsh (/usr/bin/rsh)
exec: No such file or directory
trying normal rsh (/usr/bin/rsh)
exec: No such file or directory
