Loading crystal17/1.0.2/intel/19.0
  Loading requirement: intel/19.0 ompi/4.0.1/intel/19.0
          64 PROCESSORS WORKING

         
 *******************************************************************************
 *                                                                             *
 *                               CRYSTAL17                                     *
 *                      public : 1.0.2 - March 1st, 2018                       *
 *                       HTTP://WWW.CRYSTAL.UNITO.IT                           *
 *                                                                             *
 *                              MAIN AUTHORS                                   *
 *                                                                             *
 *  R. DOVESI(1,11), V.R. SAUNDERS(2), C. ROETTI(1,11), R. ORLANDO(1,11),      *
 *  C.M. ZICOVICH-WILSON(1,3), F. PASCALE(4), B. CIVALLERI(1,11),              *
 *  K. DOLL(5), N.M. HARRISON(2,6), I.J. BUSH(7), Ph. D'ARCO(8),               *
 *  M. LLUNELL(9), M. CAUSA'(10), Y. NOEL(8), L. MASCHIO(1,11), A. ERBA(1,11)  *
 *  M. RE'RAT(14), S. CASASSA(1,11)                                            *
 *                                                                             *
 *        CONTRIBUTIONS TO THE CODE HAVE ALSO BEEN GIVEN BY                    *
 *                                                                             *
 *  M. FERRABONE(1,11), M. DE LA PIERRE(1,11), M. FERRERO(1,11),               *
 *  J. BAIMA(1,11), E. ALBANESE(1,11), M.F. PEINTINGER(12), R. BAST(13),       *
 *  B. KIRTMAN(15), V. LACIVITA(1,11), R. DEMICHELIS(1,16)                     *
 *  G. BRANDEBURG(17), S. SALUSTRO(1,11), G. SANSONE(1,11)                     *
 *  M.T. RUGGIERO(18)                                                          *
 *                                                                             *
 * (1) THEORETICAL CHEMISTRY GROUP - UNIVERSITA' DI TORINO - TORINO (ITALY)    *
 * (2) COMPUTATIONAL SCIENCE & ENGINEERING DEPARTMENT - STFC DARESBURY (UK)    *
 * (3) UNIVERSIDAD AUTONOMA DEL ESTADO DE MORELOS - CUERNAVACA (MEXICO)        *
 * (4) UNIVERSITE' DE LORRAINE - NANCY (FRANCE)                                *
 * (5) UNIVERSITAET STUTTGART- STUTTGART (GERMANY)                             *
 * (6) IMPERIAL COLLEGE - LONDON (UK)                                          *
 * (7) OXFORD E-RESEARCH CENTRE - OXFORD (UK)                                  *
 * (8) UPMC - SORBONNE UNIVERSITES - PARIS (FRANCE)                            *
 * (9) UNIVERSIDAD DE BARCELONA - BARCELONA (SPAIN)                            *
 *(10) UNIVERSITA' DI NAPOLI "FEDERICO II" - NAPOLI (ITALY)                    *
 *(11) NIS - NANOSTRUCTURED INTERFACES AND SURFACES - TORINO (ITALY)           *
 *(12) MPI FUER CHEMISCHE ENERGIEKONVERSION - MUELHEIM AN DER RUHR (GERMANY)   *
 *(13) UNIVERSITY OF TROMSO - TROMSO (NORWAY)                                  *
 *(14) UNIVERSITE' DE PAU ET DES PAYS DE L'ADOUR - PAU (FRANCE)                *
 *(15) UNIVERSITY OF CALIFORNIA SANTA BARBARA - SANTA BARBARA (USA)            *
 *(16) CURTIN UNIVERSITY - PERTH (AUSTRALIA)                                   *
 *(17) UNIVERSITY COLLEGE LONDON - LONDON (UK)                                 *
 *(18) CAMBRIDGE UNIVERSITY - CAMBRIDGE (UK)                                   *
 *                                                                             *
 *******************************************************************************
 EEEEEEEEEE STARTING  DATE 08 03 2024 TIME 15:04:23.5
 Z:\home\sanoj\Downloads\tmp_p\newconn.mol                                       

 CRYSTAL CALCULATION
 (INPUT ACCORDING TO THE INTERNATIONAL TABLES FOR X-RAY CRYSTALLOGRAPHY)
 CRYSTAL FAMILY                       :  TETRAGONAL  
 CRYSTAL CLASS  (GROTH - 1921)        :  TETRAGONAL DISPHENOIDAL              

 SPACE GROUP (NONCENTROSYMMETRIC)     :  I -4            

 LATTICE PARAMETERS  (ANGSTROMS AND DEGREES) - CONVENTIONAL CELL
        A           B           C        ALPHA        BETA       GAMMA
    11.73031    11.73031    12.95694    90.00000    90.00000    90.00000


 NUMBER OF IRREDUCIBLE ATOMS IN THE CONVENTIONAL CELL:   17

 INPUT COORDINATES

 ATOM AT. N.              COORDINATES
   1   1    -4.232000000000E-02  6.419300000000E-01  1.008300000000E-01
   2   6     7.750400000000E-01  6.646500000000E-01  1.205500000000E-01
   3   6     7.575600000000E-01  5.425400000000E-01  1.290500000000E-01
   4   6     6.893800000000E-01  7.488200000000E-01  1.246800000000E-01
   5   6     8.391000000000E-01  8.921000000000E-01  1.218300000000E-01
   6   6     8.886700000000E-01  7.031800000000E-01  1.124400000000E-01
   7   6     2.767900000000E-01  1.367600000000E-01  1.238800000000E-01
   8   7     8.421200000000E-01  4.724800000000E-01  1.656600000000E-01
   9   7     8.005800000000E-01  3.629000000000E-01  1.571000000000E-01
  10   7     6.654200000000E-01  4.792400000000E-01  1.004600000000E-01
  11   7     6.958900000000E-01  3.673500000000E-01  1.190100000000E-01
  12   7    -8.027000000000E-02  8.125500000000E-01  1.157100000000E-01
  13  30     0.000000000000E+00  5.000000000000E-01  2.500000000000E-01
  14  30     0.000000000000E+00  0.000000000000E+00  5.000000000000E-01
  15  35     5.317600000000E-01  7.155900000000E-01  1.313700000000E-01
  16  35     6.177500000000E-01 -1.863000000000E-02  1.242300000000E-01
  17  35     8.769200000000E-01  4.879000000000E-02  1.223300000000E-01

 *******************************************************************************

 << INFORMATION >>: FROM NOW ON, ALL COORDINATES REFER TO THE PRIMITIVE CELL

 *******************************************************************************

 LATTICE PARAMETERS  (ANGSTROMS AND DEGREES) - PRIMITIVE CELL
       A          B          C        ALPHA      BETA     GAMMA        VOLUME
   10.52476   10.52476   10.52476   112.26533 112.26533 104.01687    891.438226

 COORDINATES OF THE EQUIVALENT ATOMS (FRACTIONAL UNITS)

 N. ATOM EQUIV AT. N.          X                  Y                  Z

   1   1   1    1 H    -2.57240000000E-01  5.85100000000E-02 -4.00390000000E-01
   2   1   2    1 H     4.58900000000E-01  1.43150000000E-01  4.00390000000E-01
   3   1   3    1 H    -5.85100000000E-02 -4.58900000000E-01 -3.15750000000E-01
   4   1   4    1 H    -1.43150000000E-01  2.57240000000E-01  3.15750000000E-01

   5   2   1    6 C    -2.14800000000E-01 -1.04410000000E-01  4.39690000000E-01
   6   2   2    6 C     4.55900000000E-01  3.45510000000E-01 -4.39690000000E-01
   7   2   3    6 C     1.04410000000E-01 -4.55900000000E-01 -1.10390000000E-01
   8   2   4    6 C    -3.45510000000E-01  2.14800000000E-01  1.10390000000E-01

   9   3   1    6 C    -3.28410000000E-01 -1.13390000000E-01  3.00100000000E-01
  10   3   2    6 C    -4.13490000000E-01  3.71490000000E-01 -3.00100000000E-01
  11   3   3    6 C     1.13390000000E-01  4.13490000000E-01 -2.15020000000E-01
  12   3   4    6 C    -3.71490000000E-01  3.28410000000E-01  2.15020000000E-01

  13   4   1    6 C    -1.26500000000E-01 -1.85940000000E-01  4.38200000000E-01
  14   4   2    6 C     3.75860000000E-01  4.35300000000E-01 -4.38200000000E-01
  15   4   3    6 C     1.85940000000E-01 -3.75860000000E-01  5.94400000000E-02
  16   4   4    6 C    -4.35300000000E-01  1.26500000000E-01 -5.94400000000E-02

  17   5   1    6 C     1.39300000000E-02 -3.90700000000E-02 -2.68800000000E-01
  18   5   2    6 C     2.29730000000E-01  2.82730000000E-01  2.68800000000E-01
  19   5   3    6 C     3.90700000000E-02 -2.29730000000E-01  5.30000000000E-02
  20   5   4    6 C    -2.82730000000E-01 -1.39300000000E-02 -5.30000000000E-02

  21   6   1    6 C    -1.84380000000E-01  1.11000000000E-03 -4.08150000000E-01
  22   6   2    6 C     4.09260000000E-01  2.23770000000E-01  4.08150000000E-01
  23   6   3    6 C    -1.11000000000E-03 -4.09260000000E-01 -1.85490000000E-01
  24   6   4    6 C    -2.23770000000E-01  1.84380000000E-01  1.85490000000E-01

  25   7   1    6 C     2.60640000000E-01  4.00670000000E-01  4.13550000000E-01
  26   7   2    6 C    -1.28800000000E-02 -1.52910000000E-01 -4.13550000000E-01
  27   7   3    6 C    -4.00670000000E-01  1.28800000000E-02 -1.40030000000E-01
  28   7   4    6 C     1.52910000000E-01 -2.60640000000E-01  1.40030000000E-01

  29   8   1    7 N    -3.61860000000E-01  7.78000000000E-03  3.14600000000E-01
  30   8   2    7 N    -3.06820000000E-01  3.23540000000E-01 -3.14600000000E-01
  31   8   3    7 N    -7.78000000000E-03  3.06820000000E-01 -3.69640000000E-01
  32   8   4    7 N    -3.23540000000E-01  3.61860000000E-01  3.69640000000E-01

  33   9   1    7 N    -4.80000000000E-01 -4.23200000000E-02  1.63480000000E-01
  34   9   2    7 N    -2.05800000000E-01  3.56520000000E-01 -1.63480000000E-01
  35   9   3    7 N     4.23200000000E-02  2.05800000000E-01 -4.37680000000E-01
  36   9   4    7 N    -3.56520000000E-01  4.80000000000E-01  4.37680000000E-01

  37  10   1    7 N    -4.20300000000E-01 -2.34120000000E-01  1.44660000000E-01
  38  10   2    7 N    -3.78780000000E-01  4.35040000000E-01 -1.44660000000E-01
  39  10   3    7 N     2.34120000000E-01  3.78780000000E-01 -1.86180000000E-01
  40  10   4    7 N    -4.35040000000E-01  4.20300000000E-01  1.86180000000E-01

  41  11   1    7 N     4.86360000000E-01 -1.85100000000E-01  6.32400000000E-02
  42  11   2    7 N    -2.48340000000E-01  4.23120000000E-01 -6.32400000000E-02
  43  11   3    7 N     1.85100000000E-01  2.48340000000E-01 -3.28540000000E-01
  44  11   4    7 N    -4.23120000000E-01 -4.86360000000E-01  3.28540000000E-01

  45  12   1    7 N    -7.17400000000E-02  3.54400000000E-02 -2.67720000000E-01
  46  12   2    7 N     3.03160000000E-01  1.95980000000E-01  2.67720000000E-01
  47  12   3    7 N    -3.54400000000E-02 -3.03160000000E-01 -1.07180000000E-01
  48  12   4    7 N    -1.95980000000E-01  7.17400000000E-02  1.07180000000E-01

  49  13   1   30 ZN   -2.50000000000E-01  2.50000000000E-01 -5.00000000000E-01

  50  14   1   30 ZN   -5.00000000000E-01 -5.00000000000E-01  0.00000000000E+00

  51  15   1   35 BR   -1.53040000000E-01 -3.36870000000E-01  2.47350000000E-01
  52  15   2   35 BR    4.15780000000E-01 -4.00390000000E-01 -2.47350000000E-01
  53  15   3   35 BR    3.36870000000E-01 -4.15780000000E-01  1.83830000000E-01
  54  15   4   35 BR    4.00390000000E-01  1.53040000000E-01 -1.83830000000E-01

  55  16   1   35 BR    1.05600000000E-01 -2.58020000000E-01 -4.00880000000E-01
  56  16   2   35 BR    1.42860000000E-01 -4.93520000000E-01  4.00880000000E-01
  57  16   3   35 BR    2.58020000000E-01 -1.42860000000E-01  3.63620000000E-01
  58  16   4   35 BR    4.93520000000E-01 -1.05600000000E-01 -3.63620000000E-01

  59  17   1   35 BR    1.71120000000E-01 -7.50000000000E-04 -7.42900000000E-02
  60  17   2   35 BR    7.35400000000E-02  2.45410000000E-01  7.42900000000E-02
  61  17   3   35 BR    7.50000000000E-04 -7.35400000000E-02  1.71870000000E-01
  62  17   4   35 BR   -2.45410000000E-01 -1.71120000000E-01 -1.71870000000E-01

 NUMBER OF SYMMETRY OPERATORS         :    4
 *******************************************************************************
 * GEOMETRY EDITING - INPUT COORDINATES ARE GIVEN IN ANGSTROM         
 *******************************************************************************

 GEOMETRY NOW FULLY CONSISTENT WITH THE GROUP

 GCALCO - MAX INDICES DIRECT LATTICE VECTOR    14    14    15
 NO.OF VECTORS CREATED 6999 STARS  488 RMAX   215.92170 BOHR

 GEOMETRY FOR WAVE FUNCTION - DIMENSIONALITY OF THE SYSTEM    3
 (NON PERIODIC DIRECTION: LATTICE PARAMETER FORMALLY SET TO 500)
 *******************************************************************************
 LATTICE PARAMETERS (ANGSTROMS AND DEGREES) - BOHR = 0.5291772083 ANGSTROM
 PRIMITIVE CELL - CENTRING CODE 6/0 VOLUME=   891.438226 - DENSITY  3.068 g/cm^3
         A              B              C           ALPHA      BETA       GAMMA 
    10.52476278    10.52476278    10.52476278   112.265328 112.265328 104.016871
 *******************************************************************************
 ATOMS IN THE ASYMMETRIC UNIT   17 - ATOMS IN THE UNIT CELL:   62
     ATOM                 X/A                 Y/B                 Z/C    
 *******************************************************************************
      1 T   1 H    -2.572400000000E-01  5.851000000000E-02 -4.003900000000E-01
      2 F   1 H     4.589000000000E-01  1.431500000000E-01  4.003900000000E-01
      3 F   1 H    -5.851000000000E-02 -4.589000000000E-01 -3.157500000000E-01
      4 F   1 H    -1.431500000000E-01  2.572400000000E-01  3.157500000000E-01
      5 T   6 C    -2.148000000000E-01 -1.044100000000E-01  4.396900000000E-01
      6 F   6 C     4.559000000000E-01  3.455100000000E-01 -4.396900000000E-01
      7 F   6 C     1.044100000000E-01 -4.559000000000E-01 -1.103900000000E-01
      8 F   6 C    -3.455100000000E-01  2.148000000000E-01  1.103900000000E-01
      9 T   6 C    -3.284100000000E-01 -1.133900000000E-01  3.001000000000E-01
     10 F   6 C    -4.134900000000E-01  3.714900000000E-01 -3.001000000000E-01
     11 F   6 C     1.133900000000E-01  4.134900000000E-01 -2.150200000000E-01
     12 F   6 C    -3.714900000000E-01  3.284100000000E-01  2.150200000000E-01
     13 T   6 C    -1.265000000000E-01 -1.859400000000E-01  4.382000000000E-01
     14 F   6 C     3.758600000000E-01  4.353000000000E-01 -4.382000000000E-01
     15 F   6 C     1.859400000000E-01 -3.758600000000E-01  5.944000000000E-02
     16 F   6 C    -4.353000000000E-01  1.265000000000E-01 -5.944000000000E-02
     17 T   6 C     1.393000000000E-02 -3.907000000000E-02 -2.688000000000E-01
     18 F   6 C     2.297300000000E-01  2.827300000000E-01  2.688000000000E-01
     19 F   6 C     3.907000000000E-02 -2.297300000000E-01  5.300000000000E-02
     20 F   6 C    -2.827300000000E-01 -1.393000000000E-02 -5.300000000000E-02
     21 T   6 C    -1.843800000000E-01  1.110000000000E-03 -4.081500000000E-01
     22 F   6 C     4.092600000000E-01  2.237700000000E-01  4.081500000000E-01
     23 F   6 C    -1.110000000000E-03 -4.092600000000E-01 -1.854900000000E-01
     24 F   6 C    -2.237700000000E-01  1.843800000000E-01  1.854900000000E-01
     25 T   6 C     2.606400000000E-01  4.006700000000E-01  4.135500000000E-01
     26 F   6 C    -1.288000000000E-02 -1.529100000000E-01 -4.135500000000E-01
     27 F   6 C    -4.006700000000E-01  1.288000000000E-02 -1.400300000000E-01
     28 F   6 C     1.529100000000E-01 -2.606400000000E-01  1.400300000000E-01
     29 T   7 N    -3.618600000000E-01  7.780000000000E-03  3.146000000000E-01
     30 F   7 N    -3.068200000000E-01  3.235400000000E-01 -3.146000000000E-01
     31 F   7 N    -7.780000000000E-03  3.068200000000E-01 -3.696400000000E-01
     32 F   7 N    -3.235400000000E-01  3.618600000000E-01  3.696400000000E-01
     33 T   7 N    -4.800000000000E-01 -4.232000000000E-02  1.634800000000E-01
     34 F   7 N    -2.058000000000E-01  3.565200000000E-01 -1.634800000000E-01
     35 F   7 N     4.232000000000E-02  2.058000000000E-01 -4.376800000000E-01
     36 F   7 N    -3.565200000000E-01  4.800000000000E-01  4.376800000000E-01
     37 T   7 N    -4.203000000000E-01 -2.341200000000E-01  1.446600000000E-01
     38 F   7 N    -3.787800000000E-01  4.350400000000E-01 -1.446600000000E-01
     39 F   7 N     2.341200000000E-01  3.787800000000E-01 -1.861800000000E-01
     40 F   7 N    -4.350400000000E-01  4.203000000000E-01  1.861800000000E-01
     41 T   7 N     4.863600000000E-01 -1.851000000000E-01  6.324000000000E-02
     42 F   7 N    -2.483400000000E-01  4.231200000000E-01 -6.324000000000E-02
     43 F   7 N     1.851000000000E-01  2.483400000000E-01 -3.285400000000E-01
     44 F   7 N    -4.231200000000E-01 -4.863600000000E-01  3.285400000000E-01
     45 T   7 N    -7.174000000000E-02  3.544000000000E-02 -2.677200000000E-01
     46 F   7 N     3.031600000000E-01  1.959800000000E-01  2.677200000000E-01
     47 F   7 N    -3.544000000000E-02 -3.031600000000E-01 -1.071800000000E-01
     48 F   7 N    -1.959800000000E-01  7.174000000000E-02  1.071800000000E-01
     49 T  30 ZN   -2.500000000000E-01  2.500000000000E-01  5.000000000000E-01
     50 T  30 ZN   -5.000000000000E-01 -5.000000000000E-01  0.000000000000E+00
     51 T  35 BR   -1.530400000000E-01 -3.368700000000E-01  2.473500000000E-01
     52 F  35 BR    4.157800000000E-01 -4.003900000000E-01 -2.473500000000E-01
     53 F  35 BR    3.368700000000E-01 -4.157800000000E-01  1.838300000000E-01
     54 F  35 BR    4.003900000000E-01  1.530400000000E-01 -1.838300000000E-01
     55 T  35 BR    1.056000000000E-01 -2.580200000000E-01 -4.008800000000E-01
     56 F  35 BR    1.428600000000E-01 -4.935200000000E-01  4.008800000000E-01
     57 F  35 BR    2.580200000000E-01 -1.428600000000E-01  3.636200000000E-01
     58 F  35 BR    4.935200000000E-01 -1.056000000000E-01 -3.636200000000E-01
     59 T  35 BR    1.711200000000E-01 -7.500000000000E-04 -7.429000000000E-02
     60 F  35 BR    7.354000000000E-02  2.454100000000E-01  7.429000000000E-02
     61 F  35 BR    7.500000000000E-04 -7.354000000000E-02  1.718700000000E-01
     62 F  35 BR   -2.454100000000E-01 -1.711200000000E-01 -1.718700000000E-01

 TRANSFORMATION MATRIX PRIMITIVE-CRYSTALLOGRAPHIC CELL
  0.0000  1.0000  1.0000  1.0000  0.0000  1.0000  1.0000  1.0000  0.0000

 *******************************************************************************
 CRYSTALLOGRAPHIC CELL (VOLUME=       1782.87645293)
         A              B              C           ALPHA      BETA       GAMMA 
    11.73030772    11.73030772    12.95693975    90.000000  90.000000  90.000000

 COORDINATES IN THE CRYSTALLOGRAPHIC CELL
     ATOM                 X/A                 Y/B                 Z/C    
 *******************************************************************************
      1 T   1 H    -4.232000000000E-02 -3.580700000000E-01  1.008300000000E-01
      2 F   1 H     4.232000000000E-02  3.580700000000E-01  1.008300000000E-01
      3 F   1 H    -3.580700000000E-01  4.232000000000E-02 -1.008300000000E-01
      4 F   1 H     3.580700000000E-01 -4.232000000000E-02 -1.008300000000E-01
      5 T   6 C    -2.249600000000E-01 -3.353500000000E-01  1.205500000000E-01
      6 F   6 C     2.249600000000E-01  3.353500000000E-01  1.205500000000E-01
      7 F   6 C    -3.353500000000E-01  2.249600000000E-01 -1.205500000000E-01
      8 F   6 C     3.353500000000E-01 -2.249600000000E-01 -1.205500000000E-01
      9 T   6 C     2.575600000000E-01  4.254000000000E-02 -3.709500000000E-01
     10 F   6 C    -2.575600000000E-01 -4.254000000000E-02 -3.709500000000E-01
     11 F   6 C     4.254000000000E-02 -2.575600000000E-01  3.709500000000E-01
     12 F   6 C    -4.254000000000E-02  2.575600000000E-01  3.709500000000E-01
     13 T   6 C    -3.106200000000E-01 -2.511800000000E-01  1.246800000000E-01
     14 F   6 C     3.106200000000E-01  2.511800000000E-01  1.246800000000E-01
     15 F   6 C    -2.511800000000E-01  3.106200000000E-01 -1.246800000000E-01
     16 F   6 C     2.511800000000E-01 -3.106200000000E-01 -1.246800000000E-01
     17 T   6 C    -1.609000000000E-01 -1.079000000000E-01  1.218300000000E-01
     18 F   6 C     1.609000000000E-01  1.079000000000E-01  1.218300000000E-01
     19 F   6 C    -1.079000000000E-01  1.609000000000E-01 -1.218300000000E-01
     20 F   6 C     1.079000000000E-01 -1.609000000000E-01 -1.218300000000E-01
     21 T   6 C    -1.113300000000E-01 -2.968200000000E-01  1.124400000000E-01
     22 F   6 C     1.113300000000E-01  2.968200000000E-01  1.124400000000E-01
     23 F   6 C    -2.968200000000E-01  1.113300000000E-01 -1.124400000000E-01
     24 F   6 C     2.968200000000E-01 -1.113300000000E-01 -1.124400000000E-01
     25 T   6 C     2.767900000000E-01  1.367600000000E-01  1.238800000000E-01
     26 F   6 C    -2.767900000000E-01 -1.367600000000E-01  1.238800000000E-01
     27 F   6 C     1.367600000000E-01 -2.767900000000E-01 -1.238800000000E-01
     28 F   6 C    -1.367600000000E-01  2.767900000000E-01 -1.238800000000E-01
     29 T   7 N     3.421200000000E-01 -2.752000000000E-02 -3.343400000000E-01
     30 F   7 N    -3.421200000000E-01  2.752000000000E-02 -3.343400000000E-01
     31 F   7 N    -2.752000000000E-02 -3.421200000000E-01  3.343400000000E-01
     32 F   7 N     2.752000000000E-02  3.421200000000E-01  3.343400000000E-01
     33 T   7 N    -1.994200000000E-01  3.629000000000E-01  1.571000000000E-01
     34 F   7 N     1.994200000000E-01 -3.629000000000E-01  1.571000000000E-01
     35 F   7 N     3.629000000000E-01  1.994200000000E-01 -1.571000000000E-01
     36 F   7 N    -3.629000000000E-01 -1.994200000000E-01 -1.571000000000E-01
     37 T   7 N     1.654200000000E-01 -2.076000000000E-02 -3.995400000000E-01
     38 F   7 N    -1.654200000000E-01  2.076000000000E-02 -3.995400000000E-01
     39 F   7 N    -2.076000000000E-02 -1.654200000000E-01  3.995400000000E-01
     40 F   7 N     2.076000000000E-02  1.654200000000E-01  3.995400000000E-01
     41 T   7 N     1.958900000000E-01 -1.326500000000E-01 -3.809900000000E-01
     42 F   7 N    -1.958900000000E-01  1.326500000000E-01 -3.809900000000E-01
     43 F   7 N    -1.326500000000E-01 -1.958900000000E-01  3.809900000000E-01
     44 F   7 N     1.326500000000E-01  1.958900000000E-01  3.809900000000E-01
     45 T   7 N    -8.027000000000E-02 -1.874500000000E-01  1.157100000000E-01
     46 F   7 N     8.027000000000E-02  1.874500000000E-01  1.157100000000E-01
     47 F   7 N    -1.874500000000E-01  8.027000000000E-02 -1.157100000000E-01
     48 F   7 N     1.874500000000E-01 -8.027000000000E-02 -1.157100000000E-01
     49 T  30 ZN   -4.006747205482E-17 -5.000000000000E-01  2.500000000000E-01
     50 T  30 ZN    0.000000000000E+00  0.000000000000E+00 -5.000000000000E-01
     51 T  35 BR    3.176000000000E-02  2.155900000000E-01 -3.686300000000E-01
     52 F  35 BR   -3.176000000000E-02 -2.155900000000E-01 -3.686300000000E-01
     53 F  35 BR    2.155900000000E-01 -3.176000000000E-02  3.686300000000E-01
     54 F  35 BR   -2.155900000000E-01  3.176000000000E-02  3.686300000000E-01
     55 T  35 BR   -3.822500000000E-01 -1.863000000000E-02  1.242300000000E-01
     56 F  35 BR    3.822500000000E-01  1.863000000000E-02  1.242300000000E-01
     57 F  35 BR   -1.863000000000E-02  3.822500000000E-01 -1.242300000000E-01
     58 F  35 BR    1.863000000000E-02 -3.822500000000E-01 -1.242300000000E-01
     59 T  35 BR   -1.230800000000E-01  4.879000000000E-02  1.223300000000E-01
     60 F  35 BR    1.230800000000E-01 -4.879000000000E-02  1.223300000000E-01
     61 F  35 BR    4.879000000000E-02  1.230800000000E-01 -1.223300000000E-01
     62 F  35 BR   -4.879000000000E-02 -1.230800000000E-01 -1.223300000000E-01

 T = ATOM BELONGING TO THE ASYMMETRIC UNIT

 ****    4 SYMMOPS - TRANSLATORS IN FRACTIONAL UNITS
 **** MATRICES AND TRANSLATORS IN THE CRYSTALLOGRAPHIC REFERENCE FRAME
   V INV                    ROTATION MATRICES                   TRANSLATORS
   1   1  1.00  0.00  0.00  0.00  1.00  0.00  0.00  0.00  1.00  0.00  0.00  0.00
   2   2  0.00  1.00 -1.00  1.00  0.00 -1.00 -0.00  0.00 -1.00  0.00  0.00  0.00
   3   4 -0.00 -1.00  0.00 -0.00 -1.00  1.00  1.00 -1.00  0.00  0.00  0.00  0.00
   4   3 -1.00 -0.00  1.00 -1.00 -0.00  0.00 -1.00  1.00 -0.00  0.00  0.00  0.00

 DIRECT LATTICE VECTORS CARTESIAN COMPONENTS (ANGSTROM)
          X                    Y                    Z
  -0.586515385805E+01   0.586515385805E+01   0.647846987490E+01
   0.586515385805E+01  -0.586515385805E+01   0.647846987490E+01
   0.586515385805E+01   0.586515385805E+01  -0.647846987490E+01


 CARTESIAN COORDINATES - PRIMITIVE CELL
 *******************************************************************************
 *      ATOM          X(ANGSTROM)         Y(ANGSTROM)         Z(ANGSTROM)
 *******************************************************************************
    1     1 H    -4.964266225454E-01 -4.200271283904E+00  1.306448234972E+00
    2     1 H     4.964266225454E-01  4.200271283904E+00  1.306448234972E+00
    3     1 H    -4.200271283904E+00  4.964266225454E-01 -1.306448234972E+00
    4     1 H     4.200271283904E+00 -4.964266225454E-01 -1.306448234972E+00
    5     6 C    -2.638850023814E+00 -3.933758692594E+00  1.561959086838E+00
    6     6 C     2.638850023814E+00  3.933758692594E+00  1.561959086838E+00
    7     6 C    -3.933758692594E+00  2.638850023814E+00 -1.561959086838E+00
    8     6 C     3.933758692594E+00 -2.638850023814E+00 -1.561959086838E+00
    9     6 C     3.021258055359E+00  4.990072902429E-01 -4.806376800188E+00
   10     6 C    -3.021258055359E+00 -4.990072902429E-01 -4.806376800188E+00
   11     6 C     4.990072902429E-01 -3.021258055359E+00  4.806376800188E+00
   12     6 C    -4.990072902429E-01  3.021258055359E+00  4.806376800188E+00
   13     6 C    -3.643668182775E+00 -2.946418692130E+00  1.615471248005E+00
   14     6 C     3.643668182775E+00  2.946418692130E+00  1.615471248005E+00
   15     6 C    -2.946418692130E+00  3.643668182775E+00 -1.615471248005E+00
   16     6 C     2.946418692130E+00 -3.643668182775E+00 -1.615471248005E+00
   17     6 C    -1.887406511520E+00 -1.265700202567E+00  1.578543969718E+00
   18     6 C     1.887406511520E+00  1.265700202567E+00  1.578543969718E+00
   19     6 C    -1.265700202567E+00  1.887406511520E+00 -1.578543969718E+00
   20     6 C     1.265700202567E+00 -1.887406511520E+00 -1.578543969718E+00
   21     6 C    -1.305935158033E+00 -3.481789936293E+00  1.456878305468E+00
   22     6 C     1.305935158033E+00  3.481789936293E+00  1.456878305468E+00
   23     6 C    -3.481789936293E+00  1.305935158033E+00 -1.456878305468E+00
   24     6 C     3.481789936293E+00 -1.305935158033E+00 -1.456878305468E+00
   25     6 C     3.246831872739E+00  1.604236883254E+00  1.605105696205E+00
   26     6 C    -3.246831872739E+00 -1.604236883254E+00  1.605105696205E+00
   27     6 C     1.604236883254E+00 -3.246831872739E+00 -1.605105696205E+00
   28     6 C    -1.604236883254E+00  3.246831872739E+00 -1.605105696205E+00
   29     7 N     4.013172875832E+00 -3.228180683471E-01 -4.332023235948E+00
   30     7 N    -4.013172875832E+00  3.228180683471E-01 -4.332023235948E+00
   31     7 N    -3.228180683471E-01 -4.013172875832E+00  4.332023235948E+00
   32     7 N     3.228180683471E-01  4.013172875832E+00  4.332023235948E+00
   33     7 N    -2.339257964745E+00  4.256928670173E+00  2.035535234694E+00
   34     7 N     2.339257964745E+00 -4.256928670173E+00  2.035535234694E+00
   35     7 N     4.256928670173E+00  2.339257964745E+00 -2.035535234694E+00
   36     7 N    -4.256928670173E+00 -2.339257964745E+00 -2.035535234694E+00
   37     7 N     1.940427502397E+00 -2.435211881862E-01 -5.176815707635E+00
   38     7 N    -1.940427502397E+00  2.435211881862E-01 -5.176815707635E+00
   39     7 N    -2.435211881862E-01 -1.940427502397E+00  5.176815707635E+00
   40     7 N     2.435211881862E-01  1.940427502397E+00  5.176815707635E+00
   41     7 N     2.297849978507E+00 -1.556025318541E+00 -4.936464475276E+00
   42     7 N    -2.297849978507E+00  1.556025318541E+00 -4.936464475276E+00
   43     7 N    -1.556025318541E+00 -2.297849978507E+00  4.936464475276E+00
   44     7 N     1.556025318541E+00  2.297849978507E+00  4.936464475276E+00
   45     7 N    -9.415918003713E-01 -2.198846181383E+00  1.499247498449E+00
   46     7 N     9.415918003713E-01  2.198846181383E+00  1.499247498449E+00
   47     7 N    -2.198846181383E+00  9.415918003713E-01 -1.499247498449E+00
   48     7 N     2.198846181383E+00 -9.415918003713E-01 -1.499247498449E+00
   49    30 ZN   -4.700037766092E-16  5.865153858050E+00 -9.717704812350E+00
   50    30 ZN    0.000000000000E+00  0.000000000000E+00  6.478469874900E+00
   51    35 BR    3.725545730633E-01  2.528937040514E+00 -4.776316699969E+00
   52    35 BR   -3.725545730633E-01 -2.528937040514E+00 -4.776316699969E+00
   53    35 BR    2.528937040514E+00 -3.725545730633E-01  4.776316699969E+00
   54    35 BR   -2.528937040514E+00  3.725545730633E-01  4.776316699969E+00
   55    35 BR   -4.483910124479E+00 -2.185356327509E-01  1.609640625118E+00
   56    35 BR    4.483910124479E+00  2.185356327509E-01  1.609640625118E+00
   57    35 BR   -2.185356327509E-01  4.483910124479E+00 -1.609640625118E+00
   58    35 BR    2.185356327509E-01 -4.483910124479E+00 -1.609640625118E+00
   59    35 BR   -1.443766273698E+00  5.723217134685E-01  1.585022439593E+00
   60    35 BR    1.443766273698E+00 -5.723217134685E-01  1.585022439593E+00
   61    35 BR    5.723217134685E-01  1.443766273698E+00 -1.585022439593E+00
   62    35 BR   -5.723217134685E-01 -1.443766273698E+00 -1.585022439593E+00

 *******************************************************************************
 STARTING BASIS SET HANDLING 
 *******************************************************************************

 Loading internal basis set: POB-DZVPP           

 Please cite in your publication:
 Peintinger, M. F., Oliveira, D. V. and Bredow, T. (2013), Generally applicable 
 solid-state Gaussian basis sets, in preparation                                
                                                                                
                    

 *******************************************************************************
 LOCAL ATOMIC FUNCTIONS BASIS SET
 *******************************************************************************
   ATOM   X(AU)   Y(AU)   Z(AU)  N. TYPE  EXPONENT  S COEF   P COEF   D/F/G COEF
 *******************************************************************************
   1 H   -0.938  -7.937   2.469
                                  1 S  
                                         2.263E+01 1.441E-02 0.000E+00 0.000E+00
                                         3.236E+00 1.072E-01 0.000E+00 0.000E+00
                                         7.304E-01 3.846E-01 0.000E+00 0.000E+00
                                  2 S  
                                         1.417E-01 1.000E+00 0.000E+00 0.000E+00
                           3-     5 P  
                                         3.944E-01 0.000E+00 1.000E+00 0.000E+00
                           6-     8 P  
                                         1.006E-01 0.000E+00 1.000E+00 0.000E+00
   2 H    0.938   7.937   2.469
   3 H   -7.937   0.938  -2.469
   4 H    7.937  -0.938  -2.469
   5 C   -4.987  -7.434   2.952
                                 33 S  
                                         1.238E+03 5.457E-03 0.000E+00 0.000E+00
                                         1.863E+02 4.064E-02 0.000E+00 0.000E+00
                                         4.225E+01 1.803E-01 0.000E+00 0.000E+00
                                         1.168E+01 4.632E-01 0.000E+00 0.000E+00
                                         3.593E+00 4.409E-01 0.000E+00 0.000E+00
                                 34 S  
                                         5.281E+00 1.000E+00 0.000E+00 0.000E+00
                                 35 S  
                                         4.447E-01 1.000E+00 0.000E+00 0.000E+00
                          36-    38 P  
                                         9.468E+00 0.000E+00 3.839E-02 0.000E+00
                                         2.010E+00 0.000E+00 2.112E-01 0.000E+00
                                         5.477E-01 0.000E+00 5.133E-01 0.000E+00
                          39-    41 P  
                                         1.604E-01 0.000E+00 1.000E+00 0.000E+00
                          42-    46 D  
                                         6.070E-01 0.000E+00 0.000E+00 1.000E+00
                          47-    51 D  
                                         2.939E-01 0.000E+00 0.000E+00 1.000E+00
   6 C    4.987   7.434   2.952
   7 C   -7.434   4.987  -2.952
   8 C    7.434  -4.987  -2.952
   9 C    5.709   0.943  -9.083
  10 C   -5.709  -0.943  -9.083
  11 C    0.943  -5.709   9.083
  12 C   -0.943   5.709   9.083
  13 C   -6.886  -5.568   3.053
  14 C    6.886   5.568   3.053
  15 C   -5.568   6.886  -3.053
  16 C    5.568  -6.886  -3.053
  17 C   -3.567  -2.392   2.983
  18 C    3.567   2.392   2.983
  19 C   -2.392   3.567  -2.983
  20 C    2.392  -3.567  -2.983
  21 C   -2.468  -6.580   2.753
  22 C    2.468   6.580   2.753
  23 C   -6.580   2.468  -2.753
  24 C    6.580  -2.468  -2.753
  25 C    6.136   3.032   3.033
  26 C   -6.136  -3.032   3.033
  27 C    3.032  -6.136  -3.033
  28 C   -3.032   6.136  -3.033
  29 N    7.584  -0.610  -8.186
                                489 S  
                                         1.713E+03-5.393E-03 0.000E+00 0.000E+00
                                         2.576E+02-4.022E-02 0.000E+00 0.000E+00
                                         5.846E+01-1.793E-01 0.000E+00 0.000E+00
                                         1.620E+01-4.638E-01 0.000E+00 0.000E+00
                                         5.005E+00-4.417E-01 0.000E+00 0.000E+00
                                490 S  
                                         6.217E-01 1.000E+00 0.000E+00 0.000E+00
                                491 S  
                                         2.921E-01 1.000E+00 0.000E+00 0.000E+00
                         492-   494 P  
                                         1.357E+01 0.000E+00-4.007E-02 0.000E+00
                                         2.926E+00 0.000E+00-2.181E-01 0.000E+00
                                         7.993E-01 0.000E+00-5.129E-01 0.000E+00
                         495-   497 P  
                                         2.244E-01 0.000E+00 1.000E+00 0.000E+00
                         498-   502 D  
                                         3.118E-01 0.000E+00 0.000E+00 1.000E+00
  30 N   -7.584   0.610  -8.186
  31 N   -0.610  -7.584   8.186
  32 N    0.610   7.584   8.186
  33 N   -4.421   8.044   3.847
  34 N    4.421  -8.044   3.847
  35 N    8.044   4.421  -3.847
  36 N   -8.044  -4.421  -3.847
  37 N    3.667  -0.460  -9.783
  38 N   -3.667   0.460  -9.783
  39 N   -0.460  -3.667   9.783
  40 N    0.460   3.667   9.783
  41 N    4.342  -2.940  -9.329
  42 N   -4.342   2.940  -9.329
  43 N   -2.940  -4.342   9.329
  44 N    2.940   4.342   9.329
  45 N   -1.779  -4.155   2.833
  46 N    1.779   4.155   2.833
  47 N   -4.155   1.779  -2.833
  48 N    4.155  -1.779  -2.833
  49 ZN  -0.000  11.084 -18.364
                                769 S  
                                         8.200E+04 1.421E-03 0.000E+00 0.000E+00
                                         1.231E+04 1.089E-02 0.000E+00 0.000E+00
                                         2.801E+03 5.406E-02 0.000E+00 0.000E+00
                                         7.910E+02 1.885E-01 0.000E+00 0.000E+00
                                         2.576E+02 3.835E-01 0.000E+00 0.000E+00
                                         8.881E+01 2.972E-01 0.000E+00 0.000E+00
                                770 S  
                                         1.719E+02-1.105E-01 0.000E+00 0.000E+00
                                         2.030E+01 6.461E-01 0.000E+00 0.000E+00
                                         8.346E+00 4.422E-01 0.000E+00 0.000E+00
                                771 S  
                                         1.485E+01-2.271E-01 0.000E+00 0.000E+00
                                         2.450E+00 7.243E-01 0.000E+00 0.000E+00
                                         9.985E-01 4.484E-01 0.000E+00 0.000E+00
                                772 S  
                                         1.493E+00 1.000E+00 0.000E+00 0.000E+00
                                773 S  
                                         1.830E-01 1.000E+00 0.000E+00 0.000E+00
                         774-   776 P  
                                         1.072E+03 0.000E+00 9.277E-03 0.000E+00
                                         2.527E+02 0.000E+00 6.954E-02 0.000E+00
                                         8.010E+01 0.000E+00 2.716E-01 0.000E+00
                                         2.890E+01 0.000E+00 5.340E-01 0.000E+00
                                         1.077E+01 0.000E+00 3.450E-01 0.000E+00
                         777-   779 P  
                                         5.645E+00 0.000E+00 3.413E-01 0.000E+00
                                         2.168E+00 0.000E+00 5.639E-01 0.000E+00
                                         8.054E-01 0.000E+00 2.368E-01 0.000E+00
                         780-   782 P  
                                         2.721E-01 0.000E+00 1.000E+00 0.000E+00
                         783-   787 D  
                                         5.609E+01 0.000E+00 0.000E+00 2.959E-02
                                         1.575E+01 0.000E+00 0.000E+00 1.587E-01
                                         5.312E+00 0.000E+00 0.000E+00 3.798E-01
                                         1.774E+00 0.000E+00 0.000E+00 4.690E-01
                         788-   792 D  
                                         5.073E-01 0.000E+00 0.000E+00 1.000E+00
                         793-   799 F  
                                         2.814E+00 0.000E+00 0.000E+00 1.000E+00
                         800-   806 F  
                                         1.300E+00 0.000E+00 0.000E+00 1.000E+00
  50 ZN   0.000   0.000  12.243
  51 BR   0.704   4.779  -9.026
                                845 S  
                                         1.133E+05 1.428E-03 0.000E+00 0.000E+00
                                         1.701E+04 1.095E-02 0.000E+00 0.000E+00
                                         3.870E+03 5.442E-02 0.000E+00 0.000E+00
                                         1.093E+03 1.905E-01 0.000E+00 0.000E+00
                                         3.564E+02 3.902E-01 0.000E+00 0.000E+00
                                         1.231E+02 3.081E-01 0.000E+00 0.000E+00
                                846 S  
                                         2.367E+02-1.123E-01 0.000E+00 0.000E+00
                                         2.847E+01 6.478E-01 0.000E+00 0.000E+00
                                         1.188E+01 4.424E-01 0.000E+00 0.000E+00
                                847 S  
                                         2.127E+01-2.264E-01 0.000E+00 0.000E+00
                                         3.613E+00 7.382E-01 0.000E+00 0.000E+00
                                         1.663E+00 4.268E-01 0.000E+00 0.000E+00
                                848 S  
                                         3.641E-01 1.000E+00 0.000E+00 0.000E+00
                                849 S  
                                         1.243E-01 1.000E+00 0.000E+00 0.000E+00
                         850-   852 P  
                                         1.560E+03 0.000E+00 8.717E-03 0.000E+00
                                         3.685E+02 0.000E+00 6.624E-02 0.000E+00
                                         1.172E+02 0.000E+00 2.650E-01 0.000E+00
                                         4.265E+01 0.000E+00 5.384E-01 0.000E+00
                                         1.609E+01 0.000E+00 3.658E-01 0.000E+00
                         853-   855 P  
                                         8.635E+00 0.000E+00 3.425E-01 0.000E+00
                                         3.561E+00 0.000E+00 5.750E-01 0.000E+00
                                         1.529E+00 0.000E+00 2.433E-01 0.000E+00
                         856-   858 P  
                                         6.447E-01 0.000E+00 1.000E+00 0.000E+00
                         859-   861 P  
                                         2.103E-01 0.000E+00 1.000E+00 0.000E+00
                         862-   866 D  
                                         1.049E+02 0.000E+00 0.000E+00 2.265E-02
                                         3.028E+01 0.000E+00 0.000E+00 1.346E-01
                                         1.065E+01 0.000E+00 0.000E+00 3.647E-01
                                         3.870E+00 0.000E+00 0.000E+00 4.904E-01
                         867-   871 D  
                                         1.342E+00 0.000E+00 0.000E+00 1.000E+00
                         872-   876 D  
                                         4.101E-01 0.000E+00 0.000E+00 1.000E+00
                         877-   881 D  
                                         1.985E-01 0.000E+00 0.000E+00 1.000E+00
  52 BR  -0.704  -4.779  -9.026
  53 BR   4.779  -0.704   9.026
  54 BR  -4.779   0.704   9.026
  55 BR  -8.473  -0.413   3.042
  56 BR   8.473   0.413   3.042
  57 BR  -0.413   8.473  -3.042
  58 BR   0.413  -8.473  -3.042
  59 BR  -2.728   1.082   2.995
  60 BR   2.728  -1.082   2.995
  61 BR   1.082   2.728  -2.995
  62 BR  -1.082  -2.728  -2.995

 *******************************************************************************
 FINISHED BASIS SET HANDLING 
 *******************************************************************************

 INFORMATION **** SET_MPP **** PCRYSTAL CALCULATION
 INFORMATION **** READM2 **** NEW DEFAULT: FOCK/KS MATRIX MIXING SET TO 30 %
 INFORMATION **** READM2 **** NEW DEFAULT: FULL DIRECT SCF MODE
 INFORMATION **** READM2 **** NEW DEFAULT: COULOMB BIPOLAR BUFFER SET TO 32 Mb
 INFORMATION **** READM2 **** NEW DEFAULT: EXCHANGE BIPOLAR BUFFER SET TO 32 Mb

 *******************************************************************************
 NEW DEFAULT: DFT INTEGRATION GRID INCREASED TO XLGRID
 NEW DEFAULT: DIIS ACCELERATOR ACTIVE
 USE KEYWORD NODIIS TO TURN IT OFF
 *******************************************************************************

 INFORMATION **** DFTD3_INPUT **** PERFORM DISPERSION CORRECTION DFT-D3(BJ) IN THE BECKE-JOHNSON DAMPING SCHEME

 PLEASE CITE:
 (1) DFT-D3 Reference
  S. Grimme, J. Antony, S. Ehrlich, and H. Krieg, J. Chem. Phys. 132 (2010), 154104
 (2) BJ-Damping Reference
  S. Grimme, S. Ehrlich, and L. Goerigk, J. Comput. Chem. 32 (2011), 1456-1465
 (3) General DFT-D Review
  S. Grimme, A. Hansen, J. G. Brandenburg, and C. Bannwarth,
  Chem. Rev. 116 (2016), 5105-5154

 INFORMATION **** TOLINTEG **** COULOMB AND EXCHANGE SERIES TOLERANCES MODIFIED
 INFORMATION **** BIPOSIZE **** COULOMB BIPOLAR BUFFER SET TO   100000000
 INFORMATION **** MAXCYCLE **** MAX NUMBER OF SCF CYCLES SET TO          50
 *******************************************************************************
 N. OF ATOMS PER CELL        62  COULOMB OVERLAP TOL         (T1) 10**  -12
 NUMBER OF SHELLS           484  COULOMB PENETRATION TOL     (T2) 10**  -12
 NUMBER OF AO              1288  EXCHANGE OVERLAP TOL        (T3) 10**   20
 N. OF ELECTRONS PER CELL   768  EXCHANGE PSEUDO OVP (F(G))  (T4) 10**   20
 CORE ELECTRONS PER CELL    460  EXCHANGE PSEUDO OVP (P(G))  (T5) 10**   20
 N. OF SYMMETRY OPERATORS     4  POLE ORDER IN MONO ZONE                  4
 *******************************************************************************
 TYPE OF CALCULATION :  RESTRICTED CLOSED SHELL
 KOHN-SHAM HAMILTONIAN

 (EXCHANGE)[CORRELATION] FUNCTIONAL:(PERDEW-BURKE-ERNZERHOF)[PERDEW-BURKE-ERNZERHOF]


 CAPPA:IS1  3;IS2  3;IS3  3; K PTS MONK NET   6; SYMMOPS:K SPACE   8;G SPACE   4

 *******************************************************************************
 MAX NUMBER OF SCF CYCLES      50  CONVERGENCE ON DELTAP        10**-16
 WEIGHT OF F(I) IN F(I+1)      30% CONVERGENCE ON ENERGY        10**- 6
 SHRINK. FACT.(MONKH.)    3  3  3  NUMBER OF K POINTS IN THE IBZ      6
 SHRINKING FACTOR(GILAT NET)    3  NUMBER OF K POINTS(GILAT NET)      6
 *******************************************************************************
 *** K POINTS COORDINATES (OBLIQUE COORDINATES IN UNITS OF IS =  3)
   1-R(  0  0  0)   2-C(  1  0  0)   3-C(  1  1  0)   4-C(  2  1  0)
   5-C(  2  1  1)   6-C(  2  2  1)

 DIRECT LATTICE VECTORS COMPON. (A.U.)     RECIP. LATTICE VECTORS COMPON. (A.U.) 
        X            Y            Z              X            Y            Z
  -11.0835345   11.0835345   12.2425338      0.0000000    0.2834468    0.2566129
   11.0835345  -11.0835345   12.2425338      0.2834468    0.0000000    0.2566129
   11.0835345   11.0835345  -12.2425338      0.2834468    0.2834468    0.0000000

 DISK SPACE FOR EIGENVECTORS (FTN 10)    18248384 REALS

 SYMMETRY ADAPTION OF THE BLOCH FUNCTIONS ENABLED
 TTTTTTTTTTTTTTTTTTTTTTTTTTTTTT gordsh1     TELAPSE        9.82 TCPU        0.09

 MATRIX SIZE: P(G) 2035696, F(G) 1018612, P(G) IRR  257078, F(G) IRR  257078
 MAX G-VECTOR INDEX FOR 1- AND 2-ELECTRON INTEGRALS  59

 TTTTTTTTTTTTTTTTTTTTTTTTTTTTTT INPUT       TELAPSE        9.98 TCPU        0.22

 NEIGHBORS OF THE NON-EQUIVALENT ATOMS

 N = NUMBER OF NEIGHBORS AT DISTANCE R
    ATOM  N     R/ANG      R/AU   NEIGHBORS (ATOM LABELS AND CELL INDICES)
   1 H    1     1.0928     2.0650   21 C    0 0 0
   1 H    1     2.0594     3.8917   45 N    0 0 0
   1 H    1     2.1740     4.1083    5 C    0 0 0
   1 H    1     2.5483     4.8157   29 N    0 0-1
   1 H    1     2.5988     4.9111   49 ZN   0 1-1
   1 H    1     2.6464     5.0010    9 C    0 0-1

   5 C    1     1.4097     2.6640   13 C    0 0 0
   5 C    1     1.4114     2.6671   21 C    0 0 0
   5 C    1     1.4512     2.7423    9 C    0 0-1
   5 C    1     2.1740     4.1083    1 H    0 0 0
   5 C    1     2.4079     4.5503   26 C    0 0 0
   5 C    1     2.4279     4.5880   45 N    0 0 0

   9 C    1     1.3626     2.5750   37 N    0 0 0
   9 C    1     1.3727     2.5940   29 N    0 0 0
   9 C    1     1.4512     2.7423    5 C    0 0 1
   9 C    1     2.1825     4.1244   41 N    0 0 0
   9 C    1     2.1971     4.1519   33 N   -1 0 0
   9 C    1     2.4418     4.6144   21 C    0 0 1

  13 C    1     1.3997     2.6450   26 C    0 0 0
  13 C    1     1.4097     2.6640    5 C    0 0 0
  13 C    1     1.8916     3.5745   51 BR   0 0-1
  13 C    1     2.4035     4.5419   21 C    0 0 0
  13 C    1     2.4312     4.5943   17 C    0 0 0
  13 C    1     2.5491     4.8171    9 C    0 0-1

  17 C    1     1.3310     2.5153   45 N    0 0 0
  17 C    1     1.4012     2.6479   26 C    0 0 0
  17 C    1     1.8908     3.5731   59 BR   0 0 0
  17 C    1     2.2943     4.3357   21 C    0 0 0
  17 C    1     2.4312     4.5943   13 C    0 0 0
  17 C    1     2.7719     5.2381    5 C    0 0 0

  21 C    1     1.0928     2.0650    1 H    0 0 0
  21 C    1     1.3343     2.5216   45 N    0 0 0
  21 C    1     1.4114     2.6671    5 C    0 0 0
  21 C    1     2.2943     4.3357   17 C    0 0 0
  21 C    1     2.4035     4.5419   13 C    0 0 0
  21 C    1     2.4418     4.6144    9 C    0 0-1

  25 C    1     1.3997     2.6450   14 C    0 0 0
  25 C    1     1.4012     2.6479   18 C    0 0 0
  25 C    1     1.8576     3.5103   56 BR   0 0 0
  25 C    1     2.3830     4.5033   46 N    0 0 0
  25 C    1     2.4079     4.5503    6 C    0 0 0
  25 C    1     2.7045     5.1107   22 C    0 0 0

  29 N    1     1.3727     2.5940    9 C    0 0 0
  29 N    1     1.3791     2.6062   33 N   -1 0 0
  29 N    1     2.1744     4.1091   49 ZN   0 1 0
  29 N    1     2.1974     4.1524   41 N    0 0 0
  29 N    1     2.2397     4.2324   37 N    0 0 0
  29 N    1     2.4581     4.6451    5 C    0 0 1

  33 N    1     1.3245     2.5030   41 N    1 0 0
  33 N    1     1.3791     2.6062   29 N    1 0 0
  33 N    1     2.1971     4.1519    9 C    1 0 0
  33 N    1     2.2169     4.1894   37 N    1 0 0
  33 N    1     2.9285     5.5340    2 H    0 0 0
  33 N    1     3.0016     5.6723   24 C    1 0 0

  37 N    1     1.3626     2.5750    9 C    0 0 0
  37 N    1     1.3814     2.6104   41 N    0 0 0
  37 N    1     2.2169     4.1894   33 N   -1 0 0
  37 N    1     2.2397     4.2324   29 N    0 0 0
  37 N    1     2.3492     4.4394   50 ZN  -1-1 0
  37 N    1     2.5400     4.7999    5 C    0 0 1

  41 N    1     1.3245     2.5030   33 N   -1 0 0
  41 N    1     1.3814     2.6104   37 N    0 0 0
  41 N    1     2.1825     4.1244    9 C    0 0 0
  41 N    1     2.1974     4.1524   29 N    0 0 0
  41 N    1     2.8466     5.3793   52 BR   0 0 0
  41 N    1     3.1748     5.9994   50 ZN  -1-1 0

  45 N    1     1.3310     2.5153   17 C    0 0 0
  45 N    1     1.3343     2.5216   21 C    0 0 0
  45 N    1     2.0594     3.8917    1 H    0 0 0
  45 N    1     2.3830     4.5033   26 C    0 0 0
  45 N    1     2.4279     4.5880    5 C    0 0 0
  45 N    1     2.8060     5.3026   13 C    0 0 0

  49 ZN   4     2.1744     4.1091   29 N    0-1 0   30 N    0 0 1   31 N    0-1 1
                                    32 N   -1-1 0
  49 ZN   4     2.5988     4.9111    1 H    0-1 1    2 H   -1-1 0    3 H    0 0 1
                                     4 H    0-1 0
  49 ZN   4     3.0834     5.8268   33 N   -1-1 0   34 N    0-1 1   35 N    0-1 0
                                    36 N    0 0 1
  49 ZN   4     3.2500     6.1417   21 C    0-1 1   22 C   -1-1 0   23 C    0 0 1
                                    24 C    0-1 0
  49 ZN   4     3.2852     6.2082    9 C    0-1 0   10 C    0 0 1   11 C    0-1 1
                                    12 C   -1-1 0
  49 ZN   4     3.6752     6.9451    5 C    0-1 1    6 C   -1-1 0    7 C    0 0 1
                                     8 C    0-1 0

  50 ZN   4     2.3492     4.4394   37 N    1 1 0   38 N    1 1 0   39 N    0 0 0
                                    40 N    0 0 0
  50 ZN   4     3.0711     5.8035   51 BR   1 1 0   52 BR   1 1 0   53 BR   0 0 0
                                    54 BR   0 0 0
  50 ZN   4     3.1748     5.9994   41 N    1 1 0   42 N    1 1 0   43 N    0 0 0
                                    44 N    0 0 0
  50 ZN   4     3.4890     6.5932    9 C    1 1 0   10 C    1 1 0   11 C    0 0 0
                                    12 C    0 0 0
  50 ZN   4     4.0080     7.5740   13 C    1 1 1   14 C    0 0-1   15 C    0 1 0
                                    16 C    1 0 0
  50 ZN   4     4.0717     7.6945    5 C    1 1 1    6 C    0 0-1    7 C    0 1 0
                                     8 C    1 0 0

  51 BR   1     1.8916     3.5745   13 C    0 0 1
  51 BR   1     2.8377     5.3625   26 C    0 0 1
  51 BR   1     2.8466     5.3793   42 N    0 0 0
  51 BR   1     2.9190     5.5161    5 C    0 0 1
  51 BR   1     3.0636     5.7894   40 N   -1-1 0
  51 BR   1     3.0711     5.8035   50 ZN  -1-1 0

  55 BR   1     1.8576     3.5103   26 C    0 0 0
  55 BR   1     2.7968     5.2853   56 BR   0-1-1
  55 BR   1     2.7999     5.2910   17 C    0 0 0
  55 BR   1     2.8544     5.3940   13 C    0 0 0
  55 BR   1     3.0158     5.6991    3 H    0 0 0
  55 BR   1     3.1414     5.9364   59 BR   0 0 0

  59 BR   1     1.8908     3.5731   17 C    0 0 0
  59 BR   1     2.8176     5.3245   45 N    0 0 0
  59 BR   1     2.8265     5.3412   26 C    0 0 0
  59 BR   1     2.8884     5.4583   46 N    0 0 0
  59 BR   1     3.1061     5.8697   60 BR   0 0 0
  59 BR   1     3.1414     5.9364   55 BR   0 0 0


 SYMMETRY ALLOWED INTERNAL DEGREE(S) OF FREEDOM:  45
 TTTTTTTTTTTTTTTTTTTTTTTTTTTTTT SYMM        TELAPSE       12.66 TCPU        2.89
 TTTTTTTTTTTTTTTTTTTTTTTTTTTTTT INT_SCREEN  TELAPSE       12.69 TCPU        2.91
 INFORMATION **** EXCBUF **** EXCH. BIPO BUFFER: WORDS USED =           0

 DFT PARAMETERS

     ATOM       ELECTRONS   NET CHARGE   R(ANGSTROM)
   1   1  H       1.0000      0.0000     1.11000000
   5   6  C       6.0000      0.0000     0.77000000
  29   7  N       7.0000      0.0000     0.74000000
  49  30  ZN     30.0000      0.0000     1.37000000
  51  35  BR     35.0000      0.0000     1.14000000

 SIZE OF GRID=     478014
 TTTTTTTTTTTTTTTTTTTTTTTTTTTTTT MAKE_GRID2  TELAPSE       16.26 TCPU        6.47
 BECKE WEIGHT FUNCTION
 RADSAFE =     2.00
 TOLERANCES - DENSITY:10**- 6; POTENTIAL:10**- 9; GRID WGT:10**-14

 RADIAL INTEGRATION  - INTERVALS (POINTS,UPPER LIMIT):            1( 75,  4.0*R)

 ANGULAR INTEGRATION - INTERVALS (ACCURACY LEVEL [N. POINTS] UPPER LIMIT):
  1(  4[  86]   0.2)  2(  8[ 194]   0.5)  3( 12[ 350]   0.9)  4( 16[ 974]   3.5)
  5( 12[ 350]9999.0)
 TTTTTTTTTTTTTTTTTTTTTTTTTTTTTT INT_CALC    TELAPSE       16.31 TCPU        6.51
 EEEEEEEEEE INT_CALC TERMINATION  DATE 08 03 2024 TIME 15:04:39.6

 *******************************************************************************
 Z:\home\sanoj\Downloads\tmp_p\newconn.mol                                       
 CRYSTAL - SCF - TYPE OF CALCULATION :  RESTRICTED CLOSED SHELL
 *******************************************************************************

 CAPPA:IS1  3;IS2  3;IS3  3; K PTS MONK NET   6; SYMMOPS:K SPACE   8;G SPACE   4

 TTTTTTTTTTTTTTTTTTTTTTTTTTTTTT SDIK        TELAPSE       16.49 TCPU        6.69

 AAAAAAAAAAAAAAAAAAAAAAAAAAAAAAAAAAAAAAAAAAAAAAAAAAAAAAAAAAAAAAAAAAAAAAAAAAAAAAA
         ATOMIC WAVEFUNCTION(S)


 NUCLEAR CHARGE  1.0  SYMMETRY SPECIES            S
 N. ELECTRONS    1.0  NUMBER OF PRIMITIVE GTOS    4
                      NUMBER OF CONTRACTED GTOS   2
                      NUMBER OF CLOSED SHELLS     0
                      OPEN SHELL OCCUPATION       1

  ZNUC SCFIT  TOTAL HF ENERGY   KINETIC ENERGY   VIRIAL THEOREM ACCURACY
   1.0   1   -4.946643675E-01  4.917913167E-01 -2.005842012E+00  9.4E-17

 NUCLEAR CHARGE  6.0  SYMMETRY SPECIES            S    P
 N. ELECTRONS    6.0  NUMBER OF PRIMITIVE GTOS    7    4
                      NUMBER OF CONTRACTED GTOS   3    2
                      NUMBER OF CLOSED SHELLS     2    0
                      OPEN SHELL OCCUPATION       0    2

  ZNUC SCFIT  TOTAL HF ENERGY   KINETIC ENERGY   VIRIAL THEOREM ACCURACY
   6.0   6   -3.750912652E+01  3.905246519E+01 -1.960480378E+00  3.7E-06

 NUCLEAR CHARGE  7.0  SYMMETRY SPECIES            S    P
 N. ELECTRONS    7.0  NUMBER OF PRIMITIVE GTOS    7    4
                      NUMBER OF CONTRACTED GTOS   3    2
                      NUMBER OF CLOSED SHELLS     2    0
                      OPEN SHELL OCCUPATION       0    3

  ZNUC SCFIT  TOTAL HF ENERGY   KINETIC ENERGY   VIRIAL THEOREM ACCURACY
   7.0   9   -5.432196661E+01  5.425066284E+01 -2.001314339E+00  1.2E-06

 NUCLEAR CHARGE 30.0  SYMMETRY SPECIES            S    P    D
 N. ELECTRONS   30.0  NUMBER OF PRIMITIVE GTOS   14    9    5
                      NUMBER OF CONTRACTED GTOS   5    3    2
                      NUMBER OF CLOSED SHELLS     4    2    1
                      OPEN SHELL OCCUPATION       0    0    0

  ZNUC SCFIT  TOTAL HF ENERGY   KINETIC ENERGY   VIRIAL THEOREM ACCURACY
  30.0  10   -1.777404290E+03  1.777325716E+03 -2.000044209E+00  2.5E-06

 NUCLEAR CHARGE 35.0  SYMMETRY SPECIES            S    P    D
 N. ELECTRONS   35.0  NUMBER OF PRIMITIVE GTOS   14   10    7
                      NUMBER OF CONTRACTED GTOS   5    4    4
                      NUMBER OF CLOSED SHELLS     4    2    1
                      OPEN SHELL OCCUPATION       0    5    0

  ZNUC SCFIT  TOTAL HF ENERGY   KINETIC ENERGY   VIRIAL THEOREM ACCURACY
  35.0  13   -2.572060514E+03  2.572021521E+03 -2.000015161E+00  3.6E-06

 AAAAAAAAAAAAAAAAAAAAAAAAAAAAAAAAAAAAAAAAAAAAAAAAAAAAAAAAAAAAAAAAAAAAAAAAAAAAAAA

 TOTAL ATOMIC CHARGES:
   1.0000000   1.0000000   1.0000000   1.0000000   6.0000000   6.0000000
   6.0000000   6.0000000   6.0000000   6.0000000   6.0000000   6.0000000
   6.0000000   6.0000000   6.0000000   6.0000000   6.0000000   6.0000000
   6.0000000   6.0000000   6.0000000   6.0000000   6.0000000   6.0000000
   6.0000000   6.0000000   6.0000000   6.0000000   7.0000000   7.0000000
   7.0000000   7.0000000   7.0000000   7.0000000   7.0000000   7.0000000
   7.0000000   7.0000000   7.0000000   7.0000000   7.0000000   7.0000000
   7.0000000   7.0000000   7.0000000   7.0000000   7.0000000   7.0000000
  30.0000000  30.0000000  35.0000000  35.0000000  35.0000000  35.0000000
  35.0000000  35.0000000  35.0000000  35.0000000  35.0000000  35.0000000
  35.0000000  35.0000000
 TTTTTTTTTTTTTTTTTTTTTTTTTTTTTT MOQGAD      TELAPSE       20.02 TCPU       10.21
 TTTTTTTTTTTTTTTTTTTTTTTTTTTTTT SHELLXN     TELAPSE       55.76 TCPU       31.31
 TTTTTTTTTTTTTTTTTTTTTTTTTTTTTT MONMO3      TELAPSE       60.84 TCPU       36.37
 NUMERICALLY INTEGRATED DENSITY    768.0000340766
 TTTTTTTTTTTTTTTTTTTTTTTTTTTTTT NUMDFT      TELAPSE       61.40 TCPU       36.93
 CYC   0 ETOT(AU) -3.645175481639E+04 DETOT -3.65E+04 tst  0.00E+00 PX  1.00E+00
 TTTTTTTTTTTTTTTTTTTTTTTTTTTTTT DIIS        TELAPSE       61.47 TCPU       37.00
 TTTTTTTTTTTTTTTTTTTTTTTTTTTTTT FDIK        TELAPSE      107.75 TCPU       69.87
 INSULATING STATE
 TOP OF VALENCE BANDS -    BAND    384; K    4; EIG -1.3753529E-01 AU
 TOP OF VALENCE BANDS -    BAND    384; K    1; EIG -1.3799177E-01 AU
 BOTTOM OF VIRTUAL BANDS - BAND    385; K    6; EIG -9.4361841E-02 AU
 INDIRECT ENERGY BAND GAP:   1.1748 eV
 BOTTOM OF VIRTUAL BANDS - BAND    385; K    1; EIG -9.3939602E-02 AU
 TTTTTTTTTTTTTTTTTTTTTTTTTTTTTT PDIG        TELAPSE      108.83 TCPU       70.94
 TOTAL ATOMIC CHARGES:
   1.4193453   1.4193453   1.4193453   1.4193453   6.2115203   6.2115203
   6.2115203   6.2115203   5.4769727   5.4769727   5.4769727   5.4769727
   5.7220740   5.7220740   5.7220740   5.7220740   5.4193743   5.4193743
   5.4193743   5.4193743   5.9349438   5.9349438   5.9349438   5.9349438
   5.8869688   5.8869688   5.8869688   5.8869688   7.4232562   7.4232562
   7.4232562   7.4232562   7.1854336   7.1854336   7.1854336   7.1854336
   7.4573195   7.4573195   7.4573195   7.4573195   7.1316430   7.1316430
   7.1316430   7.1316430   7.5792735   7.5792735   7.5792735   7.5792735
  27.7755636  28.0438838  35.0860967  35.0860967  35.0860967  35.0860967
  35.0231684  35.0231684  35.0231684  35.0231684  35.0877479  35.0877479
  35.0877479  35.0877479
 TTTTTTTTTTTTTTTTTTTTTTTTTTTTTT MOQGAD      TELAPSE      108.85 TCPU       70.96
 TTTTTTTTTTTTTTTTTTTTTTTTTTTTTT SHELLXN     TELAPSE      138.45 TCPU       96.05
 TTTTTTTTTTTTTTTTTTTTTTTTTTTTTT MONMO3      TELAPSE      141.70 TCPU       99.29
 NUMERICALLY INTEGRATED DENSITY    768.0000449467
 TTTTTTTTTTTTTTTTTTTTTTTTTTTTTT NUMDFT      TELAPSE      143.33 TCPU      100.91
 CYC   1 ETOT(AU) -3.644620755703E+04 DETOT  5.55E+00 tst  0.00E+00 PX  1.00E+00
 TTTTTTTTTTTTTTTTTTTTTTTTTTTTTT DIIS        TELAPSE      143.63 TCPU      101.20
 DIIS TEST: 0.88443E+01 AT SCF   CYCLE   1 - MIX   30 %
 TTTTTTTTTTTTTTTTTTTTTTTTTTTTTT FDIK        TELAPSE      157.93 TCPU      110.90
 INSULATING STATE
 TOP OF VALENCE BANDS -    BAND    384; K    6; EIG -1.4544101E-01 AU
 TOP OF VALENCE BANDS -    BAND    384; K    1; EIG -1.4562309E-01 AU
 BOTTOM OF VIRTUAL BANDS - BAND    385; K    1; EIG -1.4137366E-01 AU
 INDIRECT ENERGY BAND GAP:   0.1107 eV
 TTTTTTTTTTTTTTTTTTTTTTTTTTTTTT PDIG        TELAPSE      159.00 TCPU      111.97
 TOTAL ATOMIC CHARGES:
   1.4209661   1.4209661   1.4209661   1.4209661   6.1647634   6.1647634
   6.1647634   6.1647634   6.3142939   6.3142939   6.3142939   6.3142939
   6.3864846   6.3864846   6.3864846   6.3864846   6.3272177   6.3272177
   6.3272177   6.3272177   6.2172353   6.2172353   6.2172353   6.2172353
   6.1396559   6.1396559   6.1396559   6.1396559   6.9120522   6.9120522
   6.9120522   6.9120522   6.9086238   6.9086238   6.9086238   6.9086238
   6.7948216   6.7948216   6.7948216   6.7948216   6.9217825   6.9217825
   6.9217825   6.9217825   6.0325585   6.0325585   6.0325585   6.0325585
  29.6403749  29.4120622  34.9936851  34.9936851  34.9936851  34.9936851
  34.8871385  34.8871385  34.8871385  34.8871385  34.8156118  34.8156118
  34.8156118  34.8156118
 TTTTTTTTTTTTTTTTTTTTTTTTTTTTTT MOQGAD      TELAPSE      159.03 TCPU      111.99
 TTTTTTTTTTTTTTTTTTTTTTTTTTTTTT SHELLXN     TELAPSE      188.72 TCPU      137.06
 TTTTTTTTTTTTTTTTTTTTTTTTTTTTTT MONMO3      TELAPSE      191.95 TCPU      140.28
 NUMERICALLY INTEGRATED DENSITY    768.0000495152
 TTTTTTTTTTTTTTTTTTTTTTTTTTTTTT NUMDFT      TELAPSE      193.55 TCPU      141.88
 CYC   2 ETOT(AU) -3.644489443348E+04 DETOT  1.31E+00 tst  2.68E-02 PX  7.96E-01
 TTTTTTTTTTTTTTTTTTTTTTTTTTTTTT DIIS        TELAPSE      193.76 TCPU      142.08
 DIIS TEST: 0.16926E+02 AT SCF   CYCLE   2 - DIIS ACTIVE - HISTORY:     2 CYCLES
 TTTTTTTTTTTTTTTTTTTTTTTTTTTTTT FDIK        TELAPSE      206.53 TCPU      154.65
 INSULATING STATE
 TOP OF VALENCE BANDS -    BAND    384; K    2; EIG -2.1094277E-01 AU
 TOP OF VALENCE BANDS -    BAND    384; K    1; EIG -2.1117022E-01 AU
 BOTTOM OF VIRTUAL BANDS - BAND    385; K    1; EIG -1.2977204E-01 AU
 INDIRECT ENERGY BAND GAP:   2.2088 eV
 TTTTTTTTTTTTTTTTTTTTTTTTTTTTTT PDIG        TELAPSE      207.61 TCPU      155.73
 TOTAL ATOMIC CHARGES:
   1.3445254   1.3445254   1.3445254   1.3445254   6.0132010   6.0132010
   6.0132010   6.0132010   5.8276768   5.8276768   5.8276768   5.8276768
   5.7698814   5.7698814   5.7698814   5.7698814   5.9145231   5.9145231
   5.9145231   5.9145231   6.1212034   6.1212034   6.1212034   6.1212034
   5.8333204   5.8333204   5.8333204   5.8333204   7.1104602   7.1104602
   7.1104602   7.1104602   7.1149032   7.1149032   7.1149032   7.1149032
   7.1441926   7.1441926   7.1441926   7.1441926   7.0574921   7.0574921
   7.0574921   7.0574921   7.3474117   7.3474117   7.3474117   7.3474117
  29.0659683  28.9602830  35.0145831  35.0145831  35.0145831  35.0145831
  34.9260558  34.9260558  34.9260558  34.9260558  34.9540068  34.9540068
  34.9540068  34.9540068
 TTTTTTTTTTTTTTTTTTTTTTTTTTTTTT MOQGAD      TELAPSE      207.64 TCPU      155.75
 TTTTTTTTTTTTTTTTTTTTTTTTTTTTTT SHELLXN     TELAPSE      235.42 TCPU      180.93
 TTTTTTTTTTTTTTTTTTTTTTTTTTTTTT MONMO3      TELAPSE      238.66 TCPU      184.16
 NUMERICALLY INTEGRATED DENSITY    768.0000490808
 TTTTTTTTTTTTTTTTTTTTTTTTTTTTTT NUMDFT      TELAPSE      240.27 TCPU      185.77
 CYC   3 ETOT(AU) -3.644755131243E+04 DETOT -2.66E+00 tst  5.62E-03 PX  5.17E-01
 TTTTTTTTTTTTTTTTTTTTTTTTTTTTTT DIIS        TELAPSE      240.52 TCPU      186.01
 DIIS TEST: 0.22159E+01 AT SCF   CYCLE   3 - DIIS ACTIVE - HISTORY:     3 CYCLES
 TTTTTTTTTTTTTTTTTTTTTTTTTTTTTT FDIK        TELAPSE      248.47 TCPU      193.74
 INSULATING STATE
 TOP OF VALENCE BANDS -    BAND    384; K    4; EIG -1.9747159E-01 AU
 TOP OF VALENCE BANDS -    BAND    384; K    1; EIG -1.9859577E-01 AU
 BOTTOM OF VIRTUAL BANDS - BAND    385; K    6; EIG -1.2343164E-01 AU
 INDIRECT ENERGY BAND GAP:   2.0147 eV
 BOTTOM OF VIRTUAL BANDS - BAND    385; K    1; EIG -1.2042187E-01 AU
 TTTTTTTTTTTTTTTTTTTTTTTTTTTTTT PDIG        TELAPSE      249.55 TCPU      194.81
 TOTAL ATOMIC CHARGES:
   1.3619645   1.3619645   1.3619645   1.3619645   6.2049258   6.2049258
   6.2049258   6.2049258   5.7766243   5.7766243   5.7766243   5.7766243
   6.0481260   6.0481260   6.0481260   6.0481260   5.7208853   5.7208853
   5.7208853   5.7208853   6.0436830   6.0436830   6.0436830   6.0436830
   6.0093439   6.0093439   6.0093439   6.0093439   7.2189672   7.2189672
   7.2189672   7.2189672   7.0844316   7.0844316   7.0844316   7.0844316
   7.2345916   7.2345916   7.2345916   7.2345916   7.0669201   7.0669201
   7.0669201   7.0669201   6.9880254   6.9880254   6.9880254   6.9880254
  28.6734967  28.6957678  34.9978054  34.9978054  34.9978054  34.9978054
  34.9681624  34.9681624  34.9681624  34.9681624  34.9332274  34.9332274
  34.9332274  34.9332274
 TTTTTTTTTTTTTTTTTTTTTTTTTTTTTT MOQGAD      TELAPSE      249.57 TCPU      194.83
 TTTTTTTTTTTTTTTTTTTTTTTTTTTTTT SHELLXN     TELAPSE      279.18 TCPU      220.01
 TTTTTTTTTTTTTTTTTTTTTTTTTTTTTT MONMO3      TELAPSE      282.45 TCPU      223.28
 NUMERICALLY INTEGRATED DENSITY    768.0000502221
 TTTTTTTTTTTTTTTTTTTTTTTTTTTTTT NUMDFT      TELAPSE      284.06 TCPU      224.88
 CYC   4 ETOT(AU) -3.644778388399E+04 DETOT -2.33E-01 tst  1.91E-03 PX  2.00E-01
 TTTTTTTTTTTTTTTTTTTTTTTTTTTTTT DIIS        TELAPSE      284.29 TCPU      225.11
 DIIS TEST: 0.69352E+00 AT SCF   CYCLE   4 - DIIS ACTIVE - HISTORY:     4 CYCLES
 TTTTTTTTTTTTTTTTTTTTTTTTTTTTTT FDIK        TELAPSE      295.39 TCPU      234.01
 INSULATING STATE
 TOP OF VALENCE BANDS -    BAND    384; K    2; EIG -2.0962501E-01 AU
 TOP OF VALENCE BANDS -    BAND    384; K    1; EIG -2.0985126E-01 AU
 BOTTOM OF VIRTUAL BANDS - BAND    385; K    6; EIG -1.2380163E-01 AU
 INDIRECT ENERGY BAND GAP:   2.3354 eV
 BOTTOM OF VIRTUAL BANDS - BAND    385; K    1; EIG -1.2092582E-01 AU
 TTTTTTTTTTTTTTTTTTTTTTTTTTTTTT PDIG        TELAPSE      296.46 TCPU      235.08
 TOTAL ATOMIC CHARGES:
   1.3632421   1.3632421   1.3632421   1.3632421   6.1442022   6.1442022
   6.1442022   6.1442022   5.8237122   5.8237122   5.8237122   5.8237122
   5.9533324   5.9533324   5.9533324   5.9533324   5.8757267   5.8757267
   5.8757267   5.8757267   6.0828785   6.0828785   6.0828785   6.0828785
   5.9725910   5.9725910   5.9725910   5.9725910   7.1969373   7.1969373
   7.1969373   7.1969373   7.1093156   7.1093156   7.1093156   7.1093156
   7.1316656   7.1316656   7.1316656   7.1316656   7.0416176   7.0416176
   7.0416176   7.0416176   7.0631356   7.0631356   7.0631356   7.0631356
  28.7307033  28.7254207  35.0057166  35.0057166  35.0057166  35.0057166
  34.9313716  34.9313716  34.9313716  34.9313716  34.9405241  34.9405241
  34.9405241  34.9405241
 TTTTTTTTTTTTTTTTTTTTTTTTTTTTTT MOQGAD      TELAPSE      296.49 TCPU      235.11
 TTTTTTTTTTTTTTTTTTTTTTTTTTTTTT SHELLXN     TELAPSE      322.20 TCPU      260.32
 TTTTTTTTTTTTTTTTTTTTTTTTTTTTTT MONMO3      TELAPSE      325.53 TCPU      263.63
 NUMERICALLY INTEGRATED DENSITY    768.0000491394
 TTTTTTTTTTTTTTTTTTTTTTTTTTTTTT NUMDFT      TELAPSE      327.14 TCPU      265.23
 CYC   5 ETOT(AU) -3.644788079282E+04 DETOT -9.69E-02 tst  2.80E-04 PX  8.05E-02
 TTTTTTTTTTTTTTTTTTTTTTTTTTTTTT DIIS        TELAPSE      327.34 TCPU      265.43
 DIIS TEST: 0.94279E-01 AT SCF   CYCLE   5 - DIIS ACTIVE - HISTORY:     5 CYCLES
 TTTTTTTTTTTTTTTTTTTTTTTTTTTTTT FDIK        TELAPSE      337.39 TCPU      274.09
 INSULATING STATE
 TOP OF VALENCE BANDS -    BAND    384; K    5; EIG -2.0685572E-01 AU
 TOP OF VALENCE BANDS -    BAND    384; K    1; EIG -2.0701893E-01 AU
 BOTTOM OF VIRTUAL BANDS - BAND    385; K    6; EIG -1.2295274E-01 AU
 INDIRECT ENERGY BAND GAP:   2.2831 eV
 BOTTOM OF VIRTUAL BANDS - BAND    385; K    1; EIG -1.1978331E-01 AU
 TTTTTTTTTTTTTTTTTTTTTTTTTTTTTT PDIG        TELAPSE      338.48 TCPU      275.18
 TOTAL ATOMIC CHARGES:
   1.3632053   1.3632053   1.3632053   1.3632053   6.1528160   6.1528160
   6.1528160   6.1528160   5.8214891   5.8214891   5.8214891   5.8214891
   5.9601452   5.9601452   5.9601452   5.9601452   5.8031273   5.8031273
   5.8031273   5.8031273   6.0659313   6.0659313   6.0659313   6.0659313
   5.9386848   5.9386848   5.9386848   5.9386848   7.1500987   7.1500987
   7.1500987   7.1500987   7.0662988   7.0662988   7.0662988   7.0662988
   7.2075870   7.2075870   7.2075870   7.2075870   7.0733492   7.0733492
   7.0733492   7.0733492   7.0864015   7.0864015   7.0864015   7.0864015
  28.7609608  28.7584249  35.0268816  35.0268816  35.0268816  35.0268816
  34.9552239  34.9552239  34.9552239  34.9552239  34.9489139  34.9489139
  34.9489139  34.9489139
 TTTTTTTTTTTTTTTTTTTTTTTTTTTTTT MOQGAD      TELAPSE      338.50 TCPU      275.20
 TTTTTTTTTTTTTTTTTTTTTTTTTTTTTT SHELLXN     TELAPSE      363.67 TCPU      300.21
 TTTTTTTTTTTTTTTTTTTTTTTTTTTTTT MONMO3      TELAPSE      370.16 TCPU      306.68
 NUMERICALLY INTEGRATED DENSITY    768.0000496126
 TTTTTTTTTTTTTTTTTTTTTTTTTTTTTT NUMDFT      TELAPSE      371.75 TCPU      308.26
 CYC   6 ETOT(AU) -3.644788949676E+04 DETOT -8.70E-03 tst  5.41E-05 PX  3.23E-02
 TTTTTTTTTTTTTTTTTTTTTTTTTTTTTT DIIS        TELAPSE      372.06 TCPU      308.56
 DIIS TEST: 0.44592E-01 AT SCF   CYCLE   6 - DIIS ACTIVE - HISTORY:     6 CYCLES
 TTTTTTTTTTTTTTTTTTTTTTTTTTTTTT FDIK        TELAPSE      381.09 TCPU      317.41
 INSULATING STATE
 TOP OF VALENCE BANDS -    BAND    384; K    5; EIG -2.0702940E-01 AU
 TOP OF VALENCE BANDS -    BAND    384; K    1; EIG -2.0719548E-01 AU
 BOTTOM OF VIRTUAL BANDS - BAND    385; K    6; EIG -1.2303530E-01 AU
 INDIRECT ENERGY BAND GAP:   2.2856 eV
 BOTTOM OF VIRTUAL BANDS - BAND    385; K    1; EIG -1.1991358E-01 AU
 TTTTTTTTTTTTTTTTTTTTTTTTTTTTTT PDIG        TELAPSE      382.18 TCPU      318.50
 TOTAL ATOMIC CHARGES:
   1.3632292   1.3632292   1.3632292   1.3632292   6.1417127   6.1417127
   6.1417127   6.1417127   5.8225112   5.8225112   5.8225112   5.8225112
   5.9650827   5.9650827   5.9650827   5.9650827   5.8066983   5.8066983
   5.8066983   5.8066983   6.0698727   6.0698727   6.0698727   6.0698727
   5.9585286   5.9585286   5.9585286   5.9585286   7.1909919   7.1909919
   7.1909919   7.1909919   7.1109702   7.1109702   7.1109702   7.1109702
   7.1524252   7.1524252   7.1524252   7.1524252   7.0422400   7.0422400
   7.0422400   7.0422400   7.0881034   7.0881034   7.0881034   7.0881034
  28.7633922  28.7571918  35.0137040  35.0137040  35.0137040  35.0137040
  34.9522081  34.9522081  34.9522081  34.9522081  34.9415760  34.9415760
  34.9415760  34.9415760
 TTTTTTTTTTTTTTTTTTTTTTTTTTTTTT MOQGAD      TELAPSE      382.21 TCPU      318.52
 TTTTTTTTTTTTTTTTTTTTTTTTTTTTTT SHELLXN     TELAPSE      409.75 TCPU      343.70
 TTTTTTTTTTTTTTTTTTTTTTTTTTTTTT MONMO3      TELAPSE      413.12 TCPU      347.06
 NUMERICALLY INTEGRATED DENSITY    768.0000489879
 TTTTTTTTTTTTTTTTTTTTTTTTTTTTTT NUMDFT      TELAPSE      414.69 TCPU      348.62
 CYC   7 ETOT(AU) -3.644789431438E+04 DETOT -4.82E-03 tst  4.04E-05 PX  1.59E-02
 TTTTTTTTTTTTTTTTTTTTTTTTTTTTTT DIIS        TELAPSE      414.88 TCPU      348.81
 DIIS TEST: 0.16412E-01 AT SCF   CYCLE   7 - DIIS ACTIVE - HISTORY:     7 CYCLES
 TTTTTTTTTTTTTTTTTTTTTTTTTTTTTT FDIK        TELAPSE      426.05 TCPU      357.76
 INSULATING STATE
 TOP OF VALENCE BANDS -    BAND    384; K    5; EIG -2.0776149E-01 AU
 TOP OF VALENCE BANDS -    BAND    384; K    1; EIG -2.0793337E-01 AU
 BOTTOM OF VIRTUAL BANDS - BAND    385; K    6; EIG -1.2357013E-01 AU
 INDIRECT ENERGY BAND GAP:   2.2910 eV
 BOTTOM OF VIRTUAL BANDS - BAND    385; K    1; EIG -1.2057288E-01 AU
 TTTTTTTTTTTTTTTTTTTTTTTTTTTTTT PDIG        TELAPSE      427.14 TCPU      358.85
 TOTAL ATOMIC CHARGES:
   1.3612981   1.3612981   1.3612981   1.3612981   6.1404419   6.1404419
   6.1404419   6.1404419   5.8235968   5.8235968   5.8235968   5.8235968
   5.9614668   5.9614668   5.9614668   5.9614668   5.8319198   5.8319198
   5.8319198   5.8319198   6.0673372   6.0673372   6.0673372   6.0673372
   5.9612820   5.9612820   5.9612820   5.9612820   7.1706550   7.1706550
   7.1706550   7.1706550   7.0886695   7.0886695   7.0886695   7.0886695
   7.1714567   7.1714567   7.1714567   7.1714567   7.0616522   7.0616522
   7.0616522   7.0616522   7.0814753   7.0814753   7.0814753   7.0814753
  28.7602834  28.7564955  35.0147319  35.0147319  35.0147319  35.0147319
  34.9449510  34.9449510  34.9449510  34.9449510  34.9398709  34.9398709
  34.9398709  34.9398709
 TTTTTTTTTTTTTTTTTTTTTTTTTTTTTT MOQGAD      TELAPSE      427.17 TCPU      358.87
 TTTTTTTTTTTTTTTTTTTTTTTTTTTTTT SHELLXN     TELAPSE      452.84 TCPU      384.08
 TTTTTTTTTTTTTTTTTTTTTTTTTTTTTT MONMO3      TELAPSE      455.98 TCPU      387.21
 NUMERICALLY INTEGRATED DENSITY    768.0000492153
 TTTTTTTTTTTTTTTTTTTTTTTTTTTTTT NUMDFT      TELAPSE      457.59 TCPU      388.80
 CYC   8 ETOT(AU) -3.644789642938E+04 DETOT -2.11E-03 tst  9.23E-06 PX  7.78E-03
 TTTTTTTTTTTTTTTTTTTTTTTTTTTTTT DIIS        TELAPSE      457.81 TCPU      389.03
 DIIS TEST: 0.24264E-02 AT SCF   CYCLE   8 - DIIS ACTIVE - HISTORY:     8 CYCLES
 TTTTTTTTTTTTTTTTTTTTTTTTTTTTTT FDIK        TELAPSE      467.81 TCPU      396.77
 INSULATING STATE
 TOP OF VALENCE BANDS -    BAND    384; K    5; EIG -2.0727615E-01 AU
 TOP OF VALENCE BANDS -    BAND    384; K    1; EIG -2.0743546E-01 AU
 BOTTOM OF VIRTUAL BANDS - BAND    385; K    6; EIG -1.2343427E-01 AU
 INDIRECT ENERGY BAND GAP:   2.2815 eV
 BOTTOM OF VIRTUAL BANDS - BAND    385; K    1; EIG -1.2031818E-01 AU
 TTTTTTTTTTTTTTTTTTTTTTTTTTTTTT PDIG        TELAPSE      468.90 TCPU      397.86
 TOTAL ATOMIC CHARGES:
   1.3614488   1.3614488   1.3614488   1.3614488   6.1483318   6.1483318
   6.1483318   6.1483318   5.8239637   5.8239637   5.8239637   5.8239637
   5.9596600   5.9596600   5.9596600   5.9596600   5.8241192   5.8241192
   5.8241192   5.8241192   6.0751458   6.0751458   6.0751458   6.0751458
   5.9506748   5.9506748   5.9506748   5.9506748   7.1770837   7.1770837
   7.1770837   7.1770837   7.0899744   7.0899744   7.0899744   7.0899744
   7.1706705   7.1706705   7.1706705   7.1706705   7.0527656   7.0527656
   7.0527656   7.0527656   7.0807859   7.0807859   7.0807859   7.0807859
  28.7653135  28.7578363  35.0155425  35.0155425  35.0155425  35.0155425
  34.9471658  34.9471658  34.9471658  34.9471658  34.9418800  34.9418800
  34.9418800  34.9418800
 TTTTTTTTTTTTTTTTTTTTTTTTTTTTTT MOQGAD      TELAPSE      468.93 TCPU      397.88
 TTTTTTTTTTTTTTTTTTTTTTTTTTTTTT SHELLXN     TELAPSE      494.22 TCPU      422.89
 TTTTTTTTTTTTTTTTTTTTTTTTTTTTTT MONMO3      TELAPSE      499.71 TCPU      428.35
 NUMERICALLY INTEGRATED DENSITY    768.0000492203
 TTTTTTTTTTTTTTTTTTTTTTTTTTTTTT NUMDFT      TELAPSE      501.31 TCPU      429.94
 CYC   9 ETOT(AU) -3.644789660535E+04 DETOT -1.76E-04 tst  1.60E-06 PX  3.42E-03
 TTTTTTTTTTTTTTTTTTTTTTTTTTTTTT DIIS        TELAPSE      501.55 TCPU      430.18
 DIIS TEST: 0.12162E-02 AT SCF   CYCLE   9 - DIIS ACTIVE - HISTORY:     9 CYCLES
 TTTTTTTTTTTTTTTTTTTTTTTTTTTTTT FDIK        TELAPSE      512.10 TCPU      438.53
 INSULATING STATE
 TOP OF VALENCE BANDS -    BAND    384; K    5; EIG -2.0745903E-01 AU
 TOP OF VALENCE BANDS -    BAND    384; K    1; EIG -2.0762757E-01 AU
 BOTTOM OF VIRTUAL BANDS - BAND    385; K    6; EIG -1.2325969E-01 AU
 INDIRECT ENERGY BAND GAP:   2.2912 eV
 BOTTOM OF VIRTUAL BANDS - BAND    385; K    1; EIG -1.2019777E-01 AU
 TTTTTTTTTTTTTTTTTTTTTTTTTTTTTT PDIG        TELAPSE      513.18 TCPU      439.60
 TOTAL ATOMIC CHARGES:
   1.3615700   1.3615700   1.3615700   1.3615700   6.1439125   6.1439125
   6.1439125   6.1439125   5.8217652   5.8217652   5.8217652   5.8217652
   5.9616639   5.9616639   5.9616639   5.9616639   5.8233385   5.8233385
   5.8233385   5.8233385   6.0689415   6.0689415   6.0689415   6.0689415
   5.9567877   5.9567877   5.9567877   5.9567877   7.1737281   7.1737281
   7.1737281   7.1737281   7.0929656   7.0929656   7.0929656   7.0929656
   7.1690765   7.1690765   7.1690765   7.1690765   7.0564585   7.0564585
   7.0564585   7.0564585   7.0837898   7.0837898   7.0837898   7.0837898
  28.7655465  28.7590711  35.0157678  35.0157678  35.0157678  35.0157678
  34.9474234  34.9474234  34.9474234  34.9474234  34.9416567  34.9416567
  34.9416567  34.9416567
 TTTTTTTTTTTTTTTTTTTTTTTTTTTTTT MOQGAD      TELAPSE      513.20 TCPU      439.62
 TTTTTTTTTTTTTTTTTTTTTTTTTTTTTT SHELLXN     TELAPSE      540.70 TCPU      464.80
 TTTTTTTTTTTTTTTTTTTTTTTTTTTTTT MONMO3      TELAPSE      543.97 TCPU      468.06
 NUMERICALLY INTEGRATED DENSITY    768.0000493051
 TTTTTTTTTTTTTTTTTTTTTTTTTTTTTT NUMDFT      TELAPSE      545.57 TCPU      469.65
 CYC  10 ETOT(AU) -3.644789674511E+04 DETOT -1.40E-04 tst  4.20E-07 PX  2.01E-03
 TTTTTTTTTTTTTTTTTTTTTTTTTTTTTT DIIS        TELAPSE      545.80 TCPU      469.88
 DIIS TEST: 0.19828E-03 AT SCF   CYCLE  10 - DIIS ACTIVE - HISTORY:    10 CYCLES
 TTTTTTTTTTTTTTTTTTTTTTTTTTTTTT FDIK        TELAPSE      557.37 TCPU      479.26
 INSULATING STATE
 TOP OF VALENCE BANDS -    BAND    384; K    5; EIG -2.0748226E-01 AU
 TOP OF VALENCE BANDS -    BAND    384; K    1; EIG -2.0764575E-01 AU
 BOTTOM OF VIRTUAL BANDS - BAND    385; K    6; EIG -1.2346279E-01 AU
 INDIRECT ENERGY BAND GAP:   2.2863 eV
 BOTTOM OF VIRTUAL BANDS - BAND    385; K    1; EIG -1.2039762E-01 AU
 TTTTTTTTTTTTTTTTTTTTTTTTTTTTTT PDIG        TELAPSE      558.44 TCPU      480.34
 TOTAL ATOMIC CHARGES:
   1.3613709   1.3613709   1.3613709   1.3613709   6.1438459   6.1438459
   6.1438459   6.1438459   5.8237133   5.8237133   5.8237133   5.8237133
   5.9609403   5.9609403   5.9609403   5.9609403   5.8246135   5.8246135
   5.8246135   5.8246135   6.0703876   6.0703876   6.0703876   6.0703876
   5.9559280   5.9559280   5.9559280   5.9559280   7.1757351   7.1757351
   7.1757351   7.1757351   7.0901931   7.0901931   7.0901931   7.0901931
   7.1706205   7.1706205   7.1706205   7.1706205   7.0560148   7.0560148
   7.0560148   7.0560148   7.0830434   7.0830434   7.0830434   7.0830434
  28.7627697  28.7574951  35.0154311  35.0154311  35.0154311  35.0154311
  34.9467779  34.9467779  34.9467779  34.9467779  34.9413182  34.9413182
  34.9413182  34.9413182
 TTTTTTTTTTTTTTTTTTTTTTTTTTTTTT MOQGAD      TELAPSE      558.47 TCPU      480.36
 TTTTTTTTTTTTTTTTTTTTTTTTTTTTTT SHELLXN     TELAPSE      585.99 TCPU      505.55
 TTTTTTTTTTTTTTTTTTTTTTTTTTTTTT MONMO3      TELAPSE      590.15 TCPU      509.70
 NUMERICALLY INTEGRATED DENSITY    768.0000491939
 TTTTTTTTTTTTTTTTTTTTTTTTTTTTTT NUMDFT      TELAPSE      591.75 TCPU      511.29
 CYC  11 ETOT(AU) -3.644789676419E+04 DETOT -1.91E-05 tst  7.70E-08 PX  1.44E-03
 TTTTTTTTTTTTTTTTTTTTTTTTTTTTTT DIIS        TELAPSE      591.97 TCPU      511.50
 DIIS TEST: 0.55641E-04 AT SCF   CYCLE  11 - DIIS ACTIVE - HISTORY:    11 CYCLES
 TTTTTTTTTTTTTTTTTTTTTTTTTTTTTT FDIK        TELAPSE      601.62 TCPU      518.62
 INSULATING STATE
 TOP OF VALENCE BANDS -    BAND    384; K    5; EIG -2.0752634E-01 AU
 TOP OF VALENCE BANDS -    BAND    384; K    1; EIG -2.0769408E-01 AU
 BOTTOM OF VIRTUAL BANDS - BAND    385; K    6; EIG -1.2333716E-01 AU
 INDIRECT ENERGY BAND GAP:   2.2909 eV
 BOTTOM OF VIRTUAL BANDS - BAND    385; K    1; EIG -1.2026739E-01 AU
 TTTTTTTTTTTTTTTTTTTTTTTTTTTTTT PDIG        TELAPSE      602.70 TCPU      519.69
 TOTAL ATOMIC CHARGES:
   1.3613413   1.3613413   1.3613413   1.3613413   6.1448453   6.1448453
   6.1448453   6.1448453   5.8226856   5.8226856   5.8226856   5.8226856
   5.9608856   5.9608856   5.9608856   5.9608856   5.8240687   5.8240687
   5.8240687   5.8240687   6.0707093   6.0707093   6.0707093   6.0707093
   5.9549667   5.9549667   5.9549667   5.9549667   7.1725497   7.1725497
   7.1725497   7.1725497   7.0929379   7.0929379   7.0929379   7.0929379
   7.1691670   7.1691670   7.1691670   7.1691670   7.0569018   7.0569018
   7.0569018   7.0569018   7.0828161   7.0828161   7.0828161   7.0828161
  28.7645331  28.7577503  35.0159937  35.0159937  35.0159937  35.0159937
  34.9476982  34.9476982  34.9476982  34.9476982  34.9418623  34.9418623
  34.9418623  34.9418623
 TTTTTTTTTTTTTTTTTTTTTTTTTTTTTT MOQGAD      TELAPSE      602.72 TCPU      519.71
 TTTTTTTTTTTTTTTTTTTTTTTTTTTTTT SHELLXN     TELAPSE      630.45 TCPU      544.90
 TTTTTTTTTTTTTTTTTTTTTTTTTTTTTT MONMO3      TELAPSE      633.87 TCPU      548.31
 NUMERICALLY INTEGRATED DENSITY    768.0000492729
 TTTTTTTTTTTTTTTTTTTTTTTTTTTTTT NUMDFT      TELAPSE      635.46 TCPU      549.89
 CYC  12 ETOT(AU) -3.644789676298E+04 DETOT  1.21E-06 tst  8.83E-08 PX  8.06E-04
 TTTTTTTTTTTTTTTTTTTTTTTTTTTTTT DIIS        TELAPSE      635.68 TCPU      550.11
 DIIS TEST: 0.60601E-04 AT SCF   CYCLE  12 - DIIS ACTIVE - HISTORY:    12 CYCLES
 TTTTTTTTTTTTTTTTTTTTTTTTTTTTTT FDIK        TELAPSE      644.72 TCPU      558.91
 INSULATING STATE
 TOP OF VALENCE BANDS -    BAND    384; K    5; EIG -2.0749079E-01 AU
 TOP OF VALENCE BANDS -    BAND    384; K    1; EIG -2.0765640E-01 AU
 BOTTOM OF VIRTUAL BANDS - BAND    385; K    6; EIG -1.2337127E-01 AU
 INDIRECT ENERGY BAND GAP:   2.2890 eV
 BOTTOM OF VIRTUAL BANDS - BAND    385; K    1; EIG -1.2030595E-01 AU
 TTTTTTTTTTTTTTTTTTTTTTTTTTTTTT PDIG        TELAPSE      645.80 TCPU      559.99
 TOTAL ATOMIC CHARGES:
   1.3614465   1.3614465   1.3614465   1.3614465   6.1445507   6.1445507
   6.1445507   6.1445507   5.8224321   5.8224321   5.8224321   5.8224321
   5.9610121   5.9610121   5.9610121   5.9610121   5.8241060   5.8241060
   5.8241060   5.8241060   6.0699200   6.0699200   6.0699200   6.0699200
   5.9558854   5.9558854   5.9558854   5.9558854   7.1748533   7.1748533
   7.1748533   7.1748533   7.0912321   7.0912321   7.0912321   7.0912321
   7.1702814   7.1702814   7.1702814   7.1702814   7.0560045   7.0560045
   7.0560045   7.0560045   7.0833058   7.0833058   7.0833058   7.0833058
  28.7640821  28.7579755  35.0157347  35.0157347  35.0157347  35.0157347
[...]
 CYCLE   7   ALPHA  753.719153  EPSILON    2.574460  DELTA    1.0224E-01
 TTTTTTTTTTTTTTTTTTTTTTTTTTTTTT MOQGAD      TELAPSE   109702.48 TCPU   108648.72
 TTTTTTTTTTTTTTTTTTTTTTTTTTTTTT CP_MONMON   TELAPSE   109707.09 TCPU   108653.31
 DIIS TEST: 0.26928E-01 AT CPHF  CYCLE   8 - DIIS ACTIVE - HISTORY:     8 CYCLES
 CYCLE   8   ALPHA  753.761382  EPSILON    2.574548  DELTA    4.2229E-02
 TTTTTTTTTTTTTTTTTTTTTTTTTTTTTT MOQGAD      TELAPSE   109926.69 TCPU   108871.06
 TTTTTTTTTTTTTTTTTTTTTTTTTTTTTT CP_MONMON   TELAPSE   109931.30 TCPU   108875.63
 DIIS TEST: 0.73154E-01 AT CPHF  CYCLE   9 - DIIS ACTIVE - HISTORY:     9 CYCLES
 CYCLE   9   ALPHA  753.743246  EPSILON    2.574510  DELTA   -1.8135E-02
 TTTTTTTTTTTTTTTTTTTTTTTTTTTTTT MOQGAD      TELAPSE   110150.93 TCPU   109093.51
 TTTTTTTTTTTTTTTTTTTTTTTTTTTTTT CP_MONMON   TELAPSE   110155.55 TCPU   109098.10
 DIIS TEST: 0.14880E-01 AT CPHF  CYCLE  10 - DIIS ACTIVE - HISTORY:    10 CYCLES
 CYCLE  10   ALPHA  753.738849  EPSILON    2.574501  DELTA   -4.3977E-03
 TTTTTTTTTTTTTTTTTTTTTTTTTTTTTT MOQGAD      TELAPSE   110376.22 TCPU   109316.96
 TTTTTTTTTTTTTTTTTTTTTTTTTTTTTT CP_MONMON   TELAPSE   110380.84 TCPU   109321.55
 DIIS TEST: 0.70822E-02 AT CPHF  CYCLE  11 - DIIS ACTIVE - HISTORY:    11 CYCLES
 CYCLE  11   ALPHA  753.758063  EPSILON    2.574541  DELTA    1.9214E-02
 TTTTTTTTTTTTTTTTTTTTTTTTTTTTTT MOQGAD      TELAPSE   110603.62 TCPU   109542.64
 TTTTTTTTTTTTTTTTTTTTTTTTTTTTTT CP_MONMON   TELAPSE   110608.23 TCPU   109547.23
 DIIS TEST: 0.42631E-02 AT CPHF  CYCLE  12 - DIIS ACTIVE - HISTORY:    12 CYCLES
 CYCLE  12   ALPHA  753.749764  EPSILON    2.574524  DELTA   -8.2990E-03
 TTTTTTTTTTTTTTTTTTTTTTTTTTTTTT MOQGAD      TELAPSE   110829.03 TCPU   109766.24
 TTTTTTTTTTTTTTTTTTTTTTTTTTTTTT CP_MONMON   TELAPSE   110833.64 TCPU   109770.84
 DIIS TEST: 0.23258E-02 AT CPHF  CYCLE  13 - DIIS ACTIVE - HISTORY:    13 CYCLES
 CYCLE  13   ALPHA  753.736809  EPSILON    2.574497  DELTA   -1.2956E-02
 TTTTTTTTTTTTTTTTTTTTTTTTTTTTTT MOQGAD      TELAPSE   111053.30 TCPU   109988.84
 TTTTTTTTTTTTTTTTTTTTTTTTTTTTTT CP_MONMON   TELAPSE   111057.91 TCPU   109993.43
 DIIS TEST: 0.13038E-02 AT CPHF  CYCLE  14 - DIIS ACTIVE - HISTORY:    14 CYCLES
 CYCLE  14   ALPHA  753.728002  EPSILON    2.574478  DELTA   -8.8062E-03
 TTTTTTTTTTTTTTTTTTTTTTTTTTTTTT MOQGAD      TELAPSE   111277.69 TCPU   110211.53
 TTTTTTTTTTTTTTTTTTTTTTTTTTTTTT CP_MONMON   TELAPSE   111282.30 TCPU   110216.12
 DIIS TEST: 0.53287E-03 AT CPHF  CYCLE  15 - DIIS ACTIVE - HISTORY:    15 CYCLES
 CYCLE  15   ALPHA  753.729500  EPSILON    2.574481  DELTA    1.4973E-03
 TTTTTTTTTTTTTTTTTTTTTTTTTTTTTT MOQGAD      TELAPSE   111501.91 TCPU   110433.76
 TTTTTTTTTTTTTTTTTTTTTTTTTTTTTT CP_MONMON   TELAPSE   111506.51 TCPU   110438.35
 DIIS TEST: 0.28394E-03 AT CPHF  CYCLE  16 - DIIS ACTIVE - HISTORY:    16 CYCLES
 CYCLE  16   ALPHA  753.731393  EPSILON    2.574485  DELTA    1.8931E-03
 TTTTTTTTTTTTTTTTTTTTTTTTTTTTTT MOQGAD      TELAPSE   111726.03 TCPU   110656.07
 TTTTTTTTTTTTTTTTTTTTTTTTTTTTTT CP_MONMON   TELAPSE   111730.65 TCPU   110660.68
 DIIS TEST: 0.22905E-03 AT CPHF  CYCLE  17 - DIIS ACTIVE - HISTORY:    17 CYCLES
 CYCLE  17   ALPHA  753.732109  EPSILON    2.574487  DELTA    7.1577E-04
 TTTTTTTTTTTTTTTTTTTTTTTTTTTTTT CP_SC       TELAPSE   111751.47 TCPU   110680.15

 *******************************************************************************

 POLARIZABILITY (ALPHA), DIELECTRIC (EPSILON) AND FIRST-ORDER ELECTRIC
 SUSCEPTIBILITY (CHI(1)) TENSORS (INDEPENDENT COMPONENTS)

  FR.(eV) COMP.   ALPHA(Re,Im)           EPSILON(Re,Im)                CHI(1)
  1.435   XX    1787.2435       0.0000       4.7334       0.0000       3.7334
  1.435   ZZ     753.7321       0.0000       2.5745       0.0000       1.5745

 DIELECTRIC TENSOR

 TENSOR IN PRINCIPAL AXES SYSTEM
 AA  4.733410E+00 BB  4.733410E+00 CC  2.574487E+00

 REFRACTIVE INDICES 
 AA  1.604521E+00 BB  2.175640E+00 CC  2.175640E+00

 OPTICALLY ANISOTROPIC - UNIAXIAL CRYSTAL

 BIREFRINGENCE =  0.5711 (NEGATIVE) - OBLATE OPTICAL ELLIPSOID

 EPSILON=N**2=1+CHI(1)=1+ALPHA*4*PI/V,   4*PI/V=   0.00209 BOHR**(-3)
 ALPHA IN BOHR**3; EPSILON AND CHI(1) ARE DIMENSIONLESS.
 *******************************************************************************

 DYNAMIC FIELD: RUN 10/ 10 - RADIATION WAVELENGTH: 1064.0000 NM

 *******************************************************************************

 ELECTRIC FIELD APPLIED ALONG CARTESIAN DIRECTION X

 *******************************************************************************
 THE NUMBER OF SYMMETRY OPERATORS HAS BEEN REDUCED FROM  4 TO  1

 NEW GRID IN RECIPROCAL SPACE
 *******************************************************************************
 POINTS IN THE IBZ                  14 SHRINKING FACTORS               3  3  3
 *******************************************************************************
 *** K POINTS COORDINATES (OBLIQUE COORDINATES IN UNITS OF SHRINK FAC. )
   1-R(  0  0  0)   2-C(  1  0  0)   3-C(  0  1  2)   4-C(  2  0  1)
   5-C(  0  2  0)   6-C(  1  1  0)   7-C(  1  1  1)   8-C(  1  0  1)
   9-C(  0  1  1)  10-C(  2  1  0)  11-C(  0  0  2)  12-C(  2  1  1)
  13-C(  2  1  2)  14-C(  2  2  1)

 GCALCO - MAX INDICES DIRECT LATTICE VECTOR    14    14    15
 NO.OF VECTORS CREATED 6999 STARS  488 RMAX   215.92170 BOHR
 TTTTTTTTTTTTTTTTTTTTTTTTTTTTTT gordsh1     TELAPSE   111751.49 TCPU   110680.15

 MATRIX SIZE: P(G) 2035696, F(G) 1018612, P(G) IRR 1020490, F(G) IRR 1020490
 MAX G-VECTOR INDEX FOR 1- AND 2-ELECTRON INTEGRALS  59

 TTTTTTTTTTTTTTTTTTTTTTTTTTTTTT INPUT       TELAPSE   111751.63 TCPU   110680.30
 TTTTTTTTTTTTTTTTTTTTTTTTTTTTTT SYMM        TELAPSE   111751.63 TCPU   110680.30

 ***** NEW REFERENCE GEOMETRY *****
 TTTTTTTTTTTTTTTTTTTTTTTTTTTTTT INT_SCREEN  TELAPSE   111751.64 TCPU   110680.31
 INFORMATION **** EXCBUF **** EXCH. BIPO BUFFER: WORDS USED =           0

 DFT PARAMETERS

     ATOM       ELECTRONS   NET CHARGE   R(ANGSTROM)
   1   1  H       1.0000      0.0000     1.11000000
   5   6  C       6.0000      0.0000     0.77000000
  29   7  N       7.0000      0.0000     0.74000000
  49  30  ZN     30.0000      0.0000     1.37000000
  51  35  BR     35.0000      0.0000     1.14000000

 SIZE OF GRID=    1911820
 TTTTTTTTTTTTTTTTTTTTTTTTTTTTTT MAKE_GRID2  TELAPSE   111752.89 TCPU   110681.55
 BECKE WEIGHT FUNCTION
 RADSAFE =     2.00
 TOLERANCES - DENSITY:10**- 6; POTENTIAL:10**- 9; GRID WGT:10**-14

 RADIAL INTEGRATION  - INTERVALS (POINTS,UPPER LIMIT):            1( 75,  4.0*R)

 ANGULAR INTEGRATION - INTERVALS (ACCURACY LEVEL [N. POINTS] UPPER LIMIT):
  1(  4[  86]   0.2)  2(  8[ 194]   0.5)  3( 12[ 350]   0.9)  4( 16[ 974]   3.5)
  5( 12[ 350]9999.0)
 TTTTTTTTTTTTTTTTTTTTTTTTTTTTTT INT_CALC    TELAPSE   111752.95 TCPU   110681.60
 CYCLE   0   ALPHA 2247.737960  EPSILON    5.695347  DELTA    2.2477E+03
 TTTTTTTTTTTTTTTTTTTTTTTTTTTTTT MOQGAD      TELAPSE   112199.40 TCPU   111125.75
 TTTTTTTTTTTTTTTTTTTTTTTTTTTTTT CP_MONMON   TELAPSE   112207.98 TCPU   111134.30
 DIIS TEST: 0.36823E+03 AT CPHF  CYCLE   1 - MIX    0 %
 CYCLE   1   ALPHA  809.025933  EPSILON    2.689991  DELTA   -1.4387E+03
 TTTTTTTTTTTTTTTTTTTTTTTTTTTTTT MOQGAD      TELAPSE   112662.43 TCPU   111584.38
 TTTTTTTTTTTTTTTTTTTTTTTTTTTTTT CP_MONMON   TELAPSE   112671.00 TCPU   111592.92
 DIIS TEST: 0.28772E+04 AT CPHF  CYCLE   2 - DIIS ACTIVE - HISTORY:     2 CYCLES
 CYCLE   2   ALPHA 1615.339276  EPSILON    4.374316  DELTA    8.0631E+02
 TTTTTTTTTTTTTTTTTTTTTTTTTTTTTT MOQGAD      TELAPSE   113125.27 TCPU   112042.82
 TTTTTTTTTTTTTTTTTTTTTTTTTTTTTT CP_MONMON   TELAPSE   113133.85 TCPU   112051.36
 DIIS TEST: 0.13768E+03 AT CPHF  CYCLE   3 - DIIS ACTIVE - HISTORY:     3 CYCLES
 CYCLE   3   ALPHA 1711.695581  EPSILON    4.575597  DELTA    9.6356E+01
 TTTTTTTTTTTTTTTTTTTTTTTTTTTTTT MOQGAD      TELAPSE   113584.88 TCPU   112498.75
 TTTTTTTTTTTTTTTTTTTTTTTTTTTTTT CP_MONMON   TELAPSE   113593.47 TCPU   112507.29
 DIIS TEST: 0.79315E+01 AT CPHF  CYCLE   4 - DIIS ACTIVE - HISTORY:     4 CYCLES
 CYCLE   4   ALPHA 1733.052656  EPSILON    4.620210  DELTA    2.1357E+01
 TTTTTTTTTTTTTTTTTTTTTTTTTTTTTT MOQGAD      TELAPSE   114046.20 TCPU   112953.62
 TTTTTTTTTTTTTTTTTTTTTTTTTTTTTT CP_MONMON   TELAPSE   114054.78 TCPU   112962.17
 DIIS TEST: 0.24090E+01 AT CPHF  CYCLE   5 - DIIS ACTIVE - HISTORY:     5 CYCLES
 CYCLE   5   ALPHA 1738.040080  EPSILON    4.630628  DELTA    4.9874E+00
 TTTTTTTTTTTTTTTTTTTTTTTTTTTTTT MOQGAD      TELAPSE   114506.65 TCPU   113410.59
 TTTTTTTTTTTTTTTTTTTTTTTTTTTTTT CP_MONMON   TELAPSE   114515.22 TCPU   113419.13
 DIIS TEST: 0.19086E+00 AT CPHF  CYCLE   6 - DIIS ACTIVE - HISTORY:     6 CYCLES
 CYCLE   6   ALPHA 1739.719674  EPSILON    4.634137  DELTA    1.6796E+00
 TTTTTTTTTTTTTTTTTTTTTTTTTTTTTT MOQGAD      TELAPSE   114972.90 TCPU   113868.56
 TTTTTTTTTTTTTTTTTTTTTTTTTTTTTT CP_MONMON   TELAPSE   114981.47 TCPU   113877.10
 DIIS TEST: 0.31251E-01 AT CPHF  CYCLE   7 - DIIS ACTIVE - HISTORY:     7 CYCLES
 CYCLE   7   ALPHA 1740.379861  EPSILON    4.635516  DELTA    6.6019E-01
 TTTTTTTTTTTTTTTTTTTTTTTTTTTTTT MOQGAD      TELAPSE   115436.46 TCPU   114325.14
 TTTTTTTTTTTTTTTTTTTTTTTTTTTTTT CP_MONMON   TELAPSE   115445.04 TCPU   114333.68
 DIIS TEST: 0.49232E-02 AT CPHF  CYCLE   8 - DIIS ACTIVE - HISTORY:     8 CYCLES
 CYCLE   8   ALPHA 1740.429678  EPSILON    4.635620  DELTA    4.9816E-02
 TTTTTTTTTTTTTTTTTTTTTTTTTTTTTT MOQGAD      TELAPSE   115900.86 TCPU   114782.56
 TTTTTTTTTTTTTTTTTTTTTTTTTTTTTT CP_MONMON   TELAPSE   115909.44 TCPU   114791.10
 DIIS TEST: 0.48208E-03 AT CPHF  CYCLE   9 - DIIS ACTIVE - HISTORY:     9 CYCLES
 CYCLE   9   ALPHA 1740.405853  EPSILON    4.635570  DELTA   -2.3825E-02
 TTTTTTTTTTTTTTTTTTTTTTTTTTTTTT MOQGAD      TELAPSE   116363.12 TCPU   115240.27
 TTTTTTTTTTTTTTTTTTTTTTTTTTTTTT CP_MONMON   TELAPSE   116371.70 TCPU   115248.81
 DIIS TEST: 0.15047E-03 AT CPHF  CYCLE  10 - DIIS ACTIVE - HISTORY:    10 CYCLES
 CYCLE  10   ALPHA 1740.386972  EPSILON    4.635531  DELTA   -1.8881E-02
 TTTTTTTTTTTTTTTTTTTTTTTTTTTTTT MOQGAD      TELAPSE   116826.02 TCPU   115698.47
 TTTTTTTTTTTTTTTTTTTTTTTTTTTTTT CP_MONMON   TELAPSE   116834.60 TCPU   115707.00
 DIIS TEST: 0.17441E-03 AT CPHF  CYCLE  11 - DIIS ACTIVE - HISTORY:    11 CYCLES
 CYCLE  11   ALPHA 1740.376364  EPSILON    4.635509  DELTA   -1.0608E-02
 TTTTTTTTTTTTTTTTTTTTTTTTTTTTTT MOQGAD      TELAPSE   117289.59 TCPU   116157.36
 TTTTTTTTTTTTTTTTTTTTTTTTTTTTTT CP_MONMON   TELAPSE   117298.17 TCPU   116165.90
 DIIS TEST: 0.11253E-04 AT CPHF  CYCLE  12 - DIIS ACTIVE - HISTORY:    12 CYCLES
 CYCLE  12   ALPHA 1740.368646  EPSILON    4.635493  DELTA   -7.7180E-03
 TTTTTTTTTTTTTTTTTTTTTTTTTTTTTT MOQGAD      TELAPSE   117753.30 TCPU   116616.38
 TTTTTTTTTTTTTTTTTTTTTTTTTTTTTT CP_MONMON   TELAPSE   117761.88 TCPU   116624.92
 DIIS TEST: 0.65612E-06 AT CPHF  CYCLE  13 - DIIS ACTIVE - HISTORY:    13 CYCLES
 CYCLE  13   ALPHA 1740.366519  EPSILON    4.635488  DELTA   -2.1272E-03
 TTTTTTTTTTTTTTTTTTTTTTTTTTTTTT MOQGAD      TELAPSE   118215.88 TCPU   117075.59
 TTTTTTTTTTTTTTTTTTTTTTTTTTTTTT CP_MONMON   TELAPSE   118224.47 TCPU   117084.14
 DIIS TEST: 0.90613E-07 AT CPHF  CYCLE  14 - DIIS ACTIVE - HISTORY:    14 CYCLES
 CYCLE  14   ALPHA 1740.365631  EPSILON    4.635486  DELTA   -8.8741E-04
 TTTTTTTTTTTTTTTTTTTTTTTTTTTTTT CP_SC       TELAPSE   118249.60 TCPU   117107.14

 *******************************************************************************

 ELECTRIC FIELD APPLIED ALONG CARTESIAN DIRECTION Z

 *******************************************************************************
 THE NUMBER OF SYMMETRY OPERATORS HAS BEEN REDUCED FROM  4 TO  2

 NEW GRID IN RECIPROCAL SPACE
 *******************************************************************************
 POINTS IN THE IBZ                  10 SHRINKING FACTORS               3  3  3
 *******************************************************************************
 *** K POINTS COORDINATES (OBLIQUE COORDINATES IN UNITS OF SHRINK FAC. )
   1-R(  0  0  0)   2-C(  1  0  0)   3-C(  2  0  1)   4-C(  1  1  0)
   5-C(  1  0  1)   6-C(  2  1  0)   7-C(  0  0  2)   8-C(  2  1  1)
   9-C(  2  1  2)  10-C(  2  2  1)

 GCALCO - MAX INDICES DIRECT LATTICE VECTOR    14    14    15
 NO.OF VECTORS CREATED 6999 STARS  488 RMAX   215.92170 BOHR
 TTTTTTTTTTTTTTTTTTTTTTTTTTTTTT gordsh1     TELAPSE   118249.61 TCPU   117107.15

 MATRIX SIZE: P(G) 2035696, F(G) 1018612, P(G) IRR  512532, F(G) IRR  512532
 MAX G-VECTOR INDEX FOR 1- AND 2-ELECTRON INTEGRALS  59

 TTTTTTTTTTTTTTTTTTTTTTTTTTTTTT INPUT       TELAPSE   118249.65 TCPU   117107.19
 TTTTTTTTTTTTTTTTTTTTTTTTTTTTTT SYMM        TELAPSE   118249.65 TCPU   117107.19

 ***** NEW REFERENCE GEOMETRY *****
 TTTTTTTTTTTTTTTTTTTTTTTTTTTTTT INT_SCREEN  TELAPSE   118249.65 TCPU   117107.20
 INFORMATION **** EXCBUF **** EXCH. BIPO BUFFER: WORDS USED =           0

 DFT PARAMETERS

     ATOM       ELECTRONS   NET CHARGE   R(ANGSTROM)
   1   1  H       1.0000      0.0000     1.11000000
   5   6  C       6.0000      0.0000     0.77000000
  29   7  N       7.0000      0.0000     0.74000000
  49  30  ZN     30.0000      0.0000     1.37000000
  51  35  BR     35.0000      0.0000     1.14000000

 SIZE OF GRID=     956028
 TTTTTTTTTTTTTTTTTTTTTTTTTTTTTT MAKE_GRID2  TELAPSE   118250.46 TCPU   117107.99
 BECKE WEIGHT FUNCTION
 RADSAFE =     2.00
 TOLERANCES - DENSITY:10**- 6; POTENTIAL:10**- 9; GRID WGT:10**-14

 RADIAL INTEGRATION  - INTERVALS (POINTS,UPPER LIMIT):            1( 75,  4.0*R)

 ANGULAR INTEGRATION - INTERVALS (ACCURACY LEVEL [N. POINTS] UPPER LIMIT):
  1(  4[  86]   0.2)  2(  8[ 194]   0.5)  3( 12[ 350]   0.9)  4( 16[ 974]   3.5)
  5( 12[ 350]9999.0)
 TTTTTTTTTTTTTTTTTTTTTTTTTTTTTT INT_CALC    TELAPSE   118250.50 TCPU   117108.03
 CYCLE   0   ALPHA  925.138387  EPSILON    2.932541  DELTA    9.2514E+02
 TTTTTTTTTTTTTTTTTTTTTTTTTTTTTT MOQGAD      TELAPSE   118479.30 TCPU   117335.64
 TTTTTTTTTTTTTTTTTTTTTTTTTTTTTT CP_MONMON   TELAPSE   118483.92 TCPU   117340.23
 DIIS TEST: 0.80896E+02 AT CPHF  CYCLE   1 - MIX    0 %
 CYCLE   1   ALPHA  551.650670  EPSILON    2.152355  DELTA   -3.7349E+02
 TTTTTTTTTTTTTTTTTTTTTTTTTTTTTT MOQGAD      TELAPSE   118717.29 TCPU   117571.86
 TTTTTTTTTTTTTTTTTTTTTTTTTTTTTT CP_MONMON   TELAPSE   118721.91 TCPU   117576.46
 DIIS TEST: 0.36943E+03 AT CPHF  CYCLE   2 - DIIS ACTIVE - HISTORY:     2 CYCLES
 CYCLE   2   ALPHA  699.653311  EPSILON    2.461520  DELTA    1.4800E+02
 TTTTTTTTTTTTTTTTTTTTTTTTTTTTTT MOQGAD      TELAPSE   118954.33 TCPU   117807.13
 TTTTTTTTTTTTTTTTTTTTTTTTTTTTTT CP_MONMON   TELAPSE   118958.94 TCPU   117811.73
 DIIS TEST: 0.60967E+02 AT CPHF  CYCLE   3 - DIIS ACTIVE - HISTORY:     3 CYCLES
 CYCLE   3   ALPHA  743.630760  EPSILON    2.553386  DELTA    4.3977E+01
 TTTTTTTTTTTTTTTTTTTTTTTTTTTTTT MOQGAD      TELAPSE   119191.18 TCPU   118042.26
 TTTTTTTTTTTTTTTTTTTTTTTTTTTTTT CP_MONMON   TELAPSE   119195.79 TCPU   118046.85
 DIIS TEST: 0.13059E+01 AT CPHF  CYCLE   4 - DIIS ACTIVE - HISTORY:     4 CYCLES
 CYCLE   4   ALPHA  744.708606  EPSILON    2.555637  DELTA    1.0778E+00
 TTTTTTTTTTTTTTTTTTTTTTTTTTTTTT MOQGAD      TELAPSE   119430.55 TCPU   118279.79
 TTTTTTTTTTTTTTTTTTTTTTTTTTTTTT CP_MONMON   TELAPSE   119435.15 TCPU   118284.38
 DIIS TEST: 0.44070E+00 AT CPHF  CYCLE   5 - DIIS ACTIVE - HISTORY:     5 CYCLES
 CYCLE   5   ALPHA  744.953176  EPSILON    2.556148  DELTA    2.4457E-01
 TTTTTTTTTTTTTTTTTTTTTTTTTTTTTT MOQGAD      TELAPSE   119668.69 TCPU   118516.12
 TTTTTTTTTTTTTTTTTTTTTTTTTTTTTT CP_MONMON   TELAPSE   119673.29 TCPU   118520.71
 DIIS TEST: 0.65544E-01 AT CPHF  CYCLE   6 - DIIS ACTIVE - HISTORY:     6 CYCLES
 CYCLE   6   ALPHA  745.067802  EPSILON    2.556388  DELTA    1.1463E-01
 TTTTTTTTTTTTTTTTTTTTTTTTTTTTTT MOQGAD      TELAPSE   119905.73 TCPU   118751.29
 TTTTTTTTTTTTTTTTTTTTTTTTTTTTTT CP_MONMON   TELAPSE   119910.33 TCPU   118755.88
 DIIS TEST: 0.38388E+00 AT CPHF  CYCLE   7 - DIIS ACTIVE - HISTORY:     7 CYCLES
 CYCLE   7   ALPHA  745.129630  EPSILON    2.556517  DELTA    6.1828E-02
 TTTTTTTTTTTTTTTTTTTTTTTTTTTTTT MOQGAD      TELAPSE   120142.45 TCPU   118986.11
 TTTTTTTTTTTTTTTTTTTTTTTTTTTTTT CP_MONMON   TELAPSE   120147.06 TCPU   118990.69
 DIIS TEST: 0.25297E-01 AT CPHF  CYCLE   8 - DIIS ACTIVE - HISTORY:     8 CYCLES
 CYCLE   8   ALPHA  745.162358  EPSILON    2.556585  DELTA    3.2728E-02
 TTTTTTTTTTTTTTTTTTTTTTTTTTTTTT MOQGAD      TELAPSE   120380.34 TCPU   119222.25
 TTTTTTTTTTTTTTTTTTTTTTTTTTTTTT CP_MONMON   TELAPSE   120384.94 TCPU   119226.84
 DIIS TEST: 0.46513E-01 AT CPHF  CYCLE   9 - DIIS ACTIVE - HISTORY:     9 CYCLES
 CYCLE   9   ALPHA  745.147820  EPSILON    2.556555  DELTA   -1.4538E-02
 TTTTTTTTTTTTTTTTTTTTTTTTTTTTTT MOQGAD      TELAPSE   120620.70 TCPU   119460.75
 TTTTTTTTTTTTTTTTTTTTTTTTTTTTTT CP_MONMON   TELAPSE   120625.31 TCPU   119465.33
 DIIS TEST: 0.83608E-02 AT CPHF  CYCLE  10 - DIIS ACTIVE - HISTORY:    10 CYCLES
 CYCLE  10   ALPHA  745.140665  EPSILON    2.556540  DELTA   -7.1551E-03
 TTTTTTTTTTTTTTTTTTTTTTTTTTTTTT MOQGAD      TELAPSE   120858.87 TCPU   119697.17
 TTTTTTTTTTTTTTTTTTTTTTTTTTTTTT CP_MONMON   TELAPSE   120863.49 TCPU   119701.77
 DIIS TEST: 0.47839E-02 AT CPHF  CYCLE  11 - DIIS ACTIVE - HISTORY:    11 CYCLES
 CYCLE  11   ALPHA  745.155472  EPSILON    2.556571  DELTA    1.4806E-02
 TTTTTTTTTTTTTTTTTTTTTTTTTTTTTT MOQGAD      TELAPSE   121095.97 TCPU   119932.50
 TTTTTTTTTTTTTTTTTTTTTTTTTTTTTT CP_MONMON   TELAPSE   121100.58 TCPU   119937.10
 DIIS TEST: 0.26502E-02 AT CPHF  CYCLE  12 - DIIS ACTIVE - HISTORY:    12 CYCLES
 CYCLE  12   ALPHA  745.148328  EPSILON    2.556556  DELTA   -7.1432E-03
 TTTTTTTTTTTTTTTTTTTTTTTTTTTTTT MOQGAD      TELAPSE   121335.93 TCPU   120170.66
 TTTTTTTTTTTTTTTTTTTTTTTTTTTTTT CP_MONMON   TELAPSE   121340.54 TCPU   120175.26
 DIIS TEST: 0.13139E-02 AT CPHF  CYCLE  13 - DIIS ACTIVE - HISTORY:    13 CYCLES
 CYCLE  13   ALPHA  745.139245  EPSILON    2.556537  DELTA   -9.0831E-03
 TTTTTTTTTTTTTTTTTTTTTTTTTTTTTT MOQGAD      TELAPSE   121576.96 TCPU   120409.93
 TTTTTTTTTTTTTTTTTTTTTTTTTTTTTT CP_MONMON   TELAPSE   121581.57 TCPU   120414.52
 DIIS TEST: 0.76488E-03 AT CPHF  CYCLE  14 - DIIS ACTIVE - HISTORY:    14 CYCLES
 CYCLE  14   ALPHA  745.131566  EPSILON    2.556521  DELTA   -7.6798E-03
 TTTTTTTTTTTTTTTTTTTTTTTTTTTTTT MOQGAD      TELAPSE   121814.97 TCPU   120646.13
 TTTTTTTTTTTTTTTTTTTTTTTTTTTTTT CP_MONMON   TELAPSE   121819.57 TCPU   120650.72
 DIIS TEST: 0.32754E-03 AT CPHF  CYCLE  15 - DIIS ACTIVE - HISTORY:    15 CYCLES
 CYCLE  15   ALPHA  745.132041  EPSILON    2.556522  DELTA    4.7579E-04
 TTTTTTTTTTTTTTTTTTTTTTTTTTTTTT CP_SC       TELAPSE   121841.00 TCPU   120670.18

 *******************************************************************************

 POLARIZABILITY (ALPHA), DIELECTRIC (EPSILON) AND FIRST-ORDER ELECTRIC
 SUSCEPTIBILITY (CHI(1)) TENSORS (INDEPENDENT COMPONENTS)

  FR.(eV) COMP.   ALPHA(Re,Im)           EPSILON(Re,Im)                CHI(1)
  1.165   XX    1740.3656       0.0000       4.6355       0.0000       3.6355
  1.165   ZZ     745.1320       0.0000       2.5565       0.0000       1.5565

 DIELECTRIC TENSOR

 TENSOR IN PRINCIPAL AXES SYSTEM
 AA  4.635486E+00 BB  4.635486E+00 CC  2.556522E+00

 REFRACTIVE INDICES 
 AA  1.598913E+00 BB  2.153018E+00 CC  2.153018E+00

 OPTICALLY ANISOTROPIC - UNIAXIAL CRYSTAL

 BIREFRINGENCE =  0.5541 (NEGATIVE) - OBLATE OPTICAL ELLIPSOID

 EPSILON=N**2=1+CHI(1)=1+ALPHA*4*PI/V,   4*PI/V=   0.00209 BOHR**(-3)
 ALPHA IN BOHR**3; EPSILON AND CHI(1) ARE DIMENSIONLESS.
 *******************************************************************************


 GCALCO - MAX INDICES DIRECT LATTICE VECTOR    14    14    15
 NO.OF VECTORS CREATED 6999 STARS  488 RMAX   215.92170 BOHR

 CAPPA:IS1  3;IS2  3;IS3  3; K PTS MONK NET   6; SYMMOPS:K SPACE   8;G SPACE   4

 TTTTTTTTTTTTTTTTTTTTTTTTTTTTTT END         TELAPSE   121841.07 TCPU   120670.19
 EEEEEEEEEE TERMINATION  DATE 10 03 2024 TIME 00:55:04.4
NODE    0 CPU TIME =    120670.186
    TOTAL CPU TIME =   7727689.486
