Loading crystal17/1.0.2/intel/19.0
  Loading requirement: intel/19.0 ompi/4.0.1/intel/19.0
          64 PROCESSORS WORKING

         
 *******************************************************************************
 *                                                                             *
 *                               CRYSTAL17                                     *
 *                      public : 1.0.2 - March 1st, 2018                       *
 *                       HTTP://WWW.CRYSTAL.UNITO.IT                           *
 *                                                                             *
 *                              MAIN AUTHORS                                   *
 *                                                                             *
 *  R. DOVESI(1,11), V.R. SAUNDERS(2), C. ROETTI(1,11), R. ORLANDO(1,11),      *
 *  C.M. ZICOVICH-WILSON(1,3), F. PASCALE(4), B. CIVALLERI(1,11),              *
 *  K. DOLL(5), N.M. HARRISON(2,6), I.J. BUSH(7), Ph. D'ARCO(8),               *
 *  M. LLUNELL(9), M. CAUSA'(10), Y. NOEL(8), L. MASCHIO(1,11), A. ERBA(1,11)  *
 *  M. RE'RAT(14), S. CASASSA(1,11)                                            *
 *                                                                             *
 *        CONTRIBUTIONS TO THE CODE HAVE ALSO BEEN GIVEN BY                    *
 *                                                                             *
 *  M. FERRABONE(1,11), M. DE LA PIERRE(1,11), M. FERRERO(1,11),               *
 *  J. BAIMA(1,11), E. ALBANESE(1,11), M.F. PEINTINGER(12), R. BAST(13),       *
 *  B. KIRTMAN(15), V. LACIVITA(1,11), R. DEMICHELIS(1,16)                     *
 *  G. BRANDEBURG(17), S. SALUSTRO(1,11), G. SANSONE(1,11)                     *
 *  M.T. RUGGIERO(18)                                                          *
 *                                                                             *
 * (1) THEORETICAL CHEMISTRY GROUP - UNIVERSITA' DI TORINO - TORINO (ITALY)    *
 * (2) COMPUTATIONAL SCIENCE & ENGINEERING DEPARTMENT - STFC DARESBURY (UK)    *
 * (3) UNIVERSIDAD AUTONOMA DEL ESTADO DE MORELOS - CUERNAVACA (MEXICO)        *
 * (4) UNIVERSITE' DE LORRAINE - NANCY (FRANCE)                                *
 * (5) UNIVERSITAET STUTTGART- STUTTGART (GERMANY)                             *
 * (6) IMPERIAL COLLEGE - LONDON (UK)                                          *
 * (7) OXFORD E-RESEARCH CENTRE - OXFORD (UK)                                  *
 * (8) UPMC - SORBONNE UNIVERSITES - PARIS (FRANCE)                            *
 * (9) UNIVERSIDAD DE BARCELONA - BARCELONA (SPAIN)                            *
 *(10) UNIVERSITA' DI NAPOLI "FEDERICO II" - NAPOLI (ITALY)                    *
 *(11) NIS - NANOSTRUCTURED INTERFACES AND SURFACES - TORINO (ITALY)           *
 *(12) MPI FUER CHEMISCHE ENERGIEKONVERSION - MUELHEIM AN DER RUHR (GERMANY)   *
 *(13) UNIVERSITY OF TROMSO - TROMSO (NORWAY)                                  *
 *(14) UNIVERSITE' DE PAU ET DES PAYS DE L'ADOUR - PAU (FRANCE)                *
 *(15) UNIVERSITY OF CALIFORNIA SANTA BARBARA - SANTA BARBARA (USA)            *
 *(16) CURTIN UNIVERSITY - PERTH (AUSTRALIA)                                   *
 *(17) UNIVERSITY COLLEGE LONDON - LONDON (UK)                                 *
 *(18) CAMBRIDGE UNIVERSITY - CAMBRIDGE (UK)                                   *
 *                                                                             *
 *******************************************************************************
 EEEEEEEEEE STARTING  DATE 08 03 2024 TIME 14:04:25.7
 Z:\home\sanoj\Downloads\tmp_p\newconn.mol                                       

 CRYSTAL CALCULATION
 (INPUT ACCORDING TO THE INTERNATIONAL TABLES FOR X-RAY CRYSTALLOGRAPHY)
 CRYSTAL FAMILY                       :  TETRAGONAL  
 CRYSTAL CLASS  (GROTH - 1921)        :  TETRAGONAL DISPHENOIDAL              

 SPACE GROUP (NONCENTROSYMMETRIC)     :  I -4            

 LATTICE PARAMETERS  (ANGSTROMS AND DEGREES) - CONVENTIONAL CELL
        A           B           C        ALPHA        BETA       GAMMA
    11.38007    11.38007    14.10157    90.00000    90.00000    90.00000


 NUMBER OF IRREDUCIBLE ATOMS IN THE CONVENTIONAL CELL:   17

 INPUT COORDINATES

 ATOM AT. N.              COORDINATES
   1   1     8.897800000000E-01  3.195000000000E-02  1.144500000000E-01
   2   6     7.836900000000E-01  7.058300000000E-01  1.064400000000E-01
   3   6     7.507400000000E-01  5.812700000000E-01  1.213300000000E-01
   4   6     7.008400000000E-01  7.974300000000E-01  1.183700000000E-01
   5   6     8.577400000000E-01 -5.875000000000E-02  1.122800000000E-01
   6   6    -9.897000000000E-02  7.452000000000E-01  9.541000000000E-02
   7   6     2.609500000000E-01  8.526000000000E-02  1.253900000000E-01
   8   7     8.115500000000E-01  5.134600000000E-01  1.841300000000E-01
   9   7     7.526300000000E-01  4.085200000000E-01  1.909600000000E-01
  10   7     6.552900000000E-01  5.182400000000E-01  8.860000000000E-02
  11   7     6.607900000000E-01  4.111100000000E-01  1.336600000000E-01
  12   7    -6.350000000000E-02  8.564800000000E-01  9.563000000000E-02
  13  30     0.000000000000E+00  5.000000000000E-01  2.500000000000E-01
  14  30     0.000000000000E+00  0.000000000000E+00  5.000000000000E-01
  15  35     5.412200000000E-01  7.551700000000E-01  1.249300000000E-01
  16  35     2.872000000000E-02  6.409300000000E-01  8.509000000000E-02
  17  35     6.399600000000E-01  4.321000000000E-02  1.466500000000E-01

 *******************************************************************************

 << INFORMATION >>: FROM NOW ON, ALL COORDINATES REFER TO THE PRIMITIVE CELL

 *******************************************************************************

 LATTICE PARAMETERS  (ANGSTROMS AND DEGREES) - PRIMITIVE CELL
       A          B          C        ALPHA      BETA     GAMMA        VOLUME
   10.69890   10.69890   10.69890   115.74117 115.74117  97.54975    913.118366

 COORDINATES OF THE EQUIVALENT ATOMS (FRACTIONAL UNITS)

 N. ATOM EQUIV AT. N.          X                  Y                  Z

   1   1   1    1 H     1.46400000000E-01  4.23000000000E-03 -7.82700000000E-02
   2   1   2    1 H     8.25000000000E-02  2.24670000000E-01  7.82700000000E-02
   3   1   3    1 H    -4.23000000000E-03 -8.25000000000E-02  1.42170000000E-01
   4   1   4    1 H    -2.24670000000E-01 -1.46400000000E-01 -1.42170000000E-01

   5   2   1    6 C    -1.87730000000E-01 -1.09870000000E-01  4.89520000000E-01
   6   2   2    6 C     4.00610000000E-01  3.22750000000E-01 -4.89520000000E-01
   7   2   3    6 C     1.09870000000E-01 -4.00610000000E-01 -7.78600000000E-02
   8   2   4    6 C    -3.22750000000E-01  1.87730000000E-01  7.78600000000E-02

   9   3   1    6 C    -2.97400000000E-01 -1.27930000000E-01  3.32010000000E-01
  10   3   2    6 C    -4.59940000000E-01  3.70590000000E-01 -3.32010000000E-01
  11   3   3    6 C     1.27930000000E-01  4.59940000000E-01 -1.69470000000E-01
  12   3   4    6 C    -3.70590000000E-01  2.97400000000E-01  1.69470000000E-01

  13   4   1    6 C    -8.42000000000E-02 -1.80790000000E-01  4.98270000000E-01
  14   4   2    6 C     3.20940000000E-01  4.17530000000E-01 -4.98270000000E-01
  15   4   3    6 C     1.80790000000E-01 -3.20940000000E-01  9.65900000000E-02
  16   4   4    6 C    -4.17530000000E-01  8.42000000000E-02 -9.65900000000E-02

  17   5   1    6 C     5.35300000000E-02 -2.99800000000E-02 -2.01010000000E-01
  18   5   2    6 C     1.71030000000E-01  2.54540000000E-01  2.01010000000E-01
  19   5   3    6 C     2.99800000000E-02 -1.71030000000E-01  8.35100000000E-02
  20   5   4    6 C    -2.54540000000E-01 -5.35300000000E-02 -8.35100000000E-02

  21   6   1    6 C    -1.59390000000E-01 -3.56000000000E-03 -3.53770000000E-01
  22   6   2    6 C     3.50210000000E-01  1.94380000000E-01  3.53770000000E-01
  23   6   3    6 C     3.56000000000E-03 -3.50210000000E-01 -1.55830000000E-01
  24   6   4    6 C    -1.94380000000E-01  1.59390000000E-01  1.55830000000E-01

  25   7   1    6 C     2.10650000000E-01  3.86340000000E-01  3.46210000000E-01
  26   7   2    6 C     4.01300000000E-02 -1.35560000000E-01 -3.46210000000E-01
  27   7   3    6 C    -3.86340000000E-01 -4.01300000000E-02 -1.75690000000E-01
  28   7   4    6 C     1.35560000000E-01 -2.10650000000E-01  1.75690000000E-01

  29   8   1    7 N    -3.02410000000E-01 -4.32000000000E-03  3.25010000000E-01
  30   8   2    7 N    -3.29330000000E-01  3.72580000000E-01 -3.25010000000E-01
  31   8   3    7 N     4.32000000000E-03  3.29330000000E-01 -2.98090000000E-01
  32   8   4    7 N    -3.72580000000E-01  3.02410000000E-01  2.98090000000E-01

  33   9   1    7 N    -4.00520000000E-01 -5.64100000000E-02  1.61150000000E-01
  34   9   2    7 N    -2.17560000000E-01  4.38330000000E-01 -1.61150000000E-01
  35   9   3    7 N     5.64100000000E-02  2.17560000000E-01 -3.44110000000E-01
  36   9   4    7 N    -4.38330000000E-01  4.00520000000E-01  3.44110000000E-01

  37  10   1    7 N    -3.93160000000E-01 -2.56110000000E-01  1.73530000000E-01
  38  10   2    7 N    -4.29640000000E-01  4.33310000000E-01 -1.73530000000E-01
  39  10   3    7 N     2.56110000000E-01  4.29640000000E-01 -1.37050000000E-01
  40  10   4    7 N    -4.33310000000E-01  3.93160000000E-01  1.37050000000E-01

  41  11   1    7 N    -4.55230000000E-01 -2.05550000000E-01  7.19000000000E-02
  42  11   2    7 N    -2.77450000000E-01  4.72870000000E-01 -7.19000000000E-02
  43  11   3    7 N     2.05550000000E-01  2.77450000000E-01 -2.49680000000E-01
  44  11   4    7 N    -4.72870000000E-01  4.55230000000E-01  2.49680000000E-01

  45  12   1    7 N    -4.78900000000E-02  3.21300000000E-02 -2.07020000000E-01
  46  12   2    7 N     2.39150000000E-01  1.59130000000E-01  2.07020000000E-01
  47  12   3    7 N    -3.21300000000E-02 -2.39150000000E-01 -8.00200000000E-02
  48  12   4    7 N    -1.59130000000E-01  4.78900000000E-02  8.00200000000E-02

  49  13   1   30 ZN   -2.50000000000E-01  2.50000000000E-01 -5.00000000000E-01

  50  14   1   30 ZN   -5.00000000000E-01 -5.00000000000E-01  0.00000000000E+00

  51  15   1   35 BR   -1.19900000000E-01 -3.33850000000E-01  2.96390000000E-01
  52  15   2   35 BR    3.69760000000E-01 -4.16290000000E-01 -2.96390000000E-01
  53  15   3   35 BR    3.33850000000E-01 -3.69760000000E-01  2.13950000000E-01
  54  15   4   35 BR    4.16290000000E-01  1.19900000000E-01 -2.13950000000E-01

  55  16   1   35 BR   -2.73980000000E-01  1.13810000000E-01 -3.30350000000E-01
  56  16   2   35 BR    4.44160000000E-01  5.63700000000E-02  3.30350000000E-01
  57  16   3   35 BR   -1.13810000000E-01 -4.44160000000E-01 -3.87790000000E-01
  58  16   4   35 BR   -5.63700000000E-02  2.73980000000E-01  3.87790000000E-01

  59  17   1   35 BR    1.89860000000E-01 -2.13390000000E-01 -3.16830000000E-01
  60  17   2   35 BR    1.03440000000E-01 -4.93310000000E-01  3.16830000000E-01
  61  17   3   35 BR    2.13390000000E-01 -1.03440000000E-01  4.03250000000E-01
  62  17   4   35 BR    4.93310000000E-01 -1.89860000000E-01 -4.03250000000E-01

 NUMBER OF SYMMETRY OPERATORS         :    4
 *******************************************************************************
 * GEOMETRY EDITING - INPUT COORDINATES ARE GIVEN IN ANGSTROM         
 *******************************************************************************

 GEOMETRY NOW FULLY CONSISTENT WITH THE GROUP

 GCALCO - MAX INDICES DIRECT LATTICE VECTOR    14    14    16
 NO.OF VECTORS CREATED 6999 STARS  484 RMAX   218.13098 BOHR

 GEOMETRY FOR WAVE FUNCTION - DIMENSIONALITY OF THE SYSTEM    3
 (NON PERIODIC DIRECTION: LATTICE PARAMETER FORMALLY SET TO 500)
 *******************************************************************************
 LATTICE PARAMETERS (ANGSTROMS AND DEGREES) - BOHR = 0.5291772083 ANGSTROM
 PRIMITIVE CELL - CENTRING CODE 6/0 VOLUME=   913.118366 - DENSITY  2.995 g/cm^3
         A              B              C           ALPHA      BETA       GAMMA 
    10.69890281    10.69890281    10.69890281   115.741173 115.741173  97.549750
 *******************************************************************************
 ATOMS IN THE ASYMMETRIC UNIT   17 - ATOMS IN THE UNIT CELL:   62
     ATOM                 X/A                 Y/B                 Z/C    
 *******************************************************************************
      1 T   1 H     1.464000000000E-01  4.230000000000E-03 -7.827000000000E-02
      2 F   1 H     8.250000000000E-02  2.246700000000E-01  7.827000000000E-02
      3 F   1 H    -4.230000000000E-03 -8.250000000000E-02  1.421700000000E-01
      4 F   1 H    -2.246700000000E-01 -1.464000000000E-01 -1.421700000000E-01
      5 T   6 C    -1.877300000000E-01 -1.098700000000E-01  4.895200000000E-01
      6 F   6 C     4.006100000000E-01  3.227500000000E-01 -4.895200000000E-01
      7 F   6 C     1.098700000000E-01 -4.006100000000E-01 -7.786000000000E-02
      8 F   6 C    -3.227500000000E-01  1.877300000000E-01  7.786000000000E-02
      9 T   6 C    -2.974000000000E-01 -1.279300000000E-01  3.320100000000E-01
     10 F   6 C    -4.599400000000E-01  3.705900000000E-01 -3.320100000000E-01
     11 F   6 C     1.279300000000E-01  4.599400000000E-01 -1.694700000000E-01
     12 F   6 C    -3.705900000000E-01  2.974000000000E-01  1.694700000000E-01
     13 T   6 C    -8.420000000000E-02 -1.807900000000E-01  4.982700000000E-01
     14 F   6 C     3.209400000000E-01  4.175300000000E-01 -4.982700000000E-01
     15 F   6 C     1.807900000000E-01 -3.209400000000E-01  9.659000000000E-02
     16 F   6 C    -4.175300000000E-01  8.420000000000E-02 -9.659000000000E-02
     17 T   6 C     5.353000000000E-02 -2.998000000000E-02 -2.010100000000E-01
     18 F   6 C     1.710300000000E-01  2.545400000000E-01  2.010100000000E-01
     19 F   6 C     2.998000000000E-02 -1.710300000000E-01  8.351000000000E-02
     20 F   6 C    -2.545400000000E-01 -5.353000000000E-02 -8.351000000000E-02
     21 T   6 C    -1.593900000000E-01 -3.560000000000E-03 -3.537700000000E-01
     22 F   6 C     3.502100000000E-01  1.943800000000E-01  3.537700000000E-01
     23 F   6 C     3.560000000000E-03 -3.502100000000E-01 -1.558300000000E-01
     24 F   6 C    -1.943800000000E-01  1.593900000000E-01  1.558300000000E-01
     25 T   6 C     2.106500000000E-01  3.863400000000E-01  3.462100000000E-01
     26 F   6 C     4.013000000000E-02 -1.355600000000E-01 -3.462100000000E-01
     27 F   6 C    -3.863400000000E-01 -4.013000000000E-02 -1.756900000000E-01
     28 F   6 C     1.355600000000E-01 -2.106500000000E-01  1.756900000000E-01
     29 T   7 N    -3.024100000000E-01 -4.320000000000E-03  3.250100000000E-01
     30 F   7 N    -3.293300000000E-01  3.725800000000E-01 -3.250100000000E-01
     31 F   7 N     4.320000000000E-03  3.293300000000E-01 -2.980900000000E-01
     32 F   7 N    -3.725800000000E-01  3.024100000000E-01  2.980900000000E-01
     33 T   7 N    -4.005200000000E-01 -5.641000000000E-02  1.611500000000E-01
     34 F   7 N    -2.175600000000E-01  4.383300000000E-01 -1.611500000000E-01
     35 F   7 N     5.641000000000E-02  2.175600000000E-01 -3.441100000000E-01
     36 F   7 N    -4.383300000000E-01  4.005200000000E-01  3.441100000000E-01
     37 T   7 N    -3.931600000000E-01 -2.561100000000E-01  1.735300000000E-01
     38 F   7 N    -4.296400000000E-01  4.333100000000E-01 -1.735300000000E-01
     39 F   7 N     2.561100000000E-01  4.296400000000E-01 -1.370500000000E-01
     40 F   7 N    -4.333100000000E-01  3.931600000000E-01  1.370500000000E-01
     41 T   7 N    -4.552300000000E-01 -2.055500000000E-01  7.190000000000E-02
     42 F   7 N    -2.774500000000E-01  4.728700000000E-01 -7.190000000000E-02
     43 F   7 N     2.055500000000E-01  2.774500000000E-01 -2.496800000000E-01
     44 F   7 N    -4.728700000000E-01  4.552300000000E-01  2.496800000000E-01
     45 T   7 N    -4.789000000000E-02  3.213000000000E-02 -2.070200000000E-01
     46 F   7 N     2.391500000000E-01  1.591300000000E-01  2.070200000000E-01
     47 F   7 N    -3.213000000000E-02 -2.391500000000E-01 -8.002000000000E-02
     48 F   7 N    -1.591300000000E-01  4.789000000000E-02  8.002000000000E-02
     49 T  30 ZN   -2.500000000000E-01  2.500000000000E-01 -5.000000000000E-01
     50 T  30 ZN   -5.000000000000E-01 -5.000000000000E-01  0.000000000000E+00
     51 T  35 BR   -1.199000000000E-01 -3.338500000000E-01  2.963900000000E-01
     52 F  35 BR    3.697600000000E-01 -4.162900000000E-01 -2.963900000000E-01
     53 F  35 BR    3.338500000000E-01 -3.697600000000E-01  2.139500000000E-01
     54 F  35 BR    4.162900000000E-01  1.199000000000E-01 -2.139500000000E-01
     55 T  35 BR   -2.739800000000E-01  1.138100000000E-01 -3.303500000000E-01
     56 F  35 BR    4.441600000000E-01  5.637000000000E-02  3.303500000000E-01
     57 F  35 BR   -1.138100000000E-01 -4.441600000000E-01 -3.877900000000E-01
     58 F  35 BR   -5.637000000000E-02  2.739800000000E-01  3.877900000000E-01
     59 T  35 BR    1.898600000000E-01 -2.133900000000E-01 -3.168300000000E-01
     60 F  35 BR    1.034400000000E-01 -4.933100000000E-01  3.168300000000E-01
     61 F  35 BR    2.133900000000E-01 -1.034400000000E-01  4.032500000000E-01
     62 F  35 BR    4.933100000000E-01 -1.898600000000E-01 -4.032500000000E-01

 TRANSFORMATION MATRIX PRIMITIVE-CRYSTALLOGRAPHIC CELL
  0.0000  1.0000  1.0000  1.0000  0.0000  1.0000  1.0000  1.0000  0.0000

 *******************************************************************************
 CRYSTALLOGRAPHIC CELL (VOLUME=       1826.23673217)
         A              B              C           ALPHA      BETA       GAMMA 
    11.38006749    11.38006749    14.10156775    90.000000  90.000000  90.000000

 COORDINATES IN THE CRYSTALLOGRAPHIC CELL
     ATOM                 X/A                 Y/B                 Z/C    
 *******************************************************************************
      1 T   1 H    -1.102200000000E-01  3.195000000000E-02  1.144500000000E-01
      2 F   1 H     1.102200000000E-01 -3.195000000000E-02  1.144500000000E-01
      3 F   1 H     3.195000000000E-02  1.102200000000E-01 -1.144500000000E-01
      4 F   1 H    -3.195000000000E-02 -1.102200000000E-01 -1.144500000000E-01
      5 T   6 C    -2.163100000000E-01 -2.941700000000E-01  1.064400000000E-01
      6 F   6 C     2.163100000000E-01  2.941700000000E-01  1.064400000000E-01
      7 F   6 C    -2.941700000000E-01  2.163100000000E-01 -1.064400000000E-01
      8 F   6 C     2.941700000000E-01 -2.163100000000E-01 -1.064400000000E-01
      9 T   6 C    -2.492600000000E-01 -4.187300000000E-01  1.213300000000E-01
     10 F   6 C     2.492600000000E-01  4.187300000000E-01  1.213300000000E-01
     11 F   6 C    -4.187300000000E-01  2.492600000000E-01 -1.213300000000E-01
     12 F   6 C     4.187300000000E-01 -2.492600000000E-01 -1.213300000000E-01
     13 T   6 C    -2.991600000000E-01 -2.025700000000E-01  1.183700000000E-01
     14 F   6 C     2.991600000000E-01  2.025700000000E-01  1.183700000000E-01
     15 F   6 C    -2.025700000000E-01  2.991600000000E-01 -1.183700000000E-01
     16 F   6 C     2.025700000000E-01 -2.991600000000E-01 -1.183700000000E-01
     17 T   6 C    -1.422600000000E-01 -5.875000000000E-02  1.122800000000E-01
     18 F   6 C     1.422600000000E-01  5.875000000000E-02  1.122800000000E-01
     19 F   6 C    -5.875000000000E-02  1.422600000000E-01 -1.122800000000E-01
     20 F   6 C     5.875000000000E-02 -1.422600000000E-01 -1.122800000000E-01
     21 T   6 C    -9.897000000000E-02 -2.548000000000E-01  9.541000000000E-02
     22 F   6 C     9.897000000000E-02  2.548000000000E-01  9.541000000000E-02
     23 F   6 C    -2.548000000000E-01  9.897000000000E-02 -9.541000000000E-02
     24 F   6 C     2.548000000000E-01 -9.897000000000E-02 -9.541000000000E-02
     25 T   6 C     2.609500000000E-01  8.526000000000E-02  1.253900000000E-01
     26 F   6 C    -2.609500000000E-01 -8.526000000000E-02  1.253900000000E-01
     27 F   6 C     8.526000000000E-02 -2.609500000000E-01 -1.253900000000E-01
     28 F   6 C    -8.526000000000E-02  2.609500000000E-01 -1.253900000000E-01
     29 T   7 N     3.115500000000E-01  1.346000000000E-02 -3.158700000000E-01
     30 F   7 N    -3.115500000000E-01 -1.346000000000E-02 -3.158700000000E-01
     31 F   7 N     1.346000000000E-02 -3.115500000000E-01  3.158700000000E-01
     32 F   7 N    -1.346000000000E-02  3.115500000000E-01  3.158700000000E-01
     33 T   7 N     2.526300000000E-01 -9.148000000000E-02 -3.090400000000E-01
     34 F   7 N    -2.526300000000E-01  9.148000000000E-02 -3.090400000000E-01
     35 F   7 N    -9.148000000000E-02 -2.526300000000E-01  3.090400000000E-01
     36 F   7 N     9.148000000000E-02  2.526300000000E-01  3.090400000000E-01
     37 T   7 N     1.552900000000E-01  1.824000000000E-02 -4.114000000000E-01
     38 F   7 N    -1.552900000000E-01 -1.824000000000E-02 -4.114000000000E-01
     39 F   7 N     1.824000000000E-02 -1.552900000000E-01  4.114000000000E-01
     40 F   7 N    -1.824000000000E-02  1.552900000000E-01  4.114000000000E-01
     41 T   7 N     1.607900000000E-01 -8.889000000000E-02 -3.663400000000E-01
     42 F   7 N    -1.607900000000E-01  8.889000000000E-02 -3.663400000000E-01
     43 F   7 N    -8.889000000000E-02 -1.607900000000E-01  3.663400000000E-01
     44 F   7 N     8.889000000000E-02  1.607900000000E-01  3.663400000000E-01
     45 T   7 N    -6.350000000000E-02 -1.435200000000E-01  9.563000000000E-02
     46 F   7 N     6.350000000000E-02  1.435200000000E-01  9.563000000000E-02
     47 F   7 N    -1.435200000000E-01  6.350000000000E-02 -9.563000000000E-02
     48 F   7 N     1.435200000000E-01 -6.350000000000E-02 -9.563000000000E-02
     49 T  30 ZN   -1.239018424863E-16 -5.000000000000E-01  2.500000000000E-01
     50 T  30 ZN    0.000000000000E+00  0.000000000000E+00 -5.000000000000E-01
     51 T  35 BR    4.122000000000E-02  2.551700000000E-01 -3.750700000000E-01
     52 F  35 BR   -4.122000000000E-02 -2.551700000000E-01 -3.750700000000E-01
     53 F  35 BR    2.551700000000E-01 -4.122000000000E-02  3.750700000000E-01
     54 F  35 BR   -2.551700000000E-01  4.122000000000E-02  3.750700000000E-01
     55 T  35 BR    2.872000000000E-02 -3.590700000000E-01  8.509000000000E-02
     56 F  35 BR   -2.872000000000E-02  3.590700000000E-01  8.509000000000E-02
     57 F  35 BR   -3.590700000000E-01 -2.872000000000E-02 -8.509000000000E-02
     58 F  35 BR    3.590700000000E-01  2.872000000000E-02 -8.509000000000E-02
     59 T  35 BR   -3.600400000000E-01  4.321000000000E-02  1.466500000000E-01
     60 F  35 BR    3.600400000000E-01 -4.321000000000E-02  1.466500000000E-01
     61 F  35 BR    4.321000000000E-02  3.600400000000E-01 -1.466500000000E-01
     62 F  35 BR   -4.321000000000E-02 -3.600400000000E-01 -1.466500000000E-01

 T = ATOM BELONGING TO THE ASYMMETRIC UNIT

 ****    4 SYMMOPS - TRANSLATORS IN FRACTIONAL UNITS
 **** MATRICES AND TRANSLATORS IN THE CRYSTALLOGRAPHIC REFERENCE FRAME
   V INV                    ROTATION MATRICES                   TRANSLATORS
   1   1  1.00  0.00  0.00  0.00  1.00  0.00  0.00  0.00  1.00  0.00  0.00  0.00
   2   2  0.00  1.00 -1.00  1.00  0.00 -1.00  0.00  0.00 -1.00  0.00  0.00  0.00
   3   4 -0.00 -1.00  0.00 -0.00 -1.00  1.00  1.00 -1.00  0.00  0.00  0.00  0.00
   4   3 -1.00 -0.00  1.00 -1.00 -0.00  0.00 -1.00  1.00  0.00  0.00  0.00  0.00

 DIRECT LATTICE VECTORS CARTESIAN COMPONENTS (ANGSTROM)
          X                    Y                    Z
  -0.569003374580E+01   0.569003374580E+01   0.705078387515E+01
   0.569003374580E+01  -0.569003374580E+01   0.705078387515E+01
   0.569003374580E+01   0.569003374580E+01  -0.705078387515E+01


 CARTESIAN COORDINATES - PRIMITIVE CELL
 *******************************************************************************
 *      ATOM          X(ANGSTROM)         Y(ANGSTROM)         Z(ANGSTROM)
 *******************************************************************************
    1     1 H    -1.254311038924E+00  3.635931563566E-01  1.613924429022E+00
    2     1 H     1.254311038924E+00 -3.635931563566E-01  1.613924429022E+00
    3     1 H     3.635931563566E-01  1.254311038924E+00 -1.613924429022E+00
    4     1 H    -3.635931563566E-01 -1.254311038924E+00 -1.613924429022E+00
    5     6 C    -2.461622399108E+00 -3.347674454004E+00  1.500970871342E+00
    6     6 C     2.461622399108E+00  3.347674454004E+00  1.500970871342E+00
    7     6 C    -3.347674454004E+00  2.461622399108E+00 -1.500970871342E+00
    8     6 C     3.347674454004E+00 -2.461622399108E+00 -1.500970871342E+00
    9     6 C    -2.836595622956E+00 -4.765175660758E+00  1.710943215144E+00
   10     6 C     2.836595622956E+00  4.765175660758E+00  1.710943215144E+00
   11     6 C    -4.765175660758E+00  2.836595622956E+00 -1.710943215144E+00
   12     6 C     4.765175660758E+00 -2.836595622956E+00 -1.710943215144E+00
   13     6 C    -3.404460990787E+00 -2.305260271773E+00  1.669202574603E+00
   14     6 C     3.404460990787E+00  2.305260271773E+00  1.669202574603E+00
   15     6 C    -2.305260271773E+00  3.404460990787E+00 -1.669202574603E+00
   16     6 C     2.305260271773E+00 -3.404460990787E+00 -1.669202574603E+00
   17     6 C    -1.618928401355E+00 -6.685789651315E-01  1.583324027004E+00
   18     6 C     1.618928401355E+00  6.685789651315E-01  1.583324027004E+00
   19     6 C    -6.685789651315E-01  1.618928401355E+00 -1.583324027004E+00
   20     6 C     6.685789651315E-01 -1.618928401355E+00 -1.583324027004E+00
   21     6 C    -1.126285279644E+00 -2.899641196860E+00  1.345430579056E+00
   22     6 C     1.126285279644E+00  2.899641196860E+00  1.345430579056E+00
   23     6 C    -2.899641196860E+00  1.126285279644E+00 -1.345430579056E+00
   24     6 C     2.899641196860E+00 -1.126285279644E+00 -1.345430579056E+00
   25     6 C     2.969628611933E+00  9.702645543338E-01  1.768195580210E+00
   26     6 C    -2.969628611933E+00 -9.702645543338E-01  1.768195580210E+00
   27     6 C     9.702645543338E-01 -2.969628611933E+00 -1.768195580210E+00
   28     6 C    -9.702645543338E-01  2.969628611933E+00 -1.768195580210E+00
   29     7 N     3.545460027008E+00  1.531757084369E-01 -4.454262205287E+00
   30     7 N    -3.545460027008E+00 -1.531757084369E-01 -4.454262205287E+00
   31     7 N     1.531757084369E-01 -3.545460027008E+00  4.454262205287E+00
   32     7 N    -1.531757084369E-01  3.545460027008E+00  4.454262205287E+00
   33     7 N     2.874946450403E+00 -1.041048574132E+00 -4.357948497553E+00
   34     7 N    -2.874946450403E+00  1.041048574132E+00 -4.357948497553E+00
   35     7 N    -1.041048574132E+00 -2.874946450403E+00  4.357948497553E+00
   36     7 N     1.041048574132E+00  2.874946450403E+00  4.357948497553E+00
   37     7 N     1.767210680771E+00  2.075724310468E-01 -5.801384972473E+00
   38     7 N    -1.767210680771E+00 -2.075724310468E-01 -5.801384972473E+00
   39     7 N     2.075724310468E-01 -1.767210680771E+00  5.801384972473E+00
   40     7 N    -2.075724310468E-01  1.767210680771E+00  5.801384972473E+00
   41     7 N     1.829801051974E+00 -1.011574199328E+00 -5.165968329645E+00
   42     7 N    -1.829801051974E+00  1.011574199328E+00 -5.165968329645E+00
   43     7 N    -1.011574199328E+00 -1.829801051974E+00  5.165968329645E+00
   44     7 N     1.011574199328E+00  1.829801051974E+00  5.165968329645E+00
   45     7 N    -7.226342857166E-01 -1.633267286394E+00  1.348532923961E+00
   46     7 N     7.226342857166E-01  1.633267286394E+00  1.348532923961E+00
   47     7 N    -1.633267286394E+00  7.226342857166E-01 -1.348532923961E+00
   48     7 N     1.633267286394E+00 -7.226342857166E-01 -1.348532923961E+00
   49    30 ZN   -1.410011329828E-15  5.690033745800E+00 -1.057617581272E+01
   50    30 ZN    0.000000000000E+00  0.000000000000E+00  7.050783875150E+00
   51    35 BR    4.690863820038E-01  2.903851821832E+00 -5.289075016105E+00
   52    35 BR   -4.690863820038E-01 -2.903851821832E+00 -5.289075016105E+00
   53    35 BR    2.903851821832E+00 -4.690863820038E-01  5.289075016105E+00
   54    35 BR   -2.903851821832E+00  4.690863820038E-01  5.289075016105E+00
   55    35 BR    3.268355383588E-01 -4.086240834209E+00  1.199902399873E+00
   56    35 BR   -3.268355383588E-01  4.086240834209E+00  1.199902399873E+00
   57    35 BR   -4.086240834209E+00 -3.268355383588E-01 -1.199902399873E+00
   58    35 BR    4.086240834209E+00  3.268355383588E-01 -1.199902399873E+00
   59    35 BR   -4.097279499676E+00  4.917327163120E-01  2.067994910581E+00
   60    35 BR    4.097279499676E+00 -4.917327163120E-01  2.067994910581E+00
   61    35 BR    4.917327163120E-01  4.097279499676E+00 -2.067994910581E+00
   62    35 BR   -4.917327163120E-01 -4.097279499676E+00 -2.067994910581E+00

 *******************************************************************************
 STARTING BASIS SET HANDLING 
 *******************************************************************************

 Loading internal basis set: POB-DZVPP           

 Please cite in your publication:
 Peintinger, M. F., Oliveira, D. V. and Bredow, T. (2013), Generally applicable 
 solid-state Gaussian basis sets, in preparation                                
                                                                                
                    

 *******************************************************************************
 LOCAL ATOMIC FUNCTIONS BASIS SET
 *******************************************************************************
   ATOM   X(AU)   Y(AU)   Z(AU)  N. TYPE  EXPONENT  S COEF   P COEF   D/F/G COEF
 *******************************************************************************
   1 H   -2.370   0.687   3.050
                                  1 S  
                                         2.263E+01 1.441E-02 0.000E+00 0.000E+00
                                         3.236E+00 1.072E-01 0.000E+00 0.000E+00
                                         7.304E-01 3.846E-01 0.000E+00 0.000E+00
                                  2 S  
                                         1.417E-01 1.000E+00 0.000E+00 0.000E+00
                           3-     5 P  
                                         3.944E-01 0.000E+00 1.000E+00 0.000E+00
                           6-     8 P  
                                         1.006E-01 0.000E+00 1.000E+00 0.000E+00
   2 H    2.370  -0.687   3.050
   3 H    0.687   2.370  -3.050
   4 H   -0.687  -2.370  -3.050
   5 C   -4.652  -6.326   2.836
                                 33 S  
                                         1.238E+03 5.457E-03 0.000E+00 0.000E+00
                                         1.863E+02 4.064E-02 0.000E+00 0.000E+00
                                         4.225E+01 1.803E-01 0.000E+00 0.000E+00
                                         1.168E+01 4.632E-01 0.000E+00 0.000E+00
                                         3.593E+00 4.409E-01 0.000E+00 0.000E+00
                                 34 S  
                                         5.281E+00 1.000E+00 0.000E+00 0.000E+00
                                 35 S  
                                         4.447E-01 1.000E+00 0.000E+00 0.000E+00
                          36-    38 P  
                                         9.468E+00 0.000E+00 3.839E-02 0.000E+00
                                         2.010E+00 0.000E+00 2.112E-01 0.000E+00
                                         5.477E-01 0.000E+00 5.133E-01 0.000E+00
                          39-    41 P  
                                         1.604E-01 0.000E+00 1.000E+00 0.000E+00
                          42-    46 D  
                                         6.070E-01 0.000E+00 0.000E+00 1.000E+00
                          47-    51 D  
                                         2.939E-01 0.000E+00 0.000E+00 1.000E+00
   6 C    4.652   6.326   2.836
   7 C   -6.326   4.652  -2.836
   8 C    6.326  -4.652  -2.836
   9 C   -5.360  -9.005   3.233
  10 C    5.360   9.005   3.233
  11 C   -9.005   5.360  -3.233
  12 C    9.005  -5.360  -3.233
  13 C   -6.433  -4.356   3.154
  14 C    6.433   4.356   3.154
  15 C   -4.356   6.433  -3.154
  16 C    4.356  -6.433  -3.154
  17 C   -3.059  -1.263   2.992
  18 C    3.059   1.263   2.992
  19 C   -1.263   3.059  -2.992
  20 C    1.263  -3.059  -2.992
  21 C   -2.128  -5.480   2.542
  22 C    2.128   5.480   2.542
  23 C   -5.480   2.128  -2.542
  24 C    5.480  -2.128  -2.542
  25 C    5.612   1.834   3.341
  26 C   -5.612  -1.834   3.341
  27 C    1.834  -5.612  -3.341
  28 C   -1.834   5.612  -3.341
  29 N    6.700   0.289  -8.417
                                489 S  
                                         1.713E+03-5.393E-03 0.000E+00 0.000E+00
                                         2.576E+02-4.022E-02 0.000E+00 0.000E+00
                                         5.846E+01-1.793E-01 0.000E+00 0.000E+00
                                         1.620E+01-4.638E-01 0.000E+00 0.000E+00
                                         5.005E+00-4.417E-01 0.000E+00 0.000E+00
                                490 S  
                                         6.217E-01 1.000E+00 0.000E+00 0.000E+00
                                491 S  
                                         2.921E-01 1.000E+00 0.000E+00 0.000E+00
                         492-   494 P  
                                         1.357E+01 0.000E+00-4.007E-02 0.000E+00
                                         2.926E+00 0.000E+00-2.181E-01 0.000E+00
                                         7.993E-01 0.000E+00-5.129E-01 0.000E+00
                         495-   497 P  
                                         2.244E-01 0.000E+00 1.000E+00 0.000E+00
                         498-   502 D  
                                         3.118E-01 0.000E+00 0.000E+00 1.000E+00
  30 N   -6.700  -0.289  -8.417
  31 N    0.289  -6.700   8.417
  32 N   -0.289   6.700   8.417
  33 N    5.433  -1.967  -8.235
  34 N   -5.433   1.967  -8.235
  35 N   -1.967  -5.433   8.235
  36 N    1.967   5.433   8.235
  37 N    3.340   0.392 -10.963
  38 N   -3.340  -0.392 -10.963
  39 N    0.392  -3.340  10.963
  40 N   -0.392   3.340  10.963
  41 N    3.458  -1.912  -9.762
  42 N   -3.458   1.912  -9.762
  43 N   -1.912  -3.458   9.762
  44 N    1.912   3.458   9.762
  45 N   -1.366  -3.086   2.548
  46 N    1.366   3.086   2.548
  47 N   -3.086   1.366  -2.548
  48 N    3.086  -1.366  -2.548
  49 ZN  -0.000  10.753 -19.986
                                769 S  
                                         8.200E+04 1.421E-03 0.000E+00 0.000E+00
                                         1.231E+04 1.089E-02 0.000E+00 0.000E+00
                                         2.801E+03 5.406E-02 0.000E+00 0.000E+00
                                         7.910E+02 1.885E-01 0.000E+00 0.000E+00
                                         2.576E+02 3.835E-01 0.000E+00 0.000E+00
                                         8.881E+01 2.972E-01 0.000E+00 0.000E+00
                                770 S  
                                         1.719E+02-1.105E-01 0.000E+00 0.000E+00
                                         2.030E+01 6.461E-01 0.000E+00 0.000E+00
                                         8.346E+00 4.422E-01 0.000E+00 0.000E+00
                                771 S  
                                         1.485E+01-2.271E-01 0.000E+00 0.000E+00
                                         2.450E+00 7.243E-01 0.000E+00 0.000E+00
                                         9.985E-01 4.484E-01 0.000E+00 0.000E+00
                                772 S  
                                         1.493E+00 1.000E+00 0.000E+00 0.000E+00
                                773 S  
                                         1.830E-01 1.000E+00 0.000E+00 0.000E+00
                         774-   776 P  
                                         1.072E+03 0.000E+00 9.277E-03 0.000E+00
                                         2.527E+02 0.000E+00 6.954E-02 0.000E+00
                                         8.010E+01 0.000E+00 2.716E-01 0.000E+00
                                         2.890E+01 0.000E+00 5.340E-01 0.000E+00
                                         1.077E+01 0.000E+00 3.450E-01 0.000E+00
                         777-   779 P  
                                         5.645E+00 0.000E+00 3.413E-01 0.000E+00
                                         2.168E+00 0.000E+00 5.639E-01 0.000E+00
                                         8.054E-01 0.000E+00 2.368E-01 0.000E+00
                         780-   782 P  
                                         2.721E-01 0.000E+00 1.000E+00 0.000E+00
                         783-   787 D  
                                         5.609E+01 0.000E+00 0.000E+00 2.959E-02
                                         1.575E+01 0.000E+00 0.000E+00 1.587E-01
                                         5.312E+00 0.000E+00 0.000E+00 3.798E-01
                                         1.774E+00 0.000E+00 0.000E+00 4.690E-01
                         788-   792 D  
                                         5.073E-01 0.000E+00 0.000E+00 1.000E+00
                         793-   799 F  
                                         2.814E+00 0.000E+00 0.000E+00 1.000E+00
                         800-   806 F  
                                         1.300E+00 0.000E+00 0.000E+00 1.000E+00
  50 ZN   0.000   0.000  13.324
  51 BR   0.886   5.487  -9.995
                                845 S  
                                         1.133E+05 1.428E-03 0.000E+00 0.000E+00
                                         1.701E+04 1.095E-02 0.000E+00 0.000E+00
                                         3.870E+03 5.442E-02 0.000E+00 0.000E+00
                                         1.093E+03 1.905E-01 0.000E+00 0.000E+00
                                         3.564E+02 3.902E-01 0.000E+00 0.000E+00
                                         1.231E+02 3.081E-01 0.000E+00 0.000E+00
                                846 S  
                                         2.367E+02-1.123E-01 0.000E+00 0.000E+00
                                         2.847E+01 6.478E-01 0.000E+00 0.000E+00
                                         1.188E+01 4.424E-01 0.000E+00 0.000E+00
                                847 S  
                                         2.127E+01-2.264E-01 0.000E+00 0.000E+00
                                         3.613E+00 7.382E-01 0.000E+00 0.000E+00
                                         1.663E+00 4.268E-01 0.000E+00 0.000E+00
                                848 S  
                                         3.641E-01 1.000E+00 0.000E+00 0.000E+00
                                849 S  
                                         1.243E-01 1.000E+00 0.000E+00 0.000E+00
                         850-   852 P  
                                         1.560E+03 0.000E+00 8.717E-03 0.000E+00
                                         3.685E+02 0.000E+00 6.624E-02 0.000E+00
                                         1.172E+02 0.000E+00 2.650E-01 0.000E+00
                                         4.265E+01 0.000E+00 5.384E-01 0.000E+00
                                         1.609E+01 0.000E+00 3.658E-01 0.000E+00
                         853-   855 P  
                                         8.635E+00 0.000E+00 3.425E-01 0.000E+00
                                         3.561E+00 0.000E+00 5.750E-01 0.000E+00
                                         1.529E+00 0.000E+00 2.433E-01 0.000E+00
                         856-   858 P  
                                         6.447E-01 0.000E+00 1.000E+00 0.000E+00
                         859-   861 P  
                                         2.103E-01 0.000E+00 1.000E+00 0.000E+00
                         862-   866 D  
                                         1.049E+02 0.000E+00 0.000E+00 2.265E-02
                                         3.028E+01 0.000E+00 0.000E+00 1.346E-01
                                         1.065E+01 0.000E+00 0.000E+00 3.647E-01
                                         3.870E+00 0.000E+00 0.000E+00 4.904E-01
                         867-   871 D  
                                         1.342E+00 0.000E+00 0.000E+00 1.000E+00
                         872-   876 D  
                                         4.101E-01 0.000E+00 0.000E+00 1.000E+00
                         877-   881 D  
                                         1.985E-01 0.000E+00 0.000E+00 1.000E+00
  52 BR  -0.886  -5.487  -9.995
  53 BR   5.487  -0.886   9.995
  54 BR  -5.487   0.886   9.995
  55 BR   0.618  -7.722   2.267
  56 BR  -0.618   7.722   2.267
  57 BR  -7.722  -0.618  -2.267
  58 BR   7.722   0.618  -2.267
  59 BR  -7.743   0.929   3.908
  60 BR   7.743  -0.929   3.908
  61 BR   0.929   7.743  -3.908
  62 BR  -0.929  -7.743  -3.908

 *******************************************************************************
 FINISHED BASIS SET HANDLING 
 *******************************************************************************

 INFORMATION **** SET_MPP **** PCRYSTAL CALCULATION
 INFORMATION **** READM2 **** NEW DEFAULT: FOCK/KS MATRIX MIXING SET TO 30 %
 INFORMATION **** READM2 **** NEW DEFAULT: FULL DIRECT SCF MODE
 INFORMATION **** READM2 **** NEW DEFAULT: COULOMB BIPOLAR BUFFER SET TO 32 Mb
 INFORMATION **** READM2 **** NEW DEFAULT: EXCHANGE BIPOLAR BUFFER SET TO 32 Mb

 *******************************************************************************
 NEW DEFAULT: DFT INTEGRATION GRID INCREASED TO XLGRID
 NEW DEFAULT: DIIS ACCELERATOR ACTIVE
 USE KEYWORD NODIIS TO TURN IT OFF
 *******************************************************************************

 INFORMATION **** DFTD3_INPUT **** PERFORM DISPERSION CORRECTION DFT-D3(BJ) IN THE BECKE-JOHNSON DAMPING SCHEME

 PLEASE CITE:
 (1) DFT-D3 Reference
  S. Grimme, J. Antony, S. Ehrlich, and H. Krieg, J. Chem. Phys. 132 (2010), 154104
 (2) BJ-Damping Reference
  S. Grimme, S. Ehrlich, and L. Goerigk, J. Comput. Chem. 32 (2011), 1456-1465
 (3) General DFT-D Review
  S. Grimme, A. Hansen, J. G. Brandenburg, and C. Bannwarth,
  Chem. Rev. 116 (2016), 5105-5154

 INFORMATION **** TOLINTEG **** COULOMB AND EXCHANGE SERIES TOLERANCES MODIFIED
 INFORMATION **** BIPOSIZE **** COULOMB BIPOLAR BUFFER SET TO   100000000
 INFORMATION **** MAXCYCLE **** MAX NUMBER OF SCF CYCLES SET TO          50
 *******************************************************************************
 N. OF ATOMS PER CELL        62  COULOMB OVERLAP TOL         (T1) 10**  -12
 NUMBER OF SHELLS           484  COULOMB PENETRATION TOL     (T2) 10**  -12
 NUMBER OF AO              1288  EXCHANGE OVERLAP TOL        (T3) 10**   20
 N. OF ELECTRONS PER CELL   768  EXCHANGE PSEUDO OVP (F(G))  (T4) 10**   20
 CORE ELECTRONS PER CELL    460  EXCHANGE PSEUDO OVP (P(G))  (T5) 10**   20
 N. OF SYMMETRY OPERATORS     4  POLE ORDER IN MONO ZONE                  4
 *******************************************************************************
 TYPE OF CALCULATION :  RESTRICTED CLOSED SHELL
 KOHN-SHAM HAMILTONIAN

 (EXCHANGE)[CORRELATION] FUNCTIONAL:(PERDEW-BURKE-ERNZERHOF)[PERDEW-BURKE-ERNZERHOF]


 CAPPA:IS1  3;IS2  3;IS3  3; K PTS MONK NET   6; SYMMOPS:K SPACE   8;G SPACE   4

 *******************************************************************************
 MAX NUMBER OF SCF CYCLES      50  CONVERGENCE ON DELTAP        10**-16
 WEIGHT OF F(I) IN F(I+1)      30% CONVERGENCE ON ENERGY        10**- 6
 SHRINK. FACT.(MONKH.)    3  3  3  NUMBER OF K POINTS IN THE IBZ      6
 SHRINKING FACTOR(GILAT NET)    3  NUMBER OF K POINTS(GILAT NET)      6
 *******************************************************************************
 *** K POINTS COORDINATES (OBLIQUE COORDINATES IN UNITS OF IS =  3)
   1-R(  0  0  0)   2-C(  1  0  0)   3-C(  1  1  0)   4-C(  2  1  0)
   5-C(  2  1  1)   6-C(  2  2  1)

 DIRECT LATTICE VECTORS COMPON. (A.U.)     RECIP. LATTICE VECTORS COMPON. (A.U.) 
        X            Y            Z              X            Y            Z
  -10.7526055   10.7526055   13.3240506      0.0000000    0.2921704    0.2357836
   10.7526055  -10.7526055   13.3240506      0.2921704    0.0000000    0.2357836
   10.7526055   10.7526055  -13.3240506      0.2921704    0.2921704    0.0000000

 DISK SPACE FOR EIGENVECTORS (FTN 10)    18248384 REALS

 SYMMETRY ADAPTION OF THE BLOCH FUNCTIONS ENABLED
 TTTTTTTTTTTTTTTTTTTTTTTTTTTTTT gordsh1     TELAPSE       93.31 TCPU        0.09

 MATRIX SIZE: P(G) 1987736, F(G)  994632, P(G) IRR  251098, F(G) IRR  251098
 MAX G-VECTOR INDEX FOR 1- AND 2-ELECTRON INTEGRALS  59

 TTTTTTTTTTTTTTTTTTTTTTTTTTTTTT INPUT       TELAPSE       93.35 TCPU        0.11

 NEIGHBORS OF THE NON-EQUIVALENT ATOMS

 N = NUMBER OF NEIGHBORS AT DISTANCE R
    ATOM  N     R/ANG      R/AU   NEIGHBORS (ATOM LABELS AND CELL INDICES)
   1 H    1     1.0951     2.0695   17 C    0 0 0
   1 H    1     2.0834     3.9371   45 N    0 0 0
   1 H    1     2.1784     4.1165   26 C    0 0 0
   1 H    1     2.3645     4.4682   46 N    0 0 0
   1 H    1     2.6119     4.9358    2 H    0 0 0
   1 H    1     2.8819     5.4459   59 BR   0 0 0

   5 C    1     1.4156     2.6751   13 C    0 0 0
   5 C    1     1.4171     2.6779   21 C    0 0 0
   5 C    1     1.4812     2.7991    9 C    0 0 0
   5 C    1     2.4457     4.6217   26 C    0 0 0
   5 C    1     2.4467     4.6237   45 N    0 0 0
   5 C    1     2.4685     4.6647   29 N    0 0-1

   9 C    1     1.3633     2.5763   29 N    0 0-1
   9 C    1     1.3811     2.6099   37 N    0 0-1
   9 C    1     1.4812     2.7991    5 C    0 0 0
   9 C    1     2.1972     4.1522   41 N    0 0-1
   9 C    1     2.1976     4.1528   33 N    0 0-1
   9 C    1     2.5250     4.7715   13 C    0 0 0

  13 C    1     1.4075     2.6598   26 C    0 0 0
  13 C    1     1.4156     2.6751    5 C    0 0 0
  13 C    1     1.8813     3.5552   51 BR   0 0-1
  13 C    1     2.3766     4.4911   21 C    0 0 0
  13 C    1     2.4237     4.5801   17 C    0 0 0
  13 C    1     2.5250     4.7715    9 C    0 0 0

  17 C    1     1.0951     2.0695    1 H    0 0 0
  17 C    1     1.3376     2.5276   45 N    0 0 0
  17 C    1     1.3963     2.6386   26 C    0 0 0
  17 C    1     2.2972     4.3410   21 C    0 0 0
  17 C    1     2.4237     4.5801   13 C    0 0 0
  17 C    1     2.7791     5.2518   59 BR   0 0 0

  21 C    1     1.3292     2.5117   45 N    0 0 0
  21 C    1     1.4171     2.6779    5 C    0 0 0
  21 C    1     1.8817     3.5559   55 BR   0 0 0
  21 C    1     2.2972     4.3410   17 C    0 0 0
  21 C    1     2.3766     4.4911   13 C    0 0 0
  21 C    1     2.5571     4.8323    9 C    0 0 0

  25 C    1     1.3963     2.6386   18 C    0 0 0
  25 C    1     1.4075     2.6598   14 C    0 0 0
  25 C    1     1.8705     3.5348   60 BR   0 0 0
  25 C    1     2.1784     4.1165    2 H    0 0 0
  25 C    1     2.3801     4.4977   46 N    0 0 0
  25 C    1     2.4457     4.6217    6 C    0 0 0

  29 N    1     1.3633     2.5763    9 C    0 0 1
  29 N    1     1.3730     2.5945   33 N    0 0 0
  29 N    1     2.1924     4.1431   41 N    0 0 0
  29 N    1     2.2316     4.2170   37 N    0 0 0
  29 N    1     2.3421     4.4259   49 ZN   0 1 0
  29 N    1     2.4685     4.6647    5 C    0 0 1

  33 N    1     1.3214     2.4971   41 N    0 0 0
  33 N    1     1.3730     2.5945   29 N    0 0 0
  33 N    1     2.1976     4.1528    9 C    0 0 1
  33 N    1     2.2067     4.1701   37 N    0 0 0
  33 N    1     2.9558     5.5857   56 BR  -1 0 0
  33 N    1     3.0138     5.6953   24 C    0 0 0

  37 N    1     1.3762     2.6007   41 N    0 0 0
  37 N    1     1.3811     2.6099    9 C    0 0 1
  37 N    1     2.1742     4.1086   50 ZN  -1-1 0
  37 N    1     2.2067     4.1701   33 N    0 0 0
  37 N    1     2.2316     4.2170   29 N    0 0 0
  37 N    1     2.5992     4.9117    5 C    0 0 1

  41 N    1     1.3214     2.4971   33 N    0 0 0
  41 N    1     1.3762     2.6007   37 N    0 0 0
  41 N    1     2.1924     4.1431   29 N    0 0 0
  41 N    1     2.1972     4.1522    9 C    0 0 1
  41 N    1     2.8150     5.3195   50 ZN  -1-1 0
  41 N    1     2.9801     5.6315   52 BR   0 0 0

  45 N    1     1.3292     2.5117   21 C    0 0 0
  45 N    1     1.3376     2.5276   17 C    0 0 0
  45 N    1     2.0834     3.9371    1 H    0 0 0
  45 N    1     2.3645     4.4682    2 H    0 0 0
  45 N    1     2.3801     4.4977   26 C    0 0 0
  45 N    1     2.4467     4.6237    5 C    0 0 0

  49 ZN   4     2.3421     4.4259   29 N    0-1 0   30 N    0 0 1   31 N    0-1 1
                                    32 N   -1-1 0
  49 ZN   4     2.8437     5.3739   55 BR   0-1 1   56 BR  -1-1 0   57 BR   0 0 1
                                    58 BR   0-1 0
  49 ZN   4     3.1147     5.8860   33 N    0-1 0   34 N    0 0 1   35 N    0-1 1
                                    36 N   -1-1 0
  49 ZN   4     3.4920     6.5989    9 C    0-1 1   10 C   -1-1 0   11 C    0 0 1
                                    12 C    0-1 0
  49 ZN   4     3.7158     7.0218   21 C    0-1 1   22 C   -1-1 0   23 C    0 0 1
                                    24 C    0-1 0
  49 ZN   4     3.9553     7.4745    5 C    0-1 1    6 C   -1-1 0    7 C    0 0 1
                                     8 C    0-1 0

  50 ZN   4     2.1742     4.1086   37 N    1 1 0   38 N    1 1 0   39 N    0 0 0
                                    40 N    0 0 0
  50 ZN   4     2.8150     5.3195   41 N    1 1 0   42 N    1 1 0   43 N    0 0 0
                                    44 N    0 0 0
  50 ZN   4     3.4287     6.4793   51 BR   1 1 0   52 BR   1 1 0   53 BR   0 0 0
                                    54 BR   0 0 0
  50 ZN   4     3.4532     6.5257    9 C    1 1 1   10 C    0 0-1   11 C    0 1 0
                                    12 C    1 0 0
  50 ZN   4     4.0744     7.6994   33 N    1 1 0   34 N    1 1 0   35 N    0 0 0
                                    36 N    0 0 0
  50 ZN   4     4.2617     8.0535    5 C    1 1 1    6 C    0 0-1    7 C    0 1 0
                                     8 C    1 0 0

  51 BR   1     1.8813     3.5552   13 C    0 0 1
  51 BR   1     2.8279     5.3440    5 C    0 0 1
  51 BR   1     2.8924     5.4659   26 C    0 0 1
  51 BR   1     2.9801     5.6315   42 N    0 0 0
  51 BR   1     3.0360     5.7373   37 N    0 0 0
  51 BR   1     3.0991     5.8564    9 C    0 0 1

  55 BR   1     1.8817     3.5559   21 C    0 0 0
  55 BR   1     2.6722     5.0497   45 N    0 0 0
  55 BR   1     2.8437     5.3739   49 ZN   0 1-1
  55 BR   1     2.8882     5.4579   30 N    0 1 0
  55 BR   1     2.9003     5.4807    5 C    0 0 0
  55 BR   1     2.9558     5.5857   34 N    0 1 0

  59 BR   1     1.8705     3.5348   26 C    0 0 0
  59 BR   1     2.7791     5.2518   17 C    0 0 0
  59 BR   1     2.8819     5.4459    1 H    0 0 0
  59 BR   1     2.9090     5.4972   13 C    0 0 0
  59 BR   1     3.0999     5.8580   52 BR   1 0 0
  59 BR   1     3.3339     6.3001   60 BR   0-1-1


 SYMMETRY ALLOWED INTERNAL DEGREE(S) OF FREEDOM:  45
 TTTTTTTTTTTTTTTTTTTTTTTTTTTTTT SYMM        TELAPSE       93.53 TCPU        0.29
 TTTTTTTTTTTTTTTTTTTTTTTTTTTTTT INT_SCREEN  TELAPSE       93.53 TCPU        0.30
 INFORMATION **** EXCBUF **** EXCH. BIPO BUFFER: WORDS USED =           0

 DFT PARAMETERS

     ATOM       ELECTRONS   NET CHARGE   R(ANGSTROM)
   1   1  H       1.0000      0.0000     1.11000000
   5   6  C       6.0000      0.0000     0.77000000
  29   7  N       7.0000      0.0000     0.74000000
  49  30  ZN     30.0000      0.0000     1.37000000
  51  35  BR     35.0000      0.0000     1.14000000

 SIZE OF GRID=     482638
 TTTTTTTTTTTTTTTTTTTTTTTTTTTTTT MAKE_GRID2  TELAPSE       94.19 TCPU        0.95
 BECKE WEIGHT FUNCTION
 RADSAFE =     2.00
 TOLERANCES - DENSITY:10**- 6; POTENTIAL:10**- 9; GRID WGT:10**-14

 RADIAL INTEGRATION  - INTERVALS (POINTS,UPPER LIMIT):            1( 75,  4.0*R)

 ANGULAR INTEGRATION - INTERVALS (ACCURACY LEVEL [N. POINTS] UPPER LIMIT):
  1(  4[  86]   0.2)  2(  8[ 194]   0.5)  3( 12[ 350]   0.9)  4( 16[ 974]   3.5)
  5( 12[ 350]9999.0)
 TTTTTTTTTTTTTTTTTTTTTTTTTTTTTT INT_CALC    TELAPSE       94.22 TCPU        0.98
 EEEEEEEEEE INT_CALC TERMINATION  DATE 08 03 2024 TIME 14:05:59.6

 *******************************************************************************
 Z:\home\sanoj\Downloads\tmp_p\newconn.mol                                       
 CRYSTAL - SCF - TYPE OF CALCULATION :  RESTRICTED CLOSED SHELL
 *******************************************************************************

 CAPPA:IS1  3;IS2  3;IS3  3; K PTS MONK NET   6; SYMMOPS:K SPACE   8;G SPACE   4

 TTTTTTTTTTTTTTTTTTTTTTTTTTTTTT SDIK        TELAPSE       94.40 TCPU        1.16

 AAAAAAAAAAAAAAAAAAAAAAAAAAAAAAAAAAAAAAAAAAAAAAAAAAAAAAAAAAAAAAAAAAAAAAAAAAAAAAA
         ATOMIC WAVEFUNCTION(S)


 NUCLEAR CHARGE  1.0  SYMMETRY SPECIES            S
 N. ELECTRONS    1.0  NUMBER OF PRIMITIVE GTOS    4
                      NUMBER OF CONTRACTED GTOS   2
                      NUMBER OF CLOSED SHELLS     0
                      OPEN SHELL OCCUPATION       1

  ZNUC SCFIT  TOTAL HF ENERGY   KINETIC ENERGY   VIRIAL THEOREM ACCURACY
   1.0   1   -4.946643675E-01  4.917913167E-01 -2.005842012E+00  9.4E-17

 NUCLEAR CHARGE  6.0  SYMMETRY SPECIES            S    P
 N. ELECTRONS    6.0  NUMBER OF PRIMITIVE GTOS    7    4
                      NUMBER OF CONTRACTED GTOS   3    2
                      NUMBER OF CLOSED SHELLS     2    0
                      OPEN SHELL OCCUPATION       0    2

  ZNUC SCFIT  TOTAL HF ENERGY   KINETIC ENERGY   VIRIAL THEOREM ACCURACY
   6.0   6   -3.750912652E+01  3.905246519E+01 -1.960480378E+00  3.7E-06

 NUCLEAR CHARGE  7.0  SYMMETRY SPECIES            S    P
 N. ELECTRONS    7.0  NUMBER OF PRIMITIVE GTOS    7    4
                      NUMBER OF CONTRACTED GTOS   3    2
                      NUMBER OF CLOSED SHELLS     2    0
                      OPEN SHELL OCCUPATION       0    3

  ZNUC SCFIT  TOTAL HF ENERGY   KINETIC ENERGY   VIRIAL THEOREM ACCURACY
   7.0   9   -5.432196661E+01  5.425066284E+01 -2.001314339E+00  1.2E-06

 NUCLEAR CHARGE 30.0  SYMMETRY SPECIES            S    P    D
 N. ELECTRONS   30.0  NUMBER OF PRIMITIVE GTOS   14    9    5
                      NUMBER OF CONTRACTED GTOS   5    3    2
                      NUMBER OF CLOSED SHELLS     4    2    1
                      OPEN SHELL OCCUPATION       0    0    0

  ZNUC SCFIT  TOTAL HF ENERGY   KINETIC ENERGY   VIRIAL THEOREM ACCURACY
  30.0  10   -1.777404290E+03  1.777325716E+03 -2.000044209E+00  2.5E-06

 NUCLEAR CHARGE 35.0  SYMMETRY SPECIES            S    P    D
 N. ELECTRONS   35.0  NUMBER OF PRIMITIVE GTOS   14   10    7
                      NUMBER OF CONTRACTED GTOS   5    4    4
                      NUMBER OF CLOSED SHELLS     4    2    1
                      OPEN SHELL OCCUPATION       0    5    0

  ZNUC SCFIT  TOTAL HF ENERGY   KINETIC ENERGY   VIRIAL THEOREM ACCURACY
  35.0  13   -2.572060514E+03  2.572021521E+03 -2.000015161E+00  3.6E-06

 AAAAAAAAAAAAAAAAAAAAAAAAAAAAAAAAAAAAAAAAAAAAAAAAAAAAAAAAAAAAAAAAAAAAAAAAAAAAAAA

 TOTAL ATOMIC CHARGES:
   1.0000000   1.0000000   1.0000000   1.0000000   6.0000000   6.0000000
   6.0000000   6.0000000   6.0000000   6.0000000   6.0000000   6.0000000
   6.0000000   6.0000000   6.0000000   6.0000000   6.0000000   6.0000000
   6.0000000   6.0000000   6.0000000   6.0000000   6.0000000   6.0000000
   6.0000000   6.0000000   6.0000000   6.0000000   7.0000000   7.0000000
   7.0000000   7.0000000   7.0000000   7.0000000   7.0000000   7.0000000
   7.0000000   7.0000000   7.0000000   7.0000000   7.0000000   7.0000000
   7.0000000   7.0000000   7.0000000   7.0000000   7.0000000   7.0000000
  30.0000000  30.0000000  35.0000000  35.0000000  35.0000000  35.0000000
  35.0000000  35.0000000  35.0000000  35.0000000  35.0000000  35.0000000
  35.0000000  35.0000000
 TTTTTTTTTTTTTTTTTTTTTTTTTTTTTT MOQGAD      TELAPSE       96.24 TCPU        2.98
 TTTTTTTTTTTTTTTTTTTTTTTTTTTTTT SHELLXN     TELAPSE      128.68 TCPU       24.26
 TTTTTTTTTTTTTTTTTTTTTTTTTTTTTT MONMO3      TELAPSE      129.74 TCPU       25.32
 NUMERICALLY INTEGRATED DENSITY    768.0000180621
 TTTTTTTTTTTTTTTTTTTTTTTTTTTTTT NUMDFT      TELAPSE      130.29 TCPU       25.86
 CYC   0 ETOT(AU) -3.645162181070E+04 DETOT -3.65E+04 tst  0.00E+00 PX  1.00E+00
 TTTTTTTTTTTTTTTTTTTTTTTTTTTTTT DIIS        TELAPSE      130.36 TCPU       25.93
 TTTTTTTTTTTTTTTTTTTTTTTTTTTTTT FDIK        TELAPSE      168.56 TCPU       59.28
 INSULATING STATE
 TOP OF VALENCE BANDS -    BAND    384; K    1; EIG -1.3334696E-01 AU
 BOTTOM OF VIRTUAL BANDS - BAND    385; K    6; EIG -9.3218097E-02 AU
 INDIRECT ENERGY BAND GAP:   1.0920 eV
 BOTTOM OF VIRTUAL BANDS - BAND    385; K    1; EIG -9.0002555E-02 AU
 TTTTTTTTTTTTTTTTTTTTTTTTTTTTTT PDIG        TELAPSE      169.62 TCPU       60.34
 TOTAL ATOMIC CHARGES:
   1.2690209   1.2690209   1.2690209   1.2690209   6.2710086   6.2710086
   6.2710086   6.2710086   5.4805644   5.4805644   5.4805644   5.4805644
   5.7660567   5.7660567   5.7660567   5.7660567   5.9568080   5.9568080
   5.9568080   5.9568080   5.4004443   5.4004443   5.4004443   5.4004443
   5.7471476   5.7471476   5.7471476   5.7471476   7.4847242   7.4847242
   7.4847242   7.4847242   7.2228570   7.2228570   7.2228570   7.2228570
   7.4595575   7.4595575   7.4595575   7.4595575   7.1379429   7.1379429
   7.1379429   7.1379429   7.5639055   7.5639055   7.5639055   7.5639055
  28.0535147  28.0512789  35.0349778  35.0349778  35.0349778  35.0349778
  35.1026886  35.1026886  35.1026886  35.1026886  35.0760974  35.0760974
  35.0760974  35.0760974
 TTTTTTTTTTTTTTTTTTTTTTTTTTTTTT MOQGAD      TELAPSE      169.65 TCPU       60.36
 TTTTTTTTTTTTTTTTTTTTTTTTTTTTTT SHELLXN     TELAPSE      197.77 TCPU       85.74
 TTTTTTTTTTTTTTTTTTTTTTTTTTTTTT MONMO3      TELAPSE      201.95 TCPU       89.92
 NUMERICALLY INTEGRATED DENSITY    768.0001023816
 TTTTTTTTTTTTTTTTTTTTTTTTTTTTTT NUMDFT      TELAPSE      203.53 TCPU       91.48
 CYC   1 ETOT(AU) -3.644631962516E+04 DETOT  5.30E+00 tst  0.00E+00 PX  1.00E+00
 TTTTTTTTTTTTTTTTTTTTTTTTTTTTTT DIIS        TELAPSE      203.91 TCPU       91.87
 DIIS TEST: 0.82211E+01 AT SCF   CYCLE   1 - MIX   30 %
 TTTTTTTTTTTTTTTTTTTTTTTTTTTTTT FDIK        TELAPSE      216.90 TCPU      102.36
 INSULATING STATE
 TOP OF VALENCE BANDS -    BAND    384; K    4; EIG -1.4256500E-01 AU
 TOP OF VALENCE BANDS -    BAND    384; K    1; EIG -1.4473813E-01 AU
 BOTTOM OF VIRTUAL BANDS - BAND    385; K    1; EIG -1.3570224E-01 AU
 INDIRECT ENERGY BAND GAP:   0.1867 eV
 TTTTTTTTTTTTTTTTTTTTTTTTTTTTTT PDIG        TELAPSE      217.96 TCPU      103.42
 TOTAL ATOMIC CHARGES:
   1.2154632   1.2154632   1.2154632   1.2154632   6.2995700   6.2995700
   6.2995700   6.2995700   6.4941513   6.4941513   6.4941513   6.4941513
   6.5047394   6.5047394   6.5047394   6.5047394   5.9014168   5.9014168
   5.9014168   5.9014168   6.4004635   6.4004635   6.4004635   6.4004635
   6.0640201   6.0640201   6.0640201   6.0640201   6.8150391   6.8150391
   6.8150391   6.8150391   6.9562741   6.9562741   6.9562741   6.9562741
   6.9406788   6.9406788   6.9406788   6.9406788   6.8903745   6.8903745
   6.8903745   6.8903745   5.8966317   5.8966317   5.8966317   5.8966317
  29.4436351  29.3111243  34.9182924  34.9182924  34.9182924  34.9182924
  35.0995277  35.0995277  35.0995277  35.0995277  34.9146673  34.9146673
  34.9146673  34.9146673
 TTTTTTTTTTTTTTTTTTTTTTTTTTTTTT MOQGAD      TELAPSE      217.99 TCPU      103.44
 TTTTTTTTTTTTTTTTTTTTTTTTTTTTTT SHELLXN     TELAPSE      245.84 TCPU      128.82
 TTTTTTTTTTTTTTTTTTTTTTTTTTTTTT MONMO3      TELAPSE      248.37 TCPU      131.34
 NUMERICALLY INTEGRATED DENSITY    768.0001326092
 TTTTTTTTTTTTTTTTTTTTTTTTTTTTTT NUMDFT      TELAPSE      249.94 TCPU      132.91
 CYC   2 ETOT(AU) -3.644414337574E+04 DETOT  2.18E+00 tst  1.10E-02 PX  6.76E-01
 TTTTTTTTTTTTTTTTTTTTTTTTTTTTTT DIIS        TELAPSE      250.29 TCPU      133.26
 DIIS TEST: 0.26445E+02 AT SCF   CYCLE   2 - DIIS ACTIVE - HISTORY:     2 CYCLES
 TTTTTTTTTTTTTTTTTTTTTTTTTTTTTT FDIK        TELAPSE      262.24 TCPU      142.82
 INSULATING STATE
 TOP OF VALENCE BANDS -    BAND    384; K    3; EIG -2.1752166E-01 AU
 TOP OF VALENCE BANDS -    BAND    384; K    1; EIG -2.1886903E-01 AU
 BOTTOM OF VIRTUAL BANDS - BAND    385; K    1; EIG -1.2954439E-01 AU
 INDIRECT ENERGY BAND GAP:   2.3940 eV
 TTTTTTTTTTTTTTTTTTTTTTTTTTTTTT PDIG        TELAPSE      263.30 TCPU      143.88
 TOTAL ATOMIC CHARGES:
   1.1870814   1.1870814   1.1870814   1.1870814   5.9785591   5.9785591
   5.9785591   5.9785591   5.9888989   5.9888989   5.9888989   5.9888989
   5.9575323   5.9575323   5.9575323   5.9575323   6.2238424   6.2238424
   6.2238424   6.2238424   5.9715809   5.9715809   5.9715809   5.9715809
   5.9112825   5.9112825   5.9112825   5.9112825   7.0425125   7.0425125
   7.0425125   7.0425125   7.1312602   7.1312602   7.1312602   7.1312602
   7.0267318   7.0267318   7.0267318   7.0267318   7.0698339   7.0698339
   7.0698339   7.0698339   7.2337909   7.2337909   7.2337909   7.2337909
  29.1289979  29.1533001  34.9427799  34.9427799  34.9427799  34.9427799
  34.9001229  34.9001229  34.9001229  34.9001229  34.8636160  34.8636160
  34.8636160  34.8636160
 TTTTTTTTTTTTTTTTTTTTTTTTTTTTTT MOQGAD      TELAPSE      263.33 TCPU      143.90
 TTTTTTTTTTTTTTTTTTTTTTTTTTTTTT SHELLXN     TELAPSE      292.33 TCPU      169.17
 TTTTTTTTTTTTTTTTTTTTTTTTTTTTTT MONMO3      TELAPSE      294.16 TCPU      171.00
 NUMERICALLY INTEGRATED DENSITY    768.0001134612
 TTTTTTTTTTTTTTTTTTTTTTTTTTTTTT NUMDFT      TELAPSE      295.69 TCPU      172.52
 CYC   3 ETOT(AU) -3.644737343087E+04 DETOT -3.23E+00 tst  1.25E-02 PX  2.89E-01
 TTTTTTTTTTTTTTTTTTTTTTTTTTTTTT DIIS        TELAPSE      295.95 TCPU      172.78
 DIIS TEST: 0.26529E+01 AT SCF   CYCLE   3 - DIIS ACTIVE - HISTORY:     3 CYCLES
 TTTTTTTTTTTTTTTTTTTTTTTTTTTTTT FDIK        TELAPSE      308.81 TCPU      182.78
 INSULATING STATE
 TOP OF VALENCE BANDS -    BAND    384; K    1; EIG -2.2094472E-01 AU
 BOTTOM OF VIRTUAL BANDS - BAND    385; K    6; EIG -1.2355059E-01 AU
 INDIRECT ENERGY BAND GAP:   2.6502 eV
 BOTTOM OF VIRTUAL BANDS - BAND    385; K    1; EIG -1.1980226E-01 AU
 TTTTTTTTTTTTTTTTTTTTTTTTTTTTTT PDIG        TELAPSE      309.88 TCPU      183.83
 TOTAL ATOMIC CHARGES:
   1.2155174   1.2155174   1.2155174   1.2155174   6.2912574   6.2912574
   6.2912574   6.2912574   5.8343825   5.8343825   5.8343825   5.8343825
   6.0701834   6.0701834   6.0701834   6.0701834   5.8814652   5.8814652
   5.8814652   5.8814652   5.7464899   5.7464899   5.7464899   5.7464899
   5.8847056   5.8847056   5.8847056   5.8847056   7.2782233   7.2782233
   7.2782233   7.2782233   7.0998323   7.0998323   7.0998323   7.0998323
   7.2798845   7.2798845   7.2798845   7.2798845   7.0189075   7.0189075
   7.0189075   7.0189075   7.0012459   7.0012459   7.0012459   7.0012459
  28.7541371  28.7418071  34.9891113  34.9891113  34.9891113  34.9891113
  35.0304760  35.0304760  35.0304760  35.0304760  35.0043317  35.0043317
  35.0043317  35.0043317
 TTTTTTTTTTTTTTTTTTTTTTTTTTTTTT MOQGAD      TELAPSE      309.90 TCPU      183.85
 TTTTTTTTTTTTTTTTTTTTTTTTTTTTTT SHELLXN     TELAPSE      339.81 TCPU      209.11
 TTTTTTTTTTTTTTTTTTTTTTTTTTTTTT MONMO3      TELAPSE      340.60 TCPU      209.89
 NUMERICALLY INTEGRATED DENSITY    768.0001111066
 TTTTTTTTTTTTTTTTTTTTTTTTTTTTTT NUMDFT      TELAPSE      342.17 TCPU      211.45
 CYC   4 ETOT(AU) -3.644776378044E+04 DETOT -3.90E-01 tst  3.31E-03 PX  2.56E-01
 TTTTTTTTTTTTTTTTTTTTTTTTTTTTTT DIIS        TELAPSE      342.91 TCPU      212.19
 DIIS TEST: 0.76309E+00 AT SCF   CYCLE   4 - DIIS ACTIVE - HISTORY:     4 CYCLES
 TTTTTTTTTTTTTTTTTTTTTTTTTTTTTT FDIK        TELAPSE      355.14 TCPU      221.12
 INSULATING STATE
 TOP OF VALENCE BANDS -    BAND    384; K    1; EIG -2.2353491E-01 AU
 BOTTOM OF VIRTUAL BANDS - BAND    385; K    6; EIG -1.2561758E-01 AU
 INDIRECT ENERGY BAND GAP:   2.6645 eV
 BOTTOM OF VIRTUAL BANDS - BAND    385; K    1; EIG -1.2237481E-01 AU
 TTTTTTTTTTTTTTTTTTTTTTTTTTTTTT PDIG        TELAPSE      356.20 TCPU      222.18
 TOTAL ATOMIC CHARGES:
   1.2084323   1.2084323   1.2084323   1.2084323   6.2156694   6.2156694
   6.2156694   6.2156694   5.9002625   5.9002625   5.9002625   5.9002625
   6.0476061   6.0476061   6.0476061   6.0476061   6.0085303   6.0085303
   6.0085303   6.0085303   5.8756834   5.8756834   5.8756834   5.8756834
   5.9131041   5.9131041   5.9131041   5.9131041   7.1574309   7.1574309
   7.1574309   7.1574309   7.1669889   7.1669889   7.1669889   7.1669889
   7.1592781   7.1592781   7.1592781   7.1592781   7.0578285   7.0578285
   7.0578285   7.0578285   7.0503561   7.0503561   7.0503561   7.0503561
  28.7370643  28.7246347  34.9317627  34.9317627  34.9317627  34.9317627
  34.9983084  34.9983084  34.9983084  34.9983084  34.9433335  34.9433335
  34.9433335  34.9433335
 TTTTTTTTTTTTTTTTTTTTTTTTTTTTTT MOQGAD      TELAPSE      356.23 TCPU      222.20
 TTTTTTTTTTTTTTTTTTTTTTTTTTTTTT SHELLXN     TELAPSE      384.67 TCPU      247.58
 TTTTTTTTTTTTTTTTTTTTTTTTTTTTTT MONMO3      TELAPSE      386.44 TCPU      249.35
 NUMERICALLY INTEGRATED DENSITY    768.0001123199
 TTTTTTTTTTTTTTTTTTTTTTTTTTTTTT NUMDFT      TELAPSE      388.00 TCPU      250.90
 CYC   5 ETOT(AU) -3.644785828846E+04 DETOT -9.45E-02 tst  3.53E-04 PX  4.18E-02
 TTTTTTTTTTTTTTTTTTTTTTTTTTTTTT DIIS        TELAPSE      388.50 TCPU      251.40
 DIIS TEST: 0.11366E+00 AT SCF   CYCLE   5 - DIIS ACTIVE - HISTORY:     5 CYCLES
 TTTTTTTTTTTTTTTTTTTTTTTTTTTTTT FDIK        TELAPSE      397.91 TCPU      259.24
 INSULATING STATE
 TOP OF VALENCE BANDS -    BAND    384; K    1; EIG -2.2275862E-01 AU
 BOTTOM OF VIRTUAL BANDS - BAND    385; K    6; EIG -1.2346518E-01 AU
 INDIRECT ENERGY BAND GAP:   2.7019 eV
 BOTTOM OF VIRTUAL BANDS - BAND    385; K    1; EIG -1.1973154E-01 AU
 TTTTTTTTTTTTTTTTTTTTTTTTTTTTTT PDIG        TELAPSE      398.97 TCPU      260.30
 TOTAL ATOMIC CHARGES:
   1.2101157   1.2101157   1.2101157   1.2101157   6.1935511   6.1935511
   6.1935511   6.1935511   5.8757430   5.8757430   5.8757430   5.8757430
   6.0242930   6.0242930   6.0242930   6.0242930   6.0036755   6.0036755
   6.0036755   6.0036755   5.8131013   5.8131013   5.8131013   5.8131013
   5.8865864   5.8865864   5.8865864   5.8865864   7.1978079   7.1978079
   7.1978079   7.1978079   7.1067720   7.1067720   7.1067720   7.1067720
   7.2181133   7.2181133   7.2181133   7.2181133   7.0568143   7.0568143
   7.0568143   7.0568143   7.0738059   7.0738059   7.0738059   7.0738059
  28.7771618  28.7638160  34.9764380  34.9764380  34.9764380  34.9764380
  35.0120551  35.0120551  35.0120551  35.0120551  34.9658832  34.9658832
  34.9658832  34.9658832
 TTTTTTTTTTTTTTTTTTTTTTTTTTTTTT MOQGAD      TELAPSE      399.00 TCPU      260.32
 TTTTTTTTTTTTTTTTTTTTTTTTTTTTTT SHELLXN     TELAPSE      429.03 TCPU      285.60
 TTTTTTTTTTTTTTTTTTTTTTTTTTTTTT MONMO3      TELAPSE      430.87 TCPU      287.44
 NUMERICALLY INTEGRATED DENSITY    768.0001126234
 TTTTTTTTTTTTTTTTTTTTTTTTTTTTTT NUMDFT      TELAPSE      432.42 TCPU      288.98
 CYC   6 ETOT(AU) -3.644787476907E+04 DETOT -1.65E-02 tst  4.06E-05 PX  4.16E-02
 TTTTTTTTTTTTTTTTTTTTTTTTTTTTTT DIIS        TELAPSE      432.77 TCPU      289.32
 DIIS TEST: 0.15282E-01 AT SCF   CYCLE   6 - DIIS ACTIVE - HISTORY:     6 CYCLES
 TTTTTTTTTTTTTTTTTTTTTTTTTTTTTT FDIK        TELAPSE      443.32 TCPU      298.10
 INSULATING STATE
 TOP OF VALENCE BANDS -    BAND    384; K    1; EIG -2.2295577E-01 AU
 BOTTOM OF VIRTUAL BANDS - BAND    385; K    6; EIG -1.2412833E-01 AU
 INDIRECT ENERGY BAND GAP:   2.6892 eV
 BOTTOM OF VIRTUAL BANDS - BAND    385; K    1; EIG -1.2049646E-01 AU
 TTTTTTTTTTTTTTTTTTTTTTTTTTTTTT PDIG        TELAPSE      444.39 TCPU      299.16
 TOTAL ATOMIC CHARGES:
   1.2090580   1.2090580   1.2090580   1.2090580   6.1971868   6.1971868
   6.1971868   6.1971868   5.8809493   5.8809493   5.8809493   5.8809493
   6.0346261   6.0346261   6.0346261   6.0346261   5.9946711   5.9946711
   5.9946711   5.9946711   5.8260056   5.8260056   5.8260056   5.8260056
   5.8921619   5.8921619   5.8921619   5.8921619   7.2089192   7.2089192
   7.2089192   7.2089192   7.1522011   7.1522011   7.1522011   7.1522011
   7.1755553   7.1755553   7.1755553   7.1755553   7.0336570   7.0336570
   7.0336570   7.0336570   7.0825697   7.0825697   7.0825697   7.0825697
  28.7815395  28.7696527  34.9634683  34.9634683  34.9634683  34.9634683
  35.0017776  35.0017776  35.0017776  35.0017776  34.9593949  34.9593949
  34.9593949  34.9593949
 TTTTTTTTTTTTTTTTTTTTTTTTTTTTTT MOQGAD      TELAPSE      444.41 TCPU      299.18
 TTTTTTTTTTTTTTTTTTTTTTTTTTTTTT SHELLXN     TELAPSE      471.45 TCPU      324.75
 TTTTTTTTTTTTTTTTTTTTTTTTTTTTTT MONMO3      TELAPSE      473.43 TCPU      326.72
 NUMERICALLY INTEGRATED DENSITY    768.0001119467
 TTTTTTTTTTTTTTTTTTTTTTTTTTTTTT NUMDFT      TELAPSE      475.01 TCPU      328.29
 CYC   7 ETOT(AU) -3.644787502030E+04 DETOT -2.51E-04 tst  1.27E-05 PX  1.17E-02
 TTTTTTTTTTTTTTTTTTTTTTTTTTTTTT DIIS        TELAPSE      475.24 TCPU      328.52
 DIIS TEST: 0.16541E-01 AT SCF   CYCLE   7 - DIIS ACTIVE - HISTORY:     7 CYCLES
 TTTTTTTTTTTTTTTTTTTTTTTTTTTTTT FDIK        TELAPSE      484.40 TCPU      337.33
 INSULATING STATE
 TOP OF VALENCE BANDS -    BAND    384; K    1; EIG -2.2291092E-01 AU
 BOTTOM OF VIRTUAL BANDS - BAND    385; K    6; EIG -1.2433145E-01 AU
 INDIRECT ENERGY BAND GAP:   2.6825 eV
 BOTTOM OF VIRTUAL BANDS - BAND    385; K    1; EIG -1.2070187E-01 AU
 TTTTTTTTTTTTTTTTTTTTTTTTTTTTTT PDIG        TELAPSE      485.46 TCPU      338.39
 TOTAL ATOMIC CHARGES:
   1.2088185   1.2088185   1.2088185   1.2088185   6.1969730   6.1969730
   6.1969730   6.1969730   5.8820128   5.8820128   5.8820128   5.8820128
   6.0314209   6.0314209   6.0314209   6.0314209   6.0024439   6.0024439
   6.0024439   6.0024439   5.8289443   5.8289443   5.8289443   5.8289443
   5.8947353   5.8947353   5.8947353   5.8947353   7.1840704   7.1840704
   7.1840704   7.1840704   7.1297063   7.1297063   7.1297063   7.1297063
   7.1998839   7.1998839   7.1998839   7.1998839   7.0547720   7.0547720
   7.0547720   7.0547720   7.0771819   7.0771819   7.0771819   7.0771819
  28.7756930  28.7685554  34.9650346  34.9650346  34.9650346  34.9650346
  34.9998184  34.9998184  34.9998184  34.9998184  34.9581215  34.9581215
  34.9581215  34.9581215
 TTTTTTTTTTTTTTTTTTTTTTTTTTTTTT MOQGAD      TELAPSE      485.49 TCPU      338.41
 TTTTTTTTTTTTTTTTTTTTTTTTTTTTTT SHELLXN     TELAPSE      512.51 TCPU      363.97
 TTTTTTTTTTTTTTTTTTTTTTTTTTTTTT MONMO3      TELAPSE      514.53 TCPU      365.97
 NUMERICALLY INTEGRATED DENSITY    768.0001122798
 TTTTTTTTTTTTTTTTTTTTTTTTTTTTTT NUMDFT      TELAPSE      516.07 TCPU      367.50
 CYC   8 ETOT(AU) -3.644787734244E+04 DETOT -2.32E-03 tst  7.49E-06 PX  6.53E-03
 TTTTTTTTTTTTTTTTTTTTTTTTTTTTTT DIIS        TELAPSE      516.42 TCPU      367.85
 DIIS TEST: 0.19962E-02 AT SCF   CYCLE   8 - DIIS ACTIVE - HISTORY:     8 CYCLES
 TTTTTTTTTTTTTTTTTTTTTTTTTTTTTT FDIK        TELAPSE      525.06 TCPU      376.29
 INSULATING STATE
 TOP OF VALENCE BANDS -    BAND    384; K    1; EIG -2.2299476E-01 AU
 BOTTOM OF VIRTUAL BANDS - BAND    385; K    6; EIG -1.2425148E-01 AU
 INDIRECT ENERGY BAND GAP:   2.6869 eV
 BOTTOM OF VIRTUAL BANDS - BAND    385; K    1; EIG -1.2068595E-01 AU
 TTTTTTTTTTTTTTTTTTTTTTTTTTTTTT PDIG        TELAPSE      526.12 TCPU      377.35
 TOTAL ATOMIC CHARGES:
   1.2088326   1.2088326   1.2088326   1.2088326   6.1967697   6.1967697
   6.1967697   6.1967697   5.8794753   5.8794753   5.8794753   5.8794753
   6.0263087   6.0263087   6.0263087   6.0263087   6.0076547   6.0076547
   6.0076547   6.0076547   5.8297351   5.8297351   5.8297351   5.8297351
   5.8921145   5.8921145   5.8921145   5.8921145   7.1975747   7.1975747
   7.1975747   7.1975747   7.1272689   7.1272689   7.1272689   7.1272689
   7.1977870   7.1977870   7.1977870   7.1977870   7.0484941   7.0484941
   7.0484941   7.0484941   7.0738213   7.0738213   7.0738213   7.0738213
  28.7785433  28.7665794  34.9647173  34.9647173  34.9647173  34.9647173
  35.0045243  35.0045243  35.0045243  35.0045243  34.9586413  34.9586413
  34.9586413  34.9586413
 TTTTTTTTTTTTTTTTTTTTTTTTTTTTTT MOQGAD      TELAPSE      526.15 TCPU      377.37
 TTTTTTTTTTTTTTTTTTTTTTTTTTTTTT SHELLXN     TELAPSE      554.06 TCPU      402.77
 TTTTTTTTTTTTTTTTTTTTTTTTTTTTTT MONMO3      TELAPSE      556.26 TCPU      404.96
 NUMERICALLY INTEGRATED DENSITY    768.0001123733
 TTTTTTTTTTTTTTTTTTTTTTTTTTTTTT NUMDFT      TELAPSE      557.78 TCPU      406.47
 CYC   9 ETOT(AU) -3.644787752295E+04 DETOT -1.81E-04 tst  6.55E-07 PX  2.85E-03
 TTTTTTTTTTTTTTTTTTTTTTTTTTTTTT DIIS        TELAPSE      558.51 TCPU      407.20
 DIIS TEST: 0.74287E-03 AT SCF   CYCLE   9 - DIIS ACTIVE - HISTORY:     9 CYCLES
 TTTTTTTTTTTTTTTTTTTTTTTTTTTTTT FDIK        TELAPSE      569.13 TCPU      416.52
 INSULATING STATE
 TOP OF VALENCE BANDS -    BAND    384; K    1; EIG -2.2299429E-01 AU
 BOTTOM OF VIRTUAL BANDS - BAND    385; K    6; EIG -1.2420547E-01 AU
 INDIRECT ENERGY BAND GAP:   2.6882 eV
 BOTTOM OF VIRTUAL BANDS - BAND    385; K    1; EIG -1.2057948E-01 AU
 TTTTTTTTTTTTTTTTTTTTTTTTTTTTTT PDIG        TELAPSE      570.19 TCPU      417.58
 TOTAL ATOMIC CHARGES:
   1.2089292   1.2089292   1.2089292   1.2089292   6.1964932   6.1964932
   6.1964932   6.1964932   5.8801753   5.8801753   5.8801753   5.8801753
   6.0314219   6.0314219   6.0314219   6.0314219   6.0032190   6.0032190
   6.0032190   6.0032190   5.8257629   5.8257629   5.8257629   5.8257629
   5.8933148   5.8933148   5.8933148   5.8933148   7.1907542   7.1907542
   7.1907542   7.1907542   7.1321188   7.1321188   7.1321188   7.1321188
   7.1960338   7.1960338   7.1960338   7.1960338   7.0505085   7.0505085
   7.0505085   7.0505085   7.0775192   7.0775192   7.0775192   7.0775192
  28.7786683  28.7686159  34.9648450  34.9648450  34.9648450  34.9648450
  35.0031436  35.0031436  35.0031436  35.0031436  34.9589397  34.9589397
  34.9589397  34.9589397
 TTTTTTTTTTTTTTTTTTTTTTTTTTTTTT MOQGAD      TELAPSE      570.21 TCPU      417.60
 TTTTTTTTTTTTTTTTTTTTTTTTTTTTTT SHELLXN     TELAPSE      598.20 TCPU      443.01
 TTTTTTTTTTTTTTTTTTTTTTTTTTTTTT MONMO3      TELAPSE      600.23 TCPU      445.04
 NUMERICALLY INTEGRATED DENSITY    768.0001122376
 TTTTTTTTTTTTTTTTTTTTTTTTTTTTTT NUMDFT      TELAPSE      601.81 TCPU      446.61
 CYC  10 ETOT(AU) -3.644787760449E+04 DETOT -8.15E-05 tst  2.03E-07 PX  1.99E-03
 TTTTTTTTTTTTTTTTTTTTTTTTTTTTTT DIIS        TELAPSE      602.06 TCPU      446.86
 DIIS TEST: 0.17428E-03 AT SCF   CYCLE  10 - DIIS ACTIVE - HISTORY:    10 CYCLES
 TTTTTTTTTTTTTTTTTTTTTTTTTTTTTT FDIK        TELAPSE      612.76 TCPU      455.14
 INSULATING STATE
 TOP OF VALENCE BANDS -    BAND    384; K    1; EIG -2.2293362E-01 AU
 BOTTOM OF VIRTUAL BANDS - BAND    385; K    6; EIG -1.2430306E-01 AU
 INDIRECT ENERGY BAND GAP:   2.6839 eV
 BOTTOM OF VIRTUAL BANDS - BAND    385; K    1; EIG -1.2069690E-01 AU
 TTTTTTTTTTTTTTTTTTTTTTTTTTTTTT PDIG        TELAPSE      613.82 TCPU      456.20
 TOTAL ATOMIC CHARGES:
   1.2088973   1.2088973   1.2088973   1.2088973   6.1969402   6.1969402
   6.1969402   6.1969402   5.8812969   5.8812969   5.8812969   5.8812969
   6.0287246   6.0287246   6.0287246   6.0287246   6.0033269   6.0033269
   6.0033269   6.0033269   5.8293745   5.8293745   5.8293745   5.8293745
   5.8926172   5.8926172   5.8926172   5.8926172   7.1934796   7.1934796
   7.1934796   7.1934796   7.1294433   7.1294433   7.1294433   7.1294433
   7.1971360   7.1971360   7.1971360   7.1971360   7.0496624   7.0496624
   7.0496624   7.0496624   7.0775406   7.0775406   7.0775406   7.0775406
  28.7777079  28.7678028  34.9654225  34.9654225  34.9654225  34.9654225
  35.0014086  35.0014086  35.0014086  35.0014086  34.9583516  34.9583516
  34.9583516  34.9583516
 TTTTTTTTTTTTTTTTTTTTTTTTTTTTTT MOQGAD      TELAPSE      613.84 TCPU      456.22
 TTTTTTTTTTTTTTTTTTTTTTTTTTTTTT SHELLXN     TELAPSE      641.75 TCPU      481.58
 TTTTTTTTTTTTTTTTTTTTTTTTTTTTTT MONMO3      TELAPSE      643.91 TCPU      483.74
 NUMERICALLY INTEGRATED DENSITY    768.0001123022
 TTTTTTTTTTTTTTTTTTTTTTTTTTTTTT NUMDFT      TELAPSE      645.47 TCPU      485.29
 CYC  11 ETOT(AU) -3.644787761407E+04 DETOT -9.57E-06 tst  6.76E-08 PX  9.33E-04
 TTTTTTTTTTTTTTTTTTTTTTTTTTTTTT DIIS        TELAPSE      645.70 TCPU      485.52
 DIIS TEST: 0.87096E-04 AT SCF   CYCLE  11 - DIIS ACTIVE - HISTORY:    11 CYCLES
 TTTTTTTTTTTTTTTTTTTTTTTTTTTTTT FDIK        TELAPSE      657.79 TCPU      493.17
 INSULATING STATE
 TOP OF VALENCE BANDS -    BAND    384; K    1; EIG -2.2302840E-01 AU
 BOTTOM OF VIRTUAL BANDS - BAND    385; K    6; EIG -1.2420766E-01 AU
 INDIRECT ENERGY BAND GAP:   2.6891 eV
 BOTTOM OF VIRTUAL BANDS - BAND    385; K    1; EIG -1.2060520E-01 AU
 TTTTTTTTTTTTTTTTTTTTTTTTTTTTTT PDIG        TELAPSE      658.85 TCPU      494.23
 TOTAL ATOMIC CHARGES:
   1.2088134   1.2088134   1.2088134   1.2088134   6.1959207   6.1959207
   6.1959207   6.1959207   5.8801282   5.8801282   5.8801282   5.8801282
   6.0295242   6.0295242   6.0295242   6.0295242   6.0050644   6.0050644
   6.0050644   6.0050644   5.8270028   5.8270028   5.8270028   5.8270028
   5.8934930   5.8934930   5.8934930   5.8934930   7.1926424   7.1926424
   7.1926424   7.1926424   7.1309656   7.1309656   7.1309656   7.1309656
   7.1961257   7.1961257   7.1961257   7.1961257   7.0503667   7.0503667
   7.0503667   7.0503667   7.0758074   7.0758074   7.0758074   7.0758074
  28.7782178  28.7678843  34.9651773  34.9651773  34.9651773  34.9651773
  35.0033678  35.0033678  35.0033678  35.0033678  34.9590750  34.9590750
  34.9590750  34.9590750
 TTTTTTTTTTTTTTTTTTTTTTTTTTTTTT MOQGAD      TELAPSE      658.87 TCPU      494.25
 TTTTTTTTTTTTTTTTTTTTTTTTTTTTTT SHELLXN     TELAPSE      686.56 TCPU      519.62
 TTTTTTTTTTTTTTTTTTTTTTTTTTTTTT MONMO3      TELAPSE      688.67 TCPU      521.73
 NUMERICALLY INTEGRATED DENSITY    768.0001122674
 TTTTTTTTTTTTTTTTTTTTTTTTTTTTTT NUMDFT      TELAPSE      690.24 TCPU      523.28
 CYC  12 ETOT(AU) -3.644787762217E+04 DETOT -8.10E-06 tst  5.16E-08 PX  5.98E-04
 TTTTTTTTTTTTTTTTTTTTTTTTTTTTTT DIIS        TELAPSE      690.49 TCPU      523.53
 DIIS TEST: 0.45920E-04 AT SCF   CYCLE  12 - DIIS ACTIVE - HISTORY:    12 CYCLES
 TTTTTTTTTTTTTTTTTTTTTTTTTTTTTT FDIK        TELAPSE      701.23 TCPU      532.09
 INSULATING STATE
 TOP OF VALENCE BANDS -    BAND    384; K    1; EIG -2.2298294E-01 AU
 BOTTOM OF VIRTUAL BANDS - BAND    385; K    6; EIG -1.2424997E-01 AU
 INDIRECT ENERGY BAND GAP:   2.6867 eV
 BOTTOM OF VIRTUAL BANDS - BAND    385; K    1; EIG -1.2064018E-01 AU
 TTTTTTTTTTTTTTTTTTTTTTTTTTTTTT PDIG        TELAPSE      702.29 TCPU      533.15
 TOTAL ATOMIC CHARGES:
   1.2088859   1.2088859   1.2088859   1.2088859   6.1969772   6.1969772
   6.1969772   6.1969772   5.8803871   5.8803871   5.8803871   5.8803871
   6.0297605   6.0297605   6.0297605   6.0297605   6.0040147   6.0040147
   6.0040147   6.0040147   5.8274867   5.8274867   5.8274867   5.8274867
   5.8924762   5.8924762   5.8924762   5.8924762   7.1925107   7.1925107
   7.1925107   7.1925107   7.1305420   7.1305420   7.1305420   7.1305420
   7.1967522   7.1967522   7.1967522   7.1967522   7.0498739   7.0498739
   7.0498739   7.0498739   7.0770769   7.0770769   7.0770769   7.0770769
  28.7783285  28.7679584  34.9649071  34.9649071  34.9649071  34.9649071
  35.0029532  35.0029532  35.0029532  35.0029532  34.9588239  34.9588239
  34.9588239  34.9588239
 TTTTTTTTTTTTTTTTTTTTTTTTTTTTTT MOQGAD      TELAPSE      702.32 TCPU      533.17
 TTTTTTTTTTTTTTTTTTTTTTTTTTTTTT SHELLXN     TELAPSE      728.20 TCPU      558.58
 TTTTTTTTTTTTTTTTTTTTTTTTTTTTTT MONMO3      TELAPSE      730.16 TCPU      560.53
 NUMERICALLY INTEGRATED DENSITY    768.0001122845
 TTTTTTTTTTTTTTTTTTTTTTTTTTTTTT NUMDFT      TELAPSE      731.72 TCPU      562.09
 CYC  13 ETOT(AU) -3.644787762774E+04 DETOT -5.57E-06 tst  1.60E-08 PX  3.62E-04
 TTTTTTTTTTTTTTTTTTTTTTTTTTTTTT DIIS        TELAPSE      732.02 TCPU      562.39
 DIIS TEST: 0.68164E-05 AT SCF   CYCLE  13 - DIIS ACTIVE - HISTORY:    13 CYCLES
 TTTTTTTTTTTTTTTTTTTTTTTTTTTTTT FDIK        TELAPSE      740.88 TCPU      571.06
[...]
 DIIS TEST: 0.15688E+03 AT CPHF  CYCLE   1 - MIX    0 %
 CYCLE   1   ALPHA  469.026646  EPSILON    1.956497  DELTA   -5.7464E+02
 TTTTTTTTTTTTTTTTTTTTTTTTTTTTTT MOQGAD      TELAPSE    98281.17 TCPU    97328.58
 TTTTTTTTTTTTTTTTTTTTTTTTTTTTTT CP_MONMON   TELAPSE    98285.59 TCPU    97332.94
 DIIS TEST: 0.13743E+04 AT CPHF  CYCLE   2 - DIIS ACTIVE - HISTORY:     2 CYCLES
 CYCLE   2   ALPHA  760.745030  EPSILON    2.551405  DELTA    2.9172E+02
 TTTTTTTTTTTTTTTTTTTTTTTTTTTTTT MOQGAD      TELAPSE    98498.83 TCPU    97544.40
 TTTTTTTTTTTTTTTTTTTTTTTTTTTTTT CP_MONMON   TELAPSE    98503.25 TCPU    97548.81
 DIIS TEST: 0.36680E+02 AT CPHF  CYCLE   3 - DIIS ACTIVE - HISTORY:     3 CYCLES
 CYCLE   3   ALPHA  815.338112  EPSILON    2.662738  DELTA    5.4593E+01
 TTTTTTTTTTTTTTTTTTTTTTTTTTTTTT MOQGAD      TELAPSE    98716.50 TCPU    97760.48
 TTTTTTTTTTTTTTTTTTTTTTTTTTTTTT CP_MONMON   TELAPSE    98720.93 TCPU    97764.89
 DIIS TEST: 0.64025E+01 AT CPHF  CYCLE   4 - DIIS ACTIVE - HISTORY:     4 CYCLES
 CYCLE   4   ALPHA  818.507868  EPSILON    2.669203  DELTA    3.1698E+00
 TTTTTTTTTTTTTTTTTTTTTTTTTTTTTT MOQGAD      TELAPSE    98934.18 TCPU    97976.48
 TTTTTTTTTTTTTTTTTTTTTTTTTTTTTT CP_MONMON   TELAPSE    98938.61 TCPU    97980.89
 DIIS TEST: 0.37408E+00 AT CPHF  CYCLE   5 - DIIS ACTIVE - HISTORY:     5 CYCLES
 CYCLE   5   ALPHA  819.399240  EPSILON    2.671020  DELTA    8.9137E-01
 TTTTTTTTTTTTTTTTTTTTTTTTTTTTTT MOQGAD      TELAPSE    99151.93 TCPU    98192.56
 TTTTTTTTTTTTTTTTTTTTTTTTTTTTTT CP_MONMON   TELAPSE    99156.35 TCPU    98196.97
 DIIS TEST: 0.81814E-01 AT CPHF  CYCLE   6 - DIIS ACTIVE - HISTORY:     6 CYCLES
 CYCLE   6   ALPHA  819.833707  EPSILON    2.671906  DELTA    4.3447E-01
 TTTTTTTTTTTTTTTTTTTTTTTTTTTTTT MOQGAD      TELAPSE    99369.58 TCPU    98408.57
 TTTTTTTTTTTTTTTTTTTTTTTTTTTTTT CP_MONMON   TELAPSE    99374.00 TCPU    98412.97
 DIIS TEST: 0.26038E-01 AT CPHF  CYCLE   7 - DIIS ACTIVE - HISTORY:     7 CYCLES
 CYCLE   7   ALPHA  819.942688  EPSILON    2.672129  DELTA    1.0898E-01
 TTTTTTTTTTTTTTTTTTTTTTTTTTTTTT MOQGAD      TELAPSE    99587.54 TCPU    98624.92
 TTTTTTTTTTTTTTTTTTTTTTTTTTTTTT CP_MONMON   TELAPSE    99591.96 TCPU    98629.33
 DIIS TEST: 0.48601E-01 AT CPHF  CYCLE   8 - DIIS ACTIVE - HISTORY:     8 CYCLES
 CYCLE   8   ALPHA  819.921938  EPSILON    2.672086  DELTA   -2.0749E-02
 TTTTTTTTTTTTTTTTTTTTTTTTTTTTTT MOQGAD      TELAPSE    99806.66 TCPU    98842.22
 TTTTTTTTTTTTTTTTTTTTTTTTTTTTTT CP_MONMON   TELAPSE    99811.09 TCPU    98846.62
 DIIS TEST: 0.56207E-02 AT CPHF  CYCLE   9 - DIIS ACTIVE - HISTORY:     9 CYCLES
 CYCLE   9   ALPHA  819.887181  EPSILON    2.672015  DELTA   -3.4757E-02
 TTTTTTTTTTTTTTTTTTTTTTTTTTTTTT MOQGAD      TELAPSE   100024.62 TCPU    99058.40
 TTTTTTTTTTTTTTTTTTTTTTTTTTTTTT CP_MONMON   TELAPSE   100029.03 TCPU    99062.80
 DIIS TEST: 0.90703E-03 AT CPHF  CYCLE  10 - DIIS ACTIVE - HISTORY:    10 CYCLES
 CYCLE  10   ALPHA  819.877281  EPSILON    2.671995  DELTA   -9.9003E-03
 TTTTTTTTTTTTTTTTTTTTTTTTTTTTTT MOQGAD      TELAPSE   100245.20 TCPU    99277.23
 TTTTTTTTTTTTTTTTTTTTTTTTTTTTTT CP_MONMON   TELAPSE   100249.66 TCPU    99281.67
 DIIS TEST: 0.65842E-03 AT CPHF  CYCLE  11 - DIIS ACTIVE - HISTORY:    11 CYCLES
 CYCLE  11   ALPHA  819.888089  EPSILON    2.672017  DELTA    1.0808E-02
 TTTTTTTTTTTTTTTTTTTTTTTTTTTTTT MOQGAD      TELAPSE   100466.69 TCPU    99497.01
 TTTTTTTTTTTTTTTTTTTTTTTTTTTTTT CP_MONMON   TELAPSE   100471.11 TCPU    99501.41
 DIIS TEST: 0.60266E-03 AT CPHF  CYCLE  12 - DIIS ACTIVE - HISTORY:    12 CYCLES
 CYCLE  12   ALPHA  819.887642  EPSILON    2.672016  DELTA   -4.4737E-04
 TTTTTTTTTTTTTTTTTTTTTTTTTTTTTT CP_SC       TELAPSE   100491.44 TCPU    99520.63

 *******************************************************************************

 POLARIZABILITY (ALPHA), DIELECTRIC (EPSILON) AND FIRST-ORDER ELECTRIC
 SUSCEPTIBILITY (CHI(1)) TENSORS (INDEPENDENT COMPONENTS)

  FR.(eV) COMP.   ALPHA(Re,Im)           EPSILON(Re,Im)                CHI(1)
  1.435   XX    1630.5391       0.0000       4.3252       0.0000       3.3252
  1.435   ZZ     819.8876       0.0000       2.6720       0.0000       1.6720

 DIELECTRIC TENSOR

 TENSOR IN PRINCIPAL AXES SYSTEM
 AA  4.325197E+00 BB  4.325197E+00 CC  2.672016E+00

 REFRACTIVE INDICES 
 AA  1.634630E+00 BB  2.079711E+00 CC  2.079711E+00

 OPTICALLY ANISOTROPIC - UNIAXIAL CRYSTAL

 BIREFRINGENCE =  0.4451 (NEGATIVE) - OBLATE OPTICAL ELLIPSOID

 EPSILON=N**2=1+CHI(1)=1+ALPHA*4*PI/V,   4*PI/V=   0.00204 BOHR**(-3)
 ALPHA IN BOHR**3; EPSILON AND CHI(1) ARE DIMENSIONLESS.
 *******************************************************************************

 DYNAMIC FIELD: RUN 10/ 10 - RADIATION WAVELENGTH: 1064.0000 NM

 *******************************************************************************

 ELECTRIC FIELD APPLIED ALONG CARTESIAN DIRECTION X

 *******************************************************************************
 THE NUMBER OF SYMMETRY OPERATORS HAS BEEN REDUCED FROM  4 TO  1

 NEW GRID IN RECIPROCAL SPACE
 *******************************************************************************
 POINTS IN THE IBZ                  14 SHRINKING FACTORS               3  3  3
 *******************************************************************************
 *** K POINTS COORDINATES (OBLIQUE COORDINATES IN UNITS OF SHRINK FAC. )
   1-R(  0  0  0)   2-C(  1  0  0)   3-C(  0  1  2)   4-C(  2  0  1)
   5-C(  0  2  0)   6-C(  1  1  0)   7-C(  1  1  1)   8-C(  1  0  1)
   9-C(  0  1  1)  10-C(  2  1  0)  11-C(  0  0  2)  12-C(  2  1  1)
  13-C(  2  1  2)  14-C(  2  2  1)

 GCALCO - MAX INDICES DIRECT LATTICE VECTOR    14    14    16
 NO.OF VECTORS CREATED 6999 STARS  484 RMAX   218.13098 BOHR
 TTTTTTTTTTTTTTTTTTTTTTTTTTTTTT gordsh1     TELAPSE   100491.46 TCPU    99520.64

 MATRIX SIZE: P(G) 1987736, F(G)  994632, P(G) IRR  996510, F(G) IRR  996510
 MAX G-VECTOR INDEX FOR 1- AND 2-ELECTRON INTEGRALS  59

 TTTTTTTTTTTTTTTTTTTTTTTTTTTTTT INPUT       TELAPSE   100491.58 TCPU    99520.76
 TTTTTTTTTTTTTTTTTTTTTTTTTTTTTT SYMM        TELAPSE   100491.58 TCPU    99520.76

 ***** NEW REFERENCE GEOMETRY *****
 TTTTTTTTTTTTTTTTTTTTTTTTTTTTTT INT_SCREEN  TELAPSE   100491.60 TCPU    99520.77
 INFORMATION **** EXCBUF **** EXCH. BIPO BUFFER: WORDS USED =           0

 DFT PARAMETERS

     ATOM       ELECTRONS   NET CHARGE   R(ANGSTROM)
   1   1  H       1.0000      0.0000     1.11000000
   5   6  C       6.0000      0.0000     0.77000000
  29   7  N       7.0000      0.0000     0.74000000
  49  30  ZN     30.0000      0.0000     1.37000000
  51  35  BR     35.0000      0.0000     1.14000000

 SIZE OF GRID=    1930318
 TTTTTTTTTTTTTTTTTTTTTTTTTTTTTT MAKE_GRID2  TELAPSE   100492.79 TCPU    99521.96
 BECKE WEIGHT FUNCTION
 RADSAFE =     2.00
 TOLERANCES - DENSITY:10**- 6; POTENTIAL:10**- 9; GRID WGT:10**-14

 RADIAL INTEGRATION  - INTERVALS (POINTS,UPPER LIMIT):            1( 75,  4.0*R)

 ANGULAR INTEGRATION - INTERVALS (ACCURACY LEVEL [N. POINTS] UPPER LIMIT):
  1(  4[  86]   0.2)  2(  8[ 194]   0.5)  3( 12[ 350]   0.9)  4( 16[ 974]   3.5)
  5( 12[ 350]9999.0)
 TTTTTTTTTTTTTTTTTTTTTTTTTTTTTT INT_CALC    TELAPSE   100492.84 TCPU    99522.01
 CYCLE   0   ALPHA 2047.552502  EPSILON    5.175622  DELTA    2.0476E+03
 TTTTTTTTTTTTTTTTTTTTTTTTTTTTTT MOQGAD      TELAPSE   100901.35 TCPU    99928.28
 TTTTTTTTTTTTTTTTTTTTTTTTTTTTTT CP_MONMON   TELAPSE   100909.59 TCPU    99936.49
 DIIS TEST: 0.31087E+03 AT CPHF  CYCLE   1 - MIX    0 %
 CYCLE   1   ALPHA  801.803950  EPSILON    2.635138  DELTA   -1.2457E+03
 TTTTTTTTTTTTTTTTTTTTTTTTTTTTTT MOQGAD      TELAPSE   101324.25 TCPU   100348.03
 TTTTTTTTTTTTTTTTTTTTTTTTTTTTTT CP_MONMON   TELAPSE   101332.52 TCPU   100356.27
 DIIS TEST: 0.21628E+04 AT CPHF  CYCLE   2 - DIIS ACTIVE - HISTORY:     2 CYCLES
 CYCLE   2   ALPHA 1500.794276  EPSILON    4.060605  DELTA    6.9899E+02
 TTTTTTTTTTTTTTTTTTTTTTTTTTTTTT MOQGAD      TELAPSE   101748.26 TCPU   100768.65
 TTTTTTTTTTTTTTTTTTTTTTTTTTTTTT CP_MONMON   TELAPSE   101756.51 TCPU   100776.86
 DIIS TEST: 0.77803E+02 AT CPHF  CYCLE   3 - DIIS ACTIVE - HISTORY:     3 CYCLES
 CYCLE   3   ALPHA 1572.364806  EPSILON    4.206561  DELTA    7.1571E+01
 TTTTTTTTTTTTTTTTTTTTTTTTTTTTTT MOQGAD      TELAPSE   102172.17 TCPU   101189.47
 TTTTTTTTTTTTTTTTTTTTTTTTTTTTTT CP_MONMON   TELAPSE   102180.44 TCPU   101197.71
 DIIS TEST: 0.89572E+01 AT CPHF  CYCLE   4 - DIIS ACTIVE - HISTORY:     4 CYCLES
 CYCLE   4   ALPHA 1589.165284  EPSILON    4.240823  DELTA    1.6800E+01
 TTTTTTTTTTTTTTTTTTTTTTTTTTTTTT MOQGAD      TELAPSE   102595.19 TCPU   101609.30
 TTTTTTTTTTTTTTTTTTTTTTTTTTTTTT CP_MONMON   TELAPSE   102603.42 TCPU   101617.48
 DIIS TEST: 0.15999E+01 AT CPHF  CYCLE   5 - DIIS ACTIVE - HISTORY:     5 CYCLES
 CYCLE   5   ALPHA 1593.354103  EPSILON    4.249365  DELTA    4.1888E+00
 TTTTTTTTTTTTTTTTTTTTTTTTTTTTTT MOQGAD      TELAPSE   103019.30 TCPU   102030.23
 TTTTTTTTTTTTTTTTTTTTTTTTTTTTTT CP_MONMON   TELAPSE   103027.55 TCPU   102038.43
 DIIS TEST: 0.13264E+00 AT CPHF  CYCLE   6 - DIIS ACTIVE - HISTORY:     6 CYCLES
 CYCLE   6   ALPHA 1594.732423  EPSILON    4.252176  DELTA    1.3783E+00
 TTTTTTTTTTTTTTTTTTTTTTTTTTTTTT MOQGAD      TELAPSE   103442.85 TCPU   102450.45
 TTTTTTTTTTTTTTTTTTTTTTTTTTTTTT CP_MONMON   TELAPSE   103451.08 TCPU   102458.66
 DIIS TEST: 0.27218E-01 AT CPHF  CYCLE   7 - DIIS ACTIVE - HISTORY:     7 CYCLES
 CYCLE   7   ALPHA 1595.224811  EPSILON    4.253180  DELTA    4.9239E-01
 TTTTTTTTTTTTTTTTTTTTTTTTTTTTTT MOQGAD      TELAPSE   103864.57 TCPU   102868.73
 TTTTTTTTTTTTTTTTTTTTTTTTTTTTTT CP_MONMON   TELAPSE   103872.81 TCPU   102876.94
 DIIS TEST: 0.61413E-02 AT CPHF  CYCLE   8 - DIIS ACTIVE - HISTORY:     8 CYCLES
 CYCLE   8   ALPHA 1595.295776  EPSILON    4.253325  DELTA    7.0965E-02
 TTTTTTTTTTTTTTTTTTTTTTTTTTTTTT MOQGAD      TELAPSE   104285.93 TCPU   103286.87
 TTTTTTTTTTTTTTTTTTTTTTTTTTTTTT CP_MONMON   TELAPSE   104294.17 TCPU   103295.08
 DIIS TEST: 0.38708E-03 AT CPHF  CYCLE   9 - DIIS ACTIVE - HISTORY:     9 CYCLES
 CYCLE   9   ALPHA 1595.270724  EPSILON    4.253273  DELTA   -2.5052E-02
 TTTTTTTTTTTTTTTTTTTTTTTTTTTTTT MOQGAD      TELAPSE   104707.76 TCPU   103705.49
 TTTTTTTTTTTTTTTTTTTTTTTTTTTTTT CP_MONMON   TELAPSE   104716.00 TCPU   103713.70
 DIIS TEST: 0.62000E-04 AT CPHF  CYCLE  10 - DIIS ACTIVE - HISTORY:    10 CYCLES
 CYCLE  10   ALPHA 1595.244125  EPSILON    4.253219  DELTA   -2.6599E-02
 TTTTTTTTTTTTTTTTTTTTTTTTTTTTTT MOQGAD      TELAPSE   105129.03 TCPU   104123.58
 TTTTTTTTTTTTTTTTTTTTTTTTTTTTTT CP_MONMON   TELAPSE   105137.27 TCPU   104131.79
 DIIS TEST: 0.74659E-05 AT CPHF  CYCLE  11 - DIIS ACTIVE - HISTORY:    11 CYCLES
 CYCLE  11   ALPHA 1595.234475  EPSILON    4.253200  DELTA   -9.6499E-03
 TTTTTTTTTTTTTTTTTTTTTTTTTTTTTT MOQGAD      TELAPSE   105552.07 TCPU   104543.38
 TTTTTTTTTTTTTTTTTTTTTTTTTTTTTT CP_MONMON   TELAPSE   105560.32 TCPU   104551.59
 DIIS TEST: 0.10001E-05 AT CPHF  CYCLE  12 - DIIS ACTIVE - HISTORY:    12 CYCLES
 CYCLE  12   ALPHA 1595.232580  EPSILON    4.253196  DELTA   -1.8952E-03
 TTTTTTTTTTTTTTTTTTTTTTTTTTTTTT MOQGAD      TELAPSE   105975.16 TCPU   104963.21
 TTTTTTTTTTTTTTTTTTTTTTTTTTTTTT CP_MONMON   TELAPSE   105983.40 TCPU   104971.42
 DIIS TEST: 0.18225E-06 AT CPHF  CYCLE  13 - DIIS ACTIVE - HISTORY:    13 CYCLES
 CYCLE  13   ALPHA 1595.231844  EPSILON    4.253194  DELTA   -7.3538E-04
 TTTTTTTTTTTTTTTTTTTTTTTTTTTTTT CP_SC       TELAPSE   106007.44 TCPU   104993.85

 *******************************************************************************

 ELECTRIC FIELD APPLIED ALONG CARTESIAN DIRECTION Z

 *******************************************************************************
 THE NUMBER OF SYMMETRY OPERATORS HAS BEEN REDUCED FROM  4 TO  2

 NEW GRID IN RECIPROCAL SPACE
 *******************************************************************************
 POINTS IN THE IBZ                  10 SHRINKING FACTORS               3  3  3
 *******************************************************************************
 *** K POINTS COORDINATES (OBLIQUE COORDINATES IN UNITS OF SHRINK FAC. )
   1-R(  0  0  0)   2-C(  1  0  0)   3-C(  2  0  1)   4-C(  1  1  0)
   5-C(  1  0  1)   6-C(  2  1  0)   7-C(  0  0  2)   8-C(  2  1  1)
   9-C(  2  1  2)  10-C(  2  2  1)

 GCALCO - MAX INDICES DIRECT LATTICE VECTOR    14    14    16
 NO.OF VECTORS CREATED 6999 STARS  484 RMAX   218.13098 BOHR
 TTTTTTTTTTTTTTTTTTTTTTTTTTTTTT gordsh1     TELAPSE   106007.45 TCPU   104993.86

 MATRIX SIZE: P(G) 1987736, F(G)  994632, P(G) IRR  500572, F(G) IRR  500572
 MAX G-VECTOR INDEX FOR 1- AND 2-ELECTRON INTEGRALS  59

 TTTTTTTTTTTTTTTTTTTTTTTTTTTTTT INPUT       TELAPSE   106007.48 TCPU   104993.89
 TTTTTTTTTTTTTTTTTTTTTTTTTTTTTT SYMM        TELAPSE   106007.48 TCPU   104993.89

 ***** NEW REFERENCE GEOMETRY *****
 TTTTTTTTTTTTTTTTTTTTTTTTTTTTTT INT_SCREEN  TELAPSE   106007.49 TCPU   104993.90
 INFORMATION **** EXCBUF **** EXCH. BIPO BUFFER: WORDS USED =           0

 DFT PARAMETERS

     ATOM       ELECTRONS   NET CHARGE   R(ANGSTROM)
   1   1  H       1.0000      0.0000     1.11000000
   5   6  C       6.0000      0.0000     0.77000000
  29   7  N       7.0000      0.0000     0.74000000
  49  30  ZN     30.0000      0.0000     1.37000000
  51  35  BR     35.0000      0.0000     1.14000000

 SIZE OF GRID=     965276
 TTTTTTTTTTTTTTTTTTTTTTTTTTTTTT MAKE_GRID2  TELAPSE   106008.25 TCPU   104994.66
 BECKE WEIGHT FUNCTION
 RADSAFE =     2.00
 TOLERANCES - DENSITY:10**- 6; POTENTIAL:10**- 9; GRID WGT:10**-14

 RADIAL INTEGRATION  - INTERVALS (POINTS,UPPER LIMIT):            1( 75,  4.0*R)

 ANGULAR INTEGRATION - INTERVALS (ACCURACY LEVEL [N. POINTS] UPPER LIMIT):
  1(  4[  86]   0.2)  2(  8[ 194]   0.5)  3( 12[ 350]   0.9)  4( 16[ 974]   3.5)
  5( 12[ 350]9999.0)
 TTTTTTTTTTTTTTTTTTTTTTTTTTTTTT INT_CALC    TELAPSE   106008.29 TCPU   104994.69
 CYCLE   0   ALPHA 1030.950831  EPSILON    3.102443  DELTA    1.0310E+03
 TTTTTTTTTTTTTTTTTTTTTTTTTTTTTT MOQGAD      TELAPSE   106220.98 TCPU   105206.20
 TTTTTTTTTTTTTTTTTTTTTTTTTTTTTT CP_MONMON   TELAPSE   106225.40 TCPU   105210.61
 DIIS TEST: 0.15201E+03 AT CPHF  CYCLE   1 - MIX    0 %
 CYCLE   1   ALPHA  471.809168  EPSILON    1.962172  DELTA   -5.5914E+02
 TTTTTTTTTTTTTTTTTTTTTTTTTTTTTT MOQGAD      TELAPSE   106444.06 TCPU   105427.67
 TTTTTTTTTTTTTTTTTTTTTTTTTTTTTT CP_MONMON   TELAPSE   106448.49 TCPU   105432.07
 DIIS TEST: 0.12834E+04 AT CPHF  CYCLE   2 - DIIS ACTIVE - HISTORY:     2 CYCLES
 CYCLE   2   ALPHA  753.526034  EPSILON    2.536684  DELTA    2.8172E+02
 TTTTTTTTTTTTTTTTTTTTTTTTTTTTTT MOQGAD      TELAPSE   106667.06 TCPU   105648.97
 TTTTTTTTTTTTTTTTTTTTTTTTTTTTTT CP_MONMON   TELAPSE   106671.48 TCPU   105653.37
 DIIS TEST: 0.35462E+02 AT CPHF  CYCLE   3 - DIIS ACTIVE - HISTORY:     3 CYCLES
 CYCLE   3   ALPHA  806.584274  EPSILON    2.644886  DELTA    5.3058E+01
 TTTTTTTTTTTTTTTTTTTTTTTTTTTTTT MOQGAD      TELAPSE   106889.94 TCPU   105870.28
 TTTTTTTTTTTTTTTTTTTTTTTTTTTTTT CP_MONMON   TELAPSE   106894.36 TCPU   105874.68
 DIIS TEST: 0.56941E+01 AT CPHF  CYCLE   4 - DIIS ACTIVE - HISTORY:     4 CYCLES
 CYCLE   4   ALPHA  809.560530  EPSILON    2.650956  DELTA    2.9763E+00
 TTTTTTTTTTTTTTTTTTTTTTTTTTTTTT MOQGAD      TELAPSE   107112.83 TCPU   106091.51
 TTTTTTTTTTTTTTTTTTTTTTTTTTTTTT CP_MONMON   TELAPSE   107117.26 TCPU   106095.89
 DIIS TEST: 0.34576E+00 AT CPHF  CYCLE   5 - DIIS ACTIVE - HISTORY:     5 CYCLES
 CYCLE   5   ALPHA  810.410666  EPSILON    2.652690  DELTA    8.5014E-01
 TTTTTTTTTTTTTTTTTTTTTTTTTTTTTT MOQGAD      TELAPSE   107337.82 TCPU   106314.84
 TTTTTTTTTTTTTTTTTTTTTTTTTTTTTT CP_MONMON   TELAPSE   107342.25 TCPU   106319.24
 DIIS TEST: 0.72168E-01 AT CPHF  CYCLE   6 - DIIS ACTIVE - HISTORY:     6 CYCLES
 CYCLE   6   ALPHA  810.826291  EPSILON    2.653537  DELTA    4.1563E-01
 TTTTTTTTTTTTTTTTTTTTTTTTTTTTTT MOQGAD      TELAPSE   107561.83 TCPU   106537.17
 TTTTTTTTTTTTTTTTTTTTTTTTTTTTTT CP_MONMON   TELAPSE   107566.25 TCPU   106541.58
 DIIS TEST: 0.24805E-01 AT CPHF  CYCLE   7 - DIIS ACTIVE - HISTORY:     7 CYCLES
 CYCLE   7   ALPHA  810.921098  EPSILON    2.653731  DELTA    9.4807E-02
 TTTTTTTTTTTTTTTTTTTTTTTTTTTTTT MOQGAD      TELAPSE   107784.81 TCPU   106758.43
 TTTTTTTTTTTTTTTTTTTTTTTTTTTTTT CP_MONMON   TELAPSE   107789.23 TCPU   106762.83
 DIIS TEST: 0.36360E-01 AT CPHF  CYCLE   8 - DIIS ACTIVE - HISTORY:     8 CYCLES
 CYCLE   8   ALPHA  810.904670  EPSILON    2.653697  DELTA   -1.6428E-02
 TTTTTTTTTTTTTTTTTTTTTTTTTTTTTT MOQGAD      TELAPSE   108007.83 TCPU   106979.74
 TTTTTTTTTTTTTTTTTTTTTTTTTTTTTT CP_MONMON   TELAPSE   108012.26 TCPU   106984.15
 DIIS TEST: 0.37619E-02 AT CPHF  CYCLE   9 - DIIS ACTIVE - HISTORY:     9 CYCLES
 CYCLE   9   ALPHA  810.875515  EPSILON    2.653638  DELTA   -2.9156E-02
 TTTTTTTTTTTTTTTTTTTTTTTTTTTTTT MOQGAD      TELAPSE   108230.97 TCPU   107201.02
 TTTTTTTTTTTTTTTTTTTTTTTTTTTTTT CP_MONMON   TELAPSE   108235.39 TCPU   107205.43
 DIIS TEST: 0.53927E-03 AT CPHF  CYCLE  10 - DIIS ACTIVE - HISTORY:    10 CYCLES
 CYCLE  10   ALPHA  810.865416  EPSILON    2.653617  DELTA   -1.0098E-02
 TTTTTTTTTTTTTTTTTTTTTTTTTTTTTT MOQGAD      TELAPSE   108453.99 TCPU   107422.41
 TTTTTTTTTTTTTTTTTTTTTTTTTTTTTT CP_MONMON   TELAPSE   108458.42 TCPU   107426.81
 DIIS TEST: 0.47023E-03 AT CPHF  CYCLE  11 - DIIS ACTIVE - HISTORY:    11 CYCLES
 CYCLE  11   ALPHA  810.872907  EPSILON    2.653632  DELTA    7.4906E-03
 TTTTTTTTTTTTTTTTTTTTTTTTTTTTTT MOQGAD      TELAPSE   108677.01 TCPU   107643.83
 TTTTTTTTTTTTTTTTTTTTTTTTTTTTTT CP_MONMON   TELAPSE   108681.43 TCPU   107648.23
 DIIS TEST: 0.49086E-03 AT CPHF  CYCLE  12 - DIIS ACTIVE - HISTORY:    12 CYCLES
 CYCLE  12   ALPHA  810.871854  EPSILON    2.653630  DELTA   -1.0528E-03
 TTTTTTTTTTTTTTTTTTTTTTTTTTTTTT MOQGAD      TELAPSE   108900.17 TCPU   107865.42
 TTTTTTTTTTTTTTTTTTTTTTTTTTTTTT CP_MONMON   TELAPSE   108904.59 TCPU   107869.82
 DIIS TEST: 0.73900E-04 AT CPHF  CYCLE  13 - DIIS ACTIVE - HISTORY:    13 CYCLES
 CYCLE  13   ALPHA  810.865832  EPSILON    2.653618  DELTA   -6.0217E-03
 TTTTTTTTTTTTTTTTTTTTTTTTTTTTTT MOQGAD      TELAPSE   109123.45 TCPU   108086.99
 TTTTTTTTTTTTTTTTTTTTTTTTTTTTTT CP_MONMON   TELAPSE   109127.87 TCPU   108091.40
 DIIS TEST: 0.78834E-05 AT CPHF  CYCLE  14 - DIIS ACTIVE - HISTORY:    14 CYCLES
 CYCLE  14   ALPHA  810.861989  EPSILON    2.653610  DELTA   -3.8433E-03
 TTTTTTTTTTTTTTTTTTTTTTTTTTTTTT MOQGAD      TELAPSE   109346.69 TCPU   108308.65
 TTTTTTTTTTTTTTTTTTTTTTTTTTTTTT CP_MONMON   TELAPSE   109351.11 TCPU   108313.05
 DIIS TEST: 0.20464E-05 AT CPHF  CYCLE  15 - DIIS ACTIVE - HISTORY:    15 CYCLES
 CYCLE  15   ALPHA  810.861613  EPSILON    2.653609  DELTA   -3.7600E-04
 TTTTTTTTTTTTTTTTTTTTTTTTTTTTTT CP_SC       TELAPSE   109374.81 TCPU   108335.93

 *******************************************************************************

 POLARIZABILITY (ALPHA), DIELECTRIC (EPSILON) AND FIRST-ORDER ELECTRIC
 SUSCEPTIBILITY (CHI(1)) TENSORS (INDEPENDENT COMPONENTS)

  FR.(eV) COMP.   ALPHA(Re,Im)           EPSILON(Re,Im)                CHI(1)
  1.165   XX    1595.2318       0.0000       4.2532       0.0000       3.2532
  1.165   ZZ     810.8616       0.0000       2.6536       0.0000       1.6536

 DIELECTRIC TENSOR

 TENSOR IN PRINCIPAL AXES SYSTEM
 AA  4.253194E+00 BB  4.253194E+00 CC  2.653609E+00

 REFRACTIVE INDICES 
 AA  1.628990E+00 BB  2.062327E+00 CC  2.062327E+00

 OPTICALLY ANISOTROPIC - UNIAXIAL CRYSTAL

 BIREFRINGENCE =  0.4333 (NEGATIVE) - OBLATE OPTICAL ELLIPSOID

 EPSILON=N**2=1+CHI(1)=1+ALPHA*4*PI/V,   4*PI/V=   0.00204 BOHR**(-3)
 ALPHA IN BOHR**3; EPSILON AND CHI(1) ARE DIMENSIONLESS.
 *******************************************************************************


 GCALCO - MAX INDICES DIRECT LATTICE VECTOR    14    14    16
 NO.OF VECTORS CREATED 6999 STARS  484 RMAX   218.13098 BOHR

 CAPPA:IS1  3;IS2  3;IS3  3; K PTS MONK NET   6; SYMMOPS:K SPACE   8;G SPACE   4

 TTTTTTTTTTTTTTTTTTTTTTTTTTTTTT END         TELAPSE   109374.86 TCPU   108335.93
 EEEEEEEEEE TERMINATION  DATE 09 03 2024 TIME 20:27:20.3
NODE    0 CPU TIME =    108335.930
    TOTAL CPU TIME =   6938748.584
