Loading crystal17/1.0.2/intel/19.0
  Loading requirement: intel/19.0 ompi/4.0.1/intel/19.0
          64 PROCESSORS WORKING

         
 *******************************************************************************
 *                                                                             *
 *                               CRYSTAL17                                     *
 *                      public : 1.0.2 - March 1st, 2018                       *
 *                       HTTP://WWW.CRYSTAL.UNITO.IT                           *
 *                                                                             *
 *                              MAIN AUTHORS                                   *
 *                                                                             *
 *  R. DOVESI(1,11), V.R. SAUNDERS(2), C. ROETTI(1,11), R. ORLANDO(1,11),      *
 *  C.M. ZICOVICH-WILSON(1,3), F. PASCALE(4), B. CIVALLERI(1,11),              *
 *  K. DOLL(5), N.M. HARRISON(2,6), I.J. BUSH(7), Ph. D'ARCO(8),               *
 *  M. LLUNELL(9), M. CAUSA'(10), Y. NOEL(8), L. MASCHIO(1,11), A. ERBA(1,11)  *
 *  M. RE'RAT(14), S. CASASSA(1,11)                                            *
 *                                                                             *
 *        CONTRIBUTIONS TO THE CODE HAVE ALSO BEEN GIVEN BY                    *
 *                                                                             *
 *  M. FERRABONE(1,11), M. DE LA PIERRE(1,11), M. FERRERO(1,11),               *
 *  J. BAIMA(1,11), E. ALBANESE(1,11), M.F. PEINTINGER(12), R. BAST(13),       *
 *  B. KIRTMAN(15), V. LACIVITA(1,11), R. DEMICHELIS(1,16)                     *
 *  G. BRANDEBURG(17), S. SALUSTRO(1,11), G. SANSONE(1,11)                     *
 *  M.T. RUGGIERO(18)                                                          *
 *                                                                             *
 * (1) THEORETICAL CHEMISTRY GROUP - UNIVERSITA' DI TORINO - TORINO (ITALY)    *
 * (2) COMPUTATIONAL SCIENCE & ENGINEERING DEPARTMENT - STFC DARESBURY (UK)    *
 * (3) UNIVERSIDAD AUTONOMA DEL ESTADO DE MORELOS - CUERNAVACA (MEXICO)        *
 * (4) UNIVERSITE' DE LORRAINE - NANCY (FRANCE)                                *
 * (5) UNIVERSITAET STUTTGART- STUTTGART (GERMANY)                             *
 * (6) IMPERIAL COLLEGE - LONDON (UK)                                          *
 * (7) OXFORD E-RESEARCH CENTRE - OXFORD (UK)                                  *
 * (8) UPMC - SORBONNE UNIVERSITES - PARIS (FRANCE)                            *
 * (9) UNIVERSIDAD DE BARCELONA - BARCELONA (SPAIN)                            *
 *(10) UNIVERSITA' DI NAPOLI "FEDERICO II" - NAPOLI (ITALY)                    *
 *(11) NIS - NANOSTRUCTURED INTERFACES AND SURFACES - TORINO (ITALY)           *
 *(12) MPI FUER CHEMISCHE ENERGIEKONVERSION - MUELHEIM AN DER RUHR (GERMANY)   *
 *(13) UNIVERSITY OF TROMSO - TROMSO (NORWAY)                                  *
 *(14) UNIVERSITE' DE PAU ET DES PAYS DE L'ADOUR - PAU (FRANCE)                *
 *(15) UNIVERSITY OF CALIFORNIA SANTA BARBARA - SANTA BARBARA (USA)            *
 *(16) CURTIN UNIVERSITY - PERTH (AUSTRALIA)                                   *
 *(17) UNIVERSITY COLLEGE LONDON - LONDON (UK)                                 *
 *(18) CAMBRIDGE UNIVERSITY - CAMBRIDGE (UK)                                   *
 *                                                                             *
 *******************************************************************************
 EEEEEEEEEE STARTING  DATE 02 04 2024 TIME 17:57:31.6
 Z:\home\sanoj\Downloads\tmp_p\newconn.mol                                       

 CRYSTAL CALCULATION
 (INPUT ACCORDING TO THE INTERNATIONAL TABLES FOR X-RAY CRYSTALLOGRAPHY)
 CRYSTAL FAMILY                       :  TETRAGONAL  
 CRYSTAL CLASS  (GROTH - 1921)        :  TETRAGONAL DISPHENOIDAL              

 SPACE GROUP (NONCENTROSYMMETRIC)     :  I -4            

 LATTICE PARAMETERS  (ANGSTROMS AND DEGREES) - CONVENTIONAL CELL
        A           B           C        ALPHA        BETA       GAMMA
    11.14700    11.14700    12.13000    90.00000    90.00000    90.00000


 NUMBER OF IRREDUCIBLE ATOMS IN THE CONVENTIONAL CELL:   17

 INPUT COORDINATES

 ATOM AT. N.              COORDINATES
   1   6     7.660400000000E-01  6.836500000000E-01  1.183600000000E-01
   2   6     7.500100000000E-01  5.537300000000E-01  1.241900000000E-01
   3   6     6.757300000000E-01  7.678200000000E-01  1.436700000000E-01
   4   6     8.263300000000E-01 -7.193000000000E-02  1.368300000000E-01
   5   6     8.786100000000E-01  7.360200000000E-01  9.977000000000E-02
   6   6     2.933600000000E-01  1.087900000000E-01  1.564300000000E-01
   7   7     8.354800000000E-01  4.796300000000E-01  1.676700000000E-01
   8   7     7.904500000000E-01  3.647000000000E-01  1.618600000000E-01
   9   7     6.543000000000E-01  4.859900000000E-01  9.197000000000E-02
  10   7     6.832200000000E-01  3.681500000000E-01  1.163000000000E-01
  11   7    -9.097000000000E-02  8.506800000000E-01  1.055400000000E-01
  12  30     0.000000000000E+00  5.000000000000E-01  2.500000000000E-01
  13  30     0.000000000000E+00  0.000000000000E+00  5.000000000000E-01
  14  35     5.463700000000E-01  7.381100000000E-01  1.237600000000E-01
  15  35    -1.631000000000E-02  6.562500000000E-01  7.266000000000E-02
  16  35     6.151000000000E-01 -1.334000000000E-02  1.484300000000E-01
  17  35     8.526100000000E-01  5.816000000000E-02  1.230300000000E-01

 *******************************************************************************

 << INFORMATION >>: FROM NOW ON, ALL COORDINATES REFER TO THE PRIMITIVE CELL

 *******************************************************************************

 LATTICE PARAMETERS  (ANGSTROMS AND DEGREES) - PRIMITIVE CELL
       A          B          C        ALPHA      BETA     GAMMA        VOLUME
    9.94545    9.94545    9.94545   111.83212 111.83212 104.84609    753.610269

 COORDINATES OF THE EQUIVALENT ATOMS (FRACTIONAL UNITS)

 N. ATOM EQUIV AT. N.          X                  Y                  Z

   1   1   1    6 C    -1.97990000000E-01 -1.15600000000E-01  4.49690000000E-01
   2   1   2    6 C     4.34710000000E-01  3.52320000000E-01 -4.49690000000E-01
   3   1   3    6 C     1.15600000000E-01 -4.34710000000E-01 -8.23900000000E-02
   4   1   4    6 C    -3.52320000000E-01  1.97990000000E-01  8.23900000000E-02

   5   2   1    6 C    -3.22080000000E-01 -1.25800000000E-01  3.03740000000E-01
   6   2   2    6 C    -4.29540000000E-01  3.74180000000E-01 -3.03740000000E-01
   7   2   3    6 C     1.25800000000E-01  4.29540000000E-01 -1.96280000000E-01
   8   2   4    6 C    -3.74180000000E-01  3.22080000000E-01  1.96280000000E-01

   9   3   1    6 C    -8.85100000000E-02 -1.80600000000E-01  4.43550000000E-01
  10   3   2    6 C     3.75850000000E-01  4.67940000000E-01 -4.43550000000E-01
  11   3   3    6 C     1.80600000000E-01 -3.75850000000E-01  9.20900000000E-02
  12   3   4    6 C    -4.67940000000E-01  8.85100000000E-02 -9.20900000000E-02

  13   4   1    6 C     6.49000000000E-02 -3.68400000000E-02 -2.45600000000E-01
  14   4   2    6 C     2.08760000000E-01  3.10500000000E-01  2.45600000000E-01
  15   4   3    6 C     3.68400000000E-02 -2.08760000000E-01  1.01740000000E-01
  16   4   4    6 C    -3.10500000000E-01 -6.49000000000E-02 -1.01740000000E-01

  17   5   1    6 C    -1.64210000000E-01 -2.16200000000E-02 -3.85370000000E-01
  18   5   2    6 C     3.63750000000E-01  2.21160000000E-01  3.85370000000E-01
  19   5   3    6 C     2.16200000000E-02 -3.63750000000E-01 -1.42590000000E-01
  20   5   4    6 C    -2.21160000000E-01  1.64210000000E-01  1.42590000000E-01

  21   6   1    6 C     2.65220000000E-01  4.49790000000E-01  4.02150000000E-01
  22   6   2    6 C     4.76400000000E-02 -1.36930000000E-01 -4.02150000000E-01
  23   6   3    6 C    -4.49790000000E-01 -4.76400000000E-02 -1.84570000000E-01
  24   6   4    6 C     1.36930000000E-01 -2.65220000000E-01  1.84570000000E-01

  25   7   1    7 N    -3.52700000000E-01  3.15000000000E-03  3.15110000000E-01
  26   7   2    7 N    -3.11960000000E-01  3.32190000000E-01 -3.15110000000E-01
  27   7   3    7 N    -3.15000000000E-03  3.11960000000E-01 -3.55850000000E-01
  28   7   4    7 N    -3.32190000000E-01  3.52700000000E-01  3.55850000000E-01

  29   8   1    7 N    -4.73440000000E-01 -4.76900000000E-02  1.55150000000E-01
  30   8   2    7 N    -2.02840000000E-01  3.71410000000E-01 -1.55150000000E-01
  31   8   3    7 N     4.76900000000E-02  2.02840000000E-01 -4.25750000000E-01
  32   8   4    7 N    -3.71410000000E-01  4.73440000000E-01  4.25750000000E-01

  33   9   1    7 N    -4.22040000000E-01 -2.53730000000E-01  1.40290000000E-01
  34   9   2    7 N    -3.94020000000E-01  4.37670000000E-01 -1.40290000000E-01
  35   9   3    7 N     2.53730000000E-01  3.94020000000E-01 -1.68310000000E-01
  36   9   4    7 N    -4.37670000000E-01  4.22040000000E-01  1.68310000000E-01

  37  10   1    7 N     4.84450000000E-01 -2.00480000000E-01  5.13700000000E-02
  38  10   2    7 N    -2.51850000000E-01  4.33080000000E-01 -5.13700000000E-02
  39  10   3    7 N     2.00480000000E-01  2.51850000000E-01 -3.15070000000E-01
  40  10   4    7 N    -4.33080000000E-01 -4.84450000000E-01  3.15070000000E-01

  41  11   1    7 N    -4.37800000000E-02  1.45700000000E-02 -2.40290000000E-01
  42  11   2    7 N     2.54860000000E-01  1.96510000000E-01  2.40290000000E-01
  43  11   3    7 N    -1.45700000000E-02 -2.54860000000E-01 -5.83500000000E-02
  44  11   4    7 N    -1.96510000000E-01  4.37800000000E-02  5.83500000000E-02

  45  12   1   30 ZN   -2.50000000000E-01  2.50000000000E-01 -5.00000000000E-01

  46  13   1   30 ZN   -5.00000000000E-01 -5.00000000000E-01  0.00000000000E+00

  47  14   1   35 BR   -1.38130000000E-01 -3.29870000000E-01  2.84480000000E-01
  48  14   2   35 BR    3.85650000000E-01 -4.22610000000E-01 -2.84480000000E-01
  49  14   3   35 BR    3.29870000000E-01 -3.85650000000E-01  1.91740000000E-01
  50  14   4   35 BR    4.22610000000E-01  1.38130000000E-01 -1.91740000000E-01

  51  15   1   35 BR   -2.71090000000E-01  5.63500000000E-02 -3.60060000000E-01
  52  15   2   35 BR    4.16410000000E-01  8.89700000000E-02  3.60060000000E-01
  53  15   3   35 BR   -5.63500000000E-02 -4.16410000000E-01 -3.27440000000E-01
  54  15   4   35 BR   -8.89700000000E-02  2.71090000000E-01  3.27440000000E-01

  55  16   1   35 BR    1.35090000000E-01 -2.36470000000E-01 -3.98240000000E-01
  56  16   2   35 BR    1.61770000000E-01 -4.66670000000E-01  3.98240000000E-01
  57  16   3   35 BR    2.36470000000E-01 -1.61770000000E-01  3.71560000000E-01
  58  16   4   35 BR    4.66670000000E-01 -1.35090000000E-01 -3.71560000000E-01

  59  17   1   35 BR    1.81190000000E-01 -2.43600000000E-02 -8.92300000000E-02
  60  17   2   35 BR    6.48700000000E-02  2.70420000000E-01  8.92300000000E-02
  61  17   3   35 BR    2.43600000000E-02 -6.48700000000E-02  2.05550000000E-01
  62  17   4   35 BR   -2.70420000000E-01 -1.81190000000E-01 -2.05550000000E-01

 NUMBER OF SYMMETRY OPERATORS         :    4
 *******************************************************************************
 * GEOMETRY EDITING - INPUT COORDINATES ARE GIVEN IN ANGSTROM         
 *******************************************************************************

 GEOMETRY NOW FULLY CONSISTENT WITH THE GROUP

 GCALCO - MAX INDICES DIRECT LATTICE VECTOR    14    14    15
 NO.OF VECTORS CREATED 6999 STARS  488 RMAX   203.94424 BOHR

 GEOMETRY FOR WAVE FUNCTION - DIMENSIONALITY OF THE SYSTEM    3
 (NON PERIODIC DIRECTION: LATTICE PARAMETER FORMALLY SET TO 500)
 *******************************************************************************
 LATTICE PARAMETERS (ANGSTROMS AND DEGREES) - BOHR = 0.5291772083 ANGSTROM
 PRIMITIVE CELL - CENTRING CODE 6/0 VOLUME=   753.610269 - DENSITY  4.316 g/cm^3
         A              B              C           ALPHA      BETA       GAMMA 
     9.94545270     9.94545270     9.94545270   111.832120 111.832120 104.846091
 *******************************************************************************
 ATOMS IN THE ASYMMETRIC UNIT   17 - ATOMS IN THE UNIT CELL:   62
     ATOM                 X/A                 Y/B                 Z/C    
 *******************************************************************************
      1 T   6 C    -1.979900000000E-01 -1.156000000000E-01  4.496900000000E-01
      2 F   6 C     4.347100000000E-01  3.523200000000E-01 -4.496900000000E-01
      3 F   6 C     1.156000000000E-01 -4.347100000000E-01 -8.239000000000E-02
      4 F   6 C    -3.523200000000E-01  1.979900000000E-01  8.239000000000E-02
      5 T   6 C    -3.220800000000E-01 -1.258000000000E-01  3.037400000000E-01
      6 F   6 C    -4.295400000000E-01  3.741800000000E-01 -3.037400000000E-01
      7 F   6 C     1.258000000000E-01  4.295400000000E-01 -1.962800000000E-01
      8 F   6 C    -3.741800000000E-01  3.220800000000E-01  1.962800000000E-01
      9 T   6 C    -8.851000000000E-02 -1.806000000000E-01  4.435500000000E-01
     10 F   6 C     3.758500000000E-01  4.679400000000E-01 -4.435500000000E-01
     11 F   6 C     1.806000000000E-01 -3.758500000000E-01  9.209000000000E-02
     12 F   6 C    -4.679400000000E-01  8.851000000000E-02 -9.209000000000E-02
     13 T   6 C     6.490000000000E-02 -3.684000000000E-02 -2.456000000000E-01
     14 F   6 C     2.087600000000E-01  3.105000000000E-01  2.456000000000E-01
     15 F   6 C     3.684000000000E-02 -2.087600000000E-01  1.017400000000E-01
     16 F   6 C    -3.105000000000E-01 -6.490000000000E-02 -1.017400000000E-01
     17 T   6 C    -1.642100000000E-01 -2.162000000000E-02 -3.853700000000E-01
     18 F   6 C     3.637500000000E-01  2.211600000000E-01  3.853700000000E-01
     19 F   6 C     2.162000000000E-02 -3.637500000000E-01 -1.425900000000E-01
     20 F   6 C    -2.211600000000E-01  1.642100000000E-01  1.425900000000E-01
     21 T   6 C     2.652200000000E-01  4.497900000000E-01  4.021500000000E-01
     22 F   6 C     4.764000000000E-02 -1.369300000000E-01 -4.021500000000E-01
     23 F   6 C    -4.497900000000E-01 -4.764000000000E-02 -1.845700000000E-01
     24 F   6 C     1.369300000000E-01 -2.652200000000E-01  1.845700000000E-01
     25 T   7 N    -3.527000000000E-01  3.150000000000E-03  3.151100000000E-01
     26 F   7 N    -3.119600000000E-01  3.321900000000E-01 -3.151100000000E-01
     27 F   7 N    -3.150000000000E-03  3.119600000000E-01 -3.558500000000E-01
     28 F   7 N    -3.321900000000E-01  3.527000000000E-01  3.558500000000E-01
     29 T   7 N    -4.734400000000E-01 -4.769000000000E-02  1.551500000000E-01
     30 F   7 N    -2.028400000000E-01  3.714100000000E-01 -1.551500000000E-01
     31 F   7 N     4.769000000000E-02  2.028400000000E-01 -4.257500000000E-01
     32 F   7 N    -3.714100000000E-01  4.734400000000E-01  4.257500000000E-01
     33 T   7 N    -4.220400000000E-01 -2.537300000000E-01  1.402900000000E-01
     34 F   7 N    -3.940200000000E-01  4.376700000000E-01 -1.402900000000E-01
     35 F   7 N     2.537300000000E-01  3.940200000000E-01 -1.683100000000E-01
     36 F   7 N    -4.376700000000E-01  4.220400000000E-01  1.683100000000E-01
     37 T   7 N     4.844500000000E-01 -2.004800000000E-01  5.137000000000E-02
     38 F   7 N    -2.518500000000E-01  4.330800000000E-01 -5.137000000000E-02
     39 F   7 N     2.004800000000E-01  2.518500000000E-01 -3.150700000000E-01
     40 F   7 N    -4.330800000000E-01 -4.844500000000E-01  3.150700000000E-01
     41 T   7 N    -4.378000000000E-02  1.457000000000E-02 -2.402900000000E-01
     42 F   7 N     2.548600000000E-01  1.965100000000E-01  2.402900000000E-01
     43 F   7 N    -1.457000000000E-02 -2.548600000000E-01 -5.835000000000E-02
     44 F   7 N    -1.965100000000E-01  4.378000000000E-02  5.835000000000E-02
     45 T  30 ZN   -2.500000000000E-01  2.500000000000E-01  5.000000000000E-01
     46 T  30 ZN   -5.000000000000E-01 -5.000000000000E-01  0.000000000000E+00
     47 T  35 BR   -1.381300000000E-01 -3.298700000000E-01  2.844800000000E-01
     48 F  35 BR    3.856500000000E-01 -4.226100000000E-01 -2.844800000000E-01
     49 F  35 BR    3.298700000000E-01 -3.856500000000E-01  1.917400000000E-01
     50 F  35 BR    4.226100000000E-01  1.381300000000E-01 -1.917400000000E-01
     51 T  35 BR   -2.710900000000E-01  5.635000000000E-02 -3.600600000000E-01
     52 F  35 BR    4.164100000000E-01  8.897000000000E-02  3.600600000000E-01
     53 F  35 BR   -5.635000000000E-02 -4.164100000000E-01 -3.274400000000E-01
     54 F  35 BR   -8.897000000000E-02  2.710900000000E-01  3.274400000000E-01
     55 T  35 BR    1.350900000000E-01 -2.364700000000E-01 -3.982400000000E-01
     56 F  35 BR    1.617700000000E-01 -4.666700000000E-01  3.982400000000E-01
     57 F  35 BR    2.364700000000E-01 -1.617700000000E-01  3.715600000000E-01
     58 F  35 BR    4.666700000000E-01 -1.350900000000E-01 -3.715600000000E-01
     59 T  35 BR    1.811900000000E-01 -2.436000000000E-02 -8.923000000000E-02
     60 F  35 BR    6.487000000000E-02  2.704200000000E-01  8.923000000000E-02
     61 F  35 BR    2.436000000000E-02 -6.487000000000E-02  2.055500000000E-01
     62 F  35 BR   -2.704200000000E-01 -1.811900000000E-01 -2.055500000000E-01

 TRANSFORMATION MATRIX PRIMITIVE-CRYSTALLOGRAPHIC CELL
  0.0000  1.0000  1.0000  1.0000  0.0000  1.0000  1.0000  1.0000  0.0000

 *******************************************************************************
 CRYSTALLOGRAPHIC CELL (VOLUME=       1507.22053717)
         A              B              C           ALPHA      BETA       GAMMA 
    11.14700000    11.14700000    12.13000000    90.000000  90.000000  90.000000

 COORDINATES IN THE CRYSTALLOGRAPHIC CELL
     ATOM                 X/A                 Y/B                 Z/C    
 *******************************************************************************
      1 T   6 C    -2.339600000000E-01 -3.163500000000E-01  1.183600000000E-01
      2 F   6 C     2.339600000000E-01  3.163500000000E-01  1.183600000000E-01
      3 F   6 C    -3.163500000000E-01  2.339600000000E-01 -1.183600000000E-01
      4 F   6 C     3.163500000000E-01 -2.339600000000E-01 -1.183600000000E-01
      5 T   6 C     2.500100000000E-01  5.373000000000E-02 -3.758100000000E-01
      6 F   6 C    -2.500100000000E-01 -5.373000000000E-02 -3.758100000000E-01
      7 F   6 C     5.373000000000E-02 -2.500100000000E-01  3.758100000000E-01
      8 F   6 C    -5.373000000000E-02  2.500100000000E-01  3.758100000000E-01
      9 T   6 C    -3.242700000000E-01 -2.321800000000E-01  1.436700000000E-01
     10 F   6 C     3.242700000000E-01  2.321800000000E-01  1.436700000000E-01
     11 F   6 C    -2.321800000000E-01  3.242700000000E-01 -1.436700000000E-01
     12 F   6 C     2.321800000000E-01 -3.242700000000E-01 -1.436700000000E-01
     13 T   6 C    -1.736700000000E-01 -7.193000000000E-02  1.368300000000E-01
     14 F   6 C     1.736700000000E-01  7.193000000000E-02  1.368300000000E-01
     15 F   6 C    -7.193000000000E-02  1.736700000000E-01 -1.368300000000E-01
     16 F   6 C     7.193000000000E-02 -1.736700000000E-01 -1.368300000000E-01
     17 T   6 C    -1.213900000000E-01 -2.639800000000E-01  9.977000000000E-02
     18 F   6 C     1.213900000000E-01  2.639800000000E-01  9.977000000000E-02
     19 F   6 C    -2.639800000000E-01  1.213900000000E-01 -9.977000000000E-02
     20 F   6 C     2.639800000000E-01 -1.213900000000E-01 -9.977000000000E-02
     21 T   6 C     2.933600000000E-01  1.087900000000E-01  1.564300000000E-01
     22 F   6 C    -2.933600000000E-01 -1.087900000000E-01  1.564300000000E-01
     23 F   6 C     1.087900000000E-01 -2.933600000000E-01 -1.564300000000E-01
     24 F   6 C    -1.087900000000E-01  2.933600000000E-01 -1.564300000000E-01
     25 T   7 N     3.354800000000E-01 -2.037000000000E-02 -3.323300000000E-01
     26 F   7 N    -3.354800000000E-01  2.037000000000E-02 -3.323300000000E-01
     27 F   7 N    -2.037000000000E-02 -3.354800000000E-01  3.323300000000E-01
     28 F   7 N     2.037000000000E-02  3.354800000000E-01  3.323300000000E-01
     29 T   7 N    -2.095500000000E-01  3.647000000000E-01  1.618600000000E-01
     30 F   7 N     2.095500000000E-01 -3.647000000000E-01  1.618600000000E-01
     31 F   7 N     3.647000000000E-01  2.095500000000E-01 -1.618600000000E-01
     32 F   7 N    -3.647000000000E-01 -2.095500000000E-01 -1.618600000000E-01
     33 T   7 N     1.543000000000E-01 -1.401000000000E-02 -4.080300000000E-01
     34 F   7 N    -1.543000000000E-01  1.401000000000E-02 -4.080300000000E-01
     35 F   7 N    -1.401000000000E-02 -1.543000000000E-01  4.080300000000E-01
     36 F   7 N     1.401000000000E-02  1.543000000000E-01  4.080300000000E-01
     37 T   7 N     1.832200000000E-01 -1.318500000000E-01 -3.837000000000E-01
     38 F   7 N    -1.832200000000E-01  1.318500000000E-01 -3.837000000000E-01
     39 F   7 N    -1.318500000000E-01 -1.832200000000E-01  3.837000000000E-01
     40 F   7 N     1.318500000000E-01  1.832200000000E-01  3.837000000000E-01
     41 T   7 N    -9.097000000000E-02 -1.493200000000E-01  1.055400000000E-01
     42 F   7 N     9.097000000000E-02  1.493200000000E-01  1.055400000000E-01
     43 F   7 N    -1.493200000000E-01  9.097000000000E-02 -1.055400000000E-01
     44 F   7 N     1.493200000000E-01 -9.097000000000E-02 -1.055400000000E-01
     45 T  30 ZN    4.216414969133E-17 -5.000000000000E-01  2.500000000000E-01
     46 T  30 ZN    0.000000000000E+00  0.000000000000E+00 -5.000000000000E-01
     47 T  35 BR    4.637000000000E-02  2.381100000000E-01 -3.762400000000E-01
     48 F  35 BR   -4.637000000000E-02 -2.381100000000E-01 -3.762400000000E-01
     49 F  35 BR    2.381100000000E-01 -4.637000000000E-02  3.762400000000E-01
     50 F  35 BR   -2.381100000000E-01  4.637000000000E-02  3.762400000000E-01
     51 T  35 BR   -1.631000000000E-02 -3.437500000000E-01  7.266000000000E-02
     52 F  35 BR    1.631000000000E-02  3.437500000000E-01  7.266000000000E-02
     53 F  35 BR   -3.437500000000E-01  1.631000000000E-02 -7.266000000000E-02
     54 F  35 BR    3.437500000000E-01 -1.631000000000E-02 -7.266000000000E-02
     55 T  35 BR   -3.849000000000E-01 -1.334000000000E-02  1.484300000000E-01
     56 F  35 BR    3.849000000000E-01  1.334000000000E-02  1.484300000000E-01
     57 F  35 BR   -1.334000000000E-02  3.849000000000E-01 -1.484300000000E-01
     58 F  35 BR    1.334000000000E-02 -3.849000000000E-01 -1.484300000000E-01
     59 T  35 BR   -1.473900000000E-01  5.816000000000E-02  1.230300000000E-01
     60 F  35 BR    1.473900000000E-01 -5.816000000000E-02  1.230300000000E-01
     61 F  35 BR    5.816000000000E-02  1.473900000000E-01 -1.230300000000E-01
     62 F  35 BR   -5.816000000000E-02 -1.473900000000E-01 -1.230300000000E-01

 T = ATOM BELONGING TO THE ASYMMETRIC UNIT

 ****    4 SYMMOPS - TRANSLATORS IN FRACTIONAL UNITS
 **** MATRICES AND TRANSLATORS IN THE CRYSTALLOGRAPHIC REFERENCE FRAME
   V INV                    ROTATION MATRICES                   TRANSLATORS
   1   1  1.00  0.00  0.00  0.00  1.00  0.00  0.00  0.00  1.00  0.00  0.00  0.00
   2   2  0.00  1.00 -1.00  1.00  0.00 -1.00 -0.00  0.00 -1.00  0.00  0.00  0.00
   3   4  0.00 -1.00  0.00  0.00 -1.00  1.00  1.00 -1.00  0.00  0.00  0.00  0.00
   4   3 -1.00  0.00  1.00 -1.00  0.00  0.00 -1.00  1.00 -0.00  0.00  0.00  0.00

 DIRECT LATTICE VECTORS CARTESIAN COMPONENTS (ANGSTROM)
          X                    Y                    Z
  -0.557350000000E+01   0.557350000000E+01   0.606500000000E+01
   0.557350000000E+01  -0.557350000000E+01   0.606500000000E+01
   0.557350000000E+01   0.557350000000E+01  -0.606500000000E+01


 CARTESIAN COORDINATES - PRIMITIVE CELL
 *******************************************************************************
 *      ATOM          X(ANGSTROM)         Y(ANGSTROM)         Z(ANGSTROM)
 *******************************************************************************
    1     6 C    -2.607952120000E+00 -3.526353450000E+00  1.435706800000E+00
    2     6 C     2.607952120000E+00  3.526353450000E+00  1.435706800000E+00
    3     6 C    -3.526353450000E+00  2.607952120000E+00 -1.435706800000E+00
    4     6 C     3.526353450000E+00 -2.607952120000E+00 -1.435706800000E+00
    5     6 C     2.786861470000E+00  5.989283100000E-01 -4.558575300000E+00
    6     6 C    -2.786861470000E+00 -5.989283100000E-01 -4.558575300000E+00
    7     6 C     5.989283100000E-01 -2.786861470000E+00  4.558575300000E+00
    8     6 C    -5.989283100000E-01  2.786861470000E+00  4.558575300000E+00
    9     6 C    -3.614637690000E+00 -2.588110460000E+00  1.742717100000E+00
   10     6 C     3.614637690000E+00  2.588110460000E+00  1.742717100000E+00
   11     6 C    -2.588110460000E+00  3.614637690000E+00 -1.742717100000E+00
   12     6 C     2.588110460000E+00 -3.614637690000E+00 -1.742717100000E+00
   13     6 C    -1.935899490000E+00 -8.018037100000E-01  1.659747900000E+00
   14     6 C     1.935899490000E+00  8.018037100000E-01  1.659747900000E+00
   15     6 C    -8.018037100000E-01  1.935899490000E+00 -1.659747900000E+00
   16     6 C     8.018037100000E-01 -1.935899490000E+00 -1.659747900000E+00
   17     6 C    -1.353134330000E+00 -2.942585060000E+00  1.210210100000E+00
   18     6 C     1.353134330000E+00  2.942585060000E+00  1.210210100000E+00
   19     6 C    -2.942585060000E+00  1.353134330000E+00 -1.210210100000E+00
   20     6 C     2.942585060000E+00 -1.353134330000E+00 -1.210210100000E+00
   21     6 C     3.270083920000E+00  1.212682130000E+00  1.897495900000E+00
   22     6 C    -3.270083920000E+00 -1.212682130000E+00  1.897495900000E+00
   23     6 C     1.212682130000E+00 -3.270083920000E+00 -1.897495900000E+00
   24     6 C    -1.212682130000E+00  3.270083920000E+00 -1.897495900000E+00
   25     7 N     3.739595560000E+00 -2.270643900000E-01 -4.031162900000E+00
   26     7 N    -3.739595560000E+00  2.270643900000E-01 -4.031162900000E+00
   27     7 N    -2.270643900000E-01 -3.739595560000E+00  4.031162900000E+00
   28     7 N     2.270643900000E-01  3.739595560000E+00  4.031162900000E+00
   29     7 N    -2.335853850000E+00  4.065310900000E+00  1.963361800000E+00
   30     7 N     2.335853850000E+00 -4.065310900000E+00  1.963361800000E+00
   31     7 N     4.065310900000E+00  2.335853850000E+00 -1.963361800000E+00
   32     7 N    -4.065310900000E+00 -2.335853850000E+00 -1.963361800000E+00
   33     7 N     1.719982100000E+00 -1.561694700000E-01 -4.949403900000E+00
   34     7 N    -1.719982100000E+00  1.561694700000E-01 -4.949403900000E+00
   35     7 N    -1.561694700000E-01 -1.719982100000E+00  4.949403900000E+00
   36     7 N     1.561694700000E-01  1.719982100000E+00  4.949403900000E+00
   37     7 N     2.042353340000E+00 -1.469731950000E+00 -4.654281000000E+00
   38     7 N    -2.042353340000E+00  1.469731950000E+00 -4.654281000000E+00
   39     7 N    -1.469731950000E+00 -2.042353340000E+00  4.654281000000E+00
   40     7 N     1.469731950000E+00  2.042353340000E+00  4.654281000000E+00
   41     7 N    -1.014042590000E+00 -1.664470040000E+00  1.280200200000E+00
   42     7 N     1.014042590000E+00  1.664470040000E+00  1.280200200000E+00
   43     7 N    -1.664470040000E+00  1.014042590000E+00 -1.280200200000E+00
   44     7 N     1.664470040000E+00 -1.014042590000E+00 -1.280200200000E+00
   45    30 ZN    4.700037766092E-16  5.573500000000E+00 -9.097500000000E+00
   46    30 ZN    0.000000000000E+00  0.000000000000E+00  6.065000000000E+00
   47    35 BR    5.168863900000E-01  2.654212170000E+00 -4.563791200000E+00
   48    35 BR   -5.168863900000E-01 -2.654212170000E+00 -4.563791200000E+00
   49    35 BR    2.654212170000E+00 -5.168863900000E-01  4.563791200000E+00
   50    35 BR   -2.654212170000E+00  5.168863900000E-01  4.563791200000E+00
   51    35 BR   -1.818075700000E-01 -3.831781250000E+00  8.813658000000E-01
   52    35 BR    1.818075700000E-01  3.831781250000E+00  8.813658000000E-01
   53    35 BR   -3.831781250000E+00  1.818075700000E-01 -8.813658000000E-01
   54    35 BR    3.831781250000E+00 -1.818075700000E-01 -8.813658000000E-01
   55    35 BR   -4.290480300000E+00 -1.487009800000E-01  1.800455900000E+00
   56    35 BR    4.290480300000E+00  1.487009800000E-01  1.800455900000E+00
   57    35 BR   -1.487009800000E-01  4.290480300000E+00 -1.800455900000E+00
   58    35 BR    1.487009800000E-01 -4.290480300000E+00 -1.800455900000E+00
   59    35 BR   -1.642956330000E+00  6.483095200000E-01  1.492353900000E+00
   60    35 BR    1.642956330000E+00 -6.483095200000E-01  1.492353900000E+00
   61    35 BR    6.483095200000E-01  1.642956330000E+00 -1.492353900000E+00
   62    35 BR   -6.483095200000E-01 -1.642956330000E+00 -1.492353900000E+00

 *******************************************************************************
 STARTING BASIS SET HANDLING 
 *******************************************************************************

 Loading internal basis set: POB-DZVPP           

 Please cite in your publication:
 Peintinger, M. F., Oliveira, D. V. and Bredow, T. (2013), Generally applicable 
 solid-state Gaussian basis sets, in preparation                                
                                                                                
                    

 *******************************************************************************
 LOCAL ATOMIC FUNCTIONS BASIS SET
 *******************************************************************************
   ATOM   X(AU)   Y(AU)   Z(AU)  N. TYPE  EXPONENT  S COEF   P COEF   D/F/G COEF
 *******************************************************************************
   1 C   -4.928  -6.664   2.713
                                  1 S  
                                         1.238E+03 5.457E-03 0.000E+00 0.000E+00
                                         1.863E+02 4.064E-02 0.000E+00 0.000E+00
                                         4.225E+01 1.803E-01 0.000E+00 0.000E+00
                                         1.168E+01 4.632E-01 0.000E+00 0.000E+00
                                         3.593E+00 4.409E-01 0.000E+00 0.000E+00
                                  2 S  
                                         5.281E+00 1.000E+00 0.000E+00 0.000E+00
                                  3 S  
                                         4.447E-01 1.000E+00 0.000E+00 0.000E+00
                           4-     6 P  
                                         9.468E+00 0.000E+00 3.839E-02 0.000E+00
                                         2.010E+00 0.000E+00 2.112E-01 0.000E+00
                                         5.477E-01 0.000E+00 5.133E-01 0.000E+00
                           7-     9 P  
                                         1.604E-01 0.000E+00 1.000E+00 0.000E+00
                          10-    14 D  
                                         6.070E-01 0.000E+00 0.000E+00 1.000E+00
                          15-    19 D  
                                         2.939E-01 0.000E+00 0.000E+00 1.000E+00
   2 C    4.928   6.664   2.713
   3 C   -6.664   4.928  -2.713
   4 C    6.664  -4.928  -2.713
   5 C    5.266   1.132  -8.614
   6 C   -5.266  -1.132  -8.614
   7 C    1.132  -5.266   8.614
   8 C   -1.132   5.266   8.614
   9 C   -6.831  -4.891   3.293
  10 C    6.831   4.891   3.293
  11 C   -4.891   6.831  -3.293
  12 C    4.891  -6.831  -3.293
  13 C   -3.658  -1.515   3.136
  14 C    3.658   1.515   3.136
  15 C   -1.515   3.658  -3.136
  16 C    1.515  -3.658  -3.136
  17 C   -2.557  -5.561   2.287
  18 C    2.557   5.561   2.287
  19 C   -5.561   2.557  -2.287
  20 C    5.561  -2.557  -2.287
  21 C    6.180   2.292   3.586
  22 C   -6.180  -2.292   3.586
  23 C    2.292  -6.180  -3.586
  24 C   -2.292   6.180  -3.586
  25 N    7.067  -0.429  -7.618
                                457 S  
                                         1.713E+03-5.393E-03 0.000E+00 0.000E+00
                                         2.576E+02-4.022E-02 0.000E+00 0.000E+00
                                         5.846E+01-1.793E-01 0.000E+00 0.000E+00
                                         1.620E+01-4.638E-01 0.000E+00 0.000E+00
                                         5.005E+00-4.417E-01 0.000E+00 0.000E+00
                                458 S  
                                         6.217E-01 1.000E+00 0.000E+00 0.000E+00
                                459 S  
                                         2.921E-01 1.000E+00 0.000E+00 0.000E+00
                         460-   462 P  
                                         1.357E+01 0.000E+00-4.007E-02 0.000E+00
                                         2.926E+00 0.000E+00-2.181E-01 0.000E+00
                                         7.993E-01 0.000E+00-5.129E-01 0.000E+00
                         463-   465 P  
                                         2.244E-01 0.000E+00 1.000E+00 0.000E+00
                         466-   470 D  
                                         3.118E-01 0.000E+00 0.000E+00 1.000E+00
  26 N   -7.067   0.429  -7.618
  27 N   -0.429  -7.067   7.618
  28 N    0.429   7.067   7.618
  29 N   -4.414   7.682   3.710
  30 N    4.414  -7.682   3.710
  31 N    7.682   4.414  -3.710
  32 N   -7.682  -4.414  -3.710
  33 N    3.250  -0.295  -9.353
  34 N   -3.250   0.295  -9.353
  35 N   -0.295  -3.250   9.353
  36 N    0.295   3.250   9.353
  37 N    3.859  -2.777  -8.795
  38 N   -3.859   2.777  -8.795
  39 N   -2.777  -3.859   8.795
  40 N    2.777   3.859   8.795
  41 N   -1.916  -3.145   2.419
  42 N    1.916   3.145   2.419
  43 N   -3.145   1.916  -2.419
  44 N    3.145  -1.916  -2.419
  45 ZN   0.000  10.532 -17.192
                                737 S  
                                         8.200E+04 1.421E-03 0.000E+00 0.000E+00
                                         1.231E+04 1.089E-02 0.000E+00 0.000E+00
                                         2.801E+03 5.406E-02 0.000E+00 0.000E+00
                                         7.910E+02 1.885E-01 0.000E+00 0.000E+00
                                         2.576E+02 3.835E-01 0.000E+00 0.000E+00
                                         8.881E+01 2.972E-01 0.000E+00 0.000E+00
                                738 S  
                                         1.719E+02-1.105E-01 0.000E+00 0.000E+00
                                         2.030E+01 6.461E-01 0.000E+00 0.000E+00
                                         8.346E+00 4.422E-01 0.000E+00 0.000E+00
                                739 S  
                                         1.485E+01-2.271E-01 0.000E+00 0.000E+00
                                         2.450E+00 7.243E-01 0.000E+00 0.000E+00
                                         9.985E-01 4.484E-01 0.000E+00 0.000E+00
                                740 S  
                                         1.493E+00 1.000E+00 0.000E+00 0.000E+00
                                741 S  
                                         1.830E-01 1.000E+00 0.000E+00 0.000E+00
                         742-   744 P  
                                         1.072E+03 0.000E+00 9.277E-03 0.000E+00
                                         2.527E+02 0.000E+00 6.954E-02 0.000E+00
                                         8.010E+01 0.000E+00 2.716E-01 0.000E+00
                                         2.890E+01 0.000E+00 5.340E-01 0.000E+00
                                         1.077E+01 0.000E+00 3.450E-01 0.000E+00
                         745-   747 P  
                                         5.645E+00 0.000E+00 3.413E-01 0.000E+00
                                         2.168E+00 0.000E+00 5.639E-01 0.000E+00
                                         8.054E-01 0.000E+00 2.368E-01 0.000E+00
                         748-   750 P  
                                         2.721E-01 0.000E+00 1.000E+00 0.000E+00
                         751-   755 D  
                                         5.609E+01 0.000E+00 0.000E+00 2.959E-02
                                         1.575E+01 0.000E+00 0.000E+00 1.587E-01
                                         5.312E+00 0.000E+00 0.000E+00 3.798E-01
                                         1.774E+00 0.000E+00 0.000E+00 4.690E-01
                         756-   760 D  
                                         5.073E-01 0.000E+00 0.000E+00 1.000E+00
                         761-   767 F  
                                         2.814E+00 0.000E+00 0.000E+00 1.000E+00
                         768-   774 F  
                                         1.300E+00 0.000E+00 0.000E+00 1.000E+00
  46 ZN   0.000   0.000  11.461
  47 BR   0.977   5.016  -8.624
                                813 S  
                                         1.133E+05 1.428E-03 0.000E+00 0.000E+00
                                         1.701E+04 1.095E-02 0.000E+00 0.000E+00
                                         3.870E+03 5.442E-02 0.000E+00 0.000E+00
                                         1.093E+03 1.905E-01 0.000E+00 0.000E+00
                                         3.564E+02 3.902E-01 0.000E+00 0.000E+00
                                         1.231E+02 3.081E-01 0.000E+00 0.000E+00
                                814 S  
                                         2.367E+02-1.123E-01 0.000E+00 0.000E+00
                                         2.847E+01 6.478E-01 0.000E+00 0.000E+00
                                         1.188E+01 4.424E-01 0.000E+00 0.000E+00
                                815 S  
                                         2.127E+01-2.264E-01 0.000E+00 0.000E+00
                                         3.613E+00 7.382E-01 0.000E+00 0.000E+00
                                         1.663E+00 4.268E-01 0.000E+00 0.000E+00
                                816 S  
                                         3.641E-01 1.000E+00 0.000E+00 0.000E+00
                                817 S  
                                         1.243E-01 1.000E+00 0.000E+00 0.000E+00
                         818-   820 P  
                                         1.560E+03 0.000E+00 8.717E-03 0.000E+00
                                         3.685E+02 0.000E+00 6.624E-02 0.000E+00
                                         1.172E+02 0.000E+00 2.650E-01 0.000E+00
                                         4.265E+01 0.000E+00 5.384E-01 0.000E+00
                                         1.609E+01 0.000E+00 3.658E-01 0.000E+00
                         821-   823 P  
                                         8.635E+00 0.000E+00 3.425E-01 0.000E+00
                                         3.561E+00 0.000E+00 5.750E-01 0.000E+00
                                         1.529E+00 0.000E+00 2.433E-01 0.000E+00
                         824-   826 P  
                                         6.447E-01 0.000E+00 1.000E+00 0.000E+00
                         827-   829 P  
                                         2.103E-01 0.000E+00 1.000E+00 0.000E+00
                         830-   834 D  
                                         1.049E+02 0.000E+00 0.000E+00 2.265E-02
                                         3.028E+01 0.000E+00 0.000E+00 1.346E-01
                                         1.065E+01 0.000E+00 0.000E+00 3.647E-01
                                         3.870E+00 0.000E+00 0.000E+00 4.904E-01
                         835-   839 D  
                                         1.342E+00 0.000E+00 0.000E+00 1.000E+00
                         840-   844 D  
                                         4.101E-01 0.000E+00 0.000E+00 1.000E+00
                         845-   849 D  
                                         1.985E-01 0.000E+00 0.000E+00 1.000E+00
  48 BR  -0.977  -5.016  -8.624
  49 BR   5.016  -0.977   8.624
  50 BR  -5.016   0.977   8.624
  51 BR  -0.344  -7.241   1.666
  52 BR   0.344   7.241   1.666
  53 BR  -7.241   0.344  -1.666
  54 BR   7.241  -0.344  -1.666
  55 BR  -8.108  -0.281   3.402
  56 BR   8.108   0.281   3.402
  57 BR  -0.281   8.108  -3.402
  58 BR   0.281  -8.108  -3.402
  59 BR  -3.105   1.225   2.820
  60 BR   3.105  -1.225   2.820
  61 BR   1.225   3.105  -2.820
  62 BR  -1.225  -3.105  -2.820

 *******************************************************************************
 FINISHED BASIS SET HANDLING 
 *******************************************************************************

 INFORMATION **** SET_MPP **** PCRYSTAL CALCULATION
 INFORMATION **** READM2 **** NEW DEFAULT: FOCK/KS MATRIX MIXING SET TO 30 %
 INFORMATION **** READM2 **** NEW DEFAULT: FULL DIRECT SCF MODE
 INFORMATION **** READM2 **** NEW DEFAULT: COULOMB BIPOLAR BUFFER SET TO 32 Mb
 INFORMATION **** READM2 **** NEW DEFAULT: EXCHANGE BIPOLAR BUFFER SET TO 32 Mb

 *******************************************************************************
 NEW DEFAULT: DFT INTEGRATION GRID INCREASED TO XLGRID
 NEW DEFAULT: DIIS ACCELERATOR ACTIVE
 USE KEYWORD NODIIS TO TURN IT OFF
 *******************************************************************************

 INFORMATION **** DFTD3_INPUT **** PERFORM DISPERSION CORRECTION DFT-D3(BJ) IN THE BECKE-JOHNSON DAMPING SCHEME

 PLEASE CITE:
 (1) DFT-D3 Reference
  S. Grimme, J. Antony, S. Ehrlich, and H. Krieg, J. Chem. Phys. 132 (2010), 154104
 (2) BJ-Damping Reference
  S. Grimme, S. Ehrlich, and L. Goerigk, J. Comput. Chem. 32 (2011), 1456-1465
 (3) General DFT-D Review
  S. Grimme, A. Hansen, J. G. Brandenburg, and C. Bannwarth,
  Chem. Rev. 116 (2016), 5105-5154

 INFORMATION **** TOLINTEG **** COULOMB AND EXCHANGE SERIES TOLERANCES MODIFIED
 INFORMATION **** BIPOSIZE **** COULOMB BIPOLAR BUFFER SET TO   100000000
 INFORMATION **** MAXCYCLE **** MAX NUMBER OF SCF CYCLES SET TO         500
 *******************************************************************************
 N. OF ATOMS PER CELL        62  COULOMB OVERLAP TOL         (T1) 10**  -12
 NUMBER OF SHELLS           520  COULOMB PENETRATION TOL     (T2) 10**  -12
 NUMBER OF AO              1404  EXCHANGE OVERLAP TOL        (T3) 10**   20
 N. OF ELECTRONS PER CELL   904  EXCHANGE PSEUDO OVP (F(G))  (T4) 10**   20
 CORE ELECTRONS PER CELL    572  EXCHANGE PSEUDO OVP (P(G))  (T5) 10**   20
 N. OF SYMMETRY OPERATORS     4  POLE ORDER IN MONO ZONE                  4
 *******************************************************************************
 TYPE OF CALCULATION :  RESTRICTED CLOSED SHELL
 KOHN-SHAM HAMILTONIAN

 (EXCHANGE)[CORRELATION] FUNCTIONAL:(PERDEW-BURKE-ERNZERHOF)[PERDEW-BURKE-ERNZERHOF]


 CAPPA:IS1  3;IS2  3;IS3  3; K PTS MONK NET   6; SYMMOPS:K SPACE   8;G SPACE   4

 *******************************************************************************
 MAX NUMBER OF SCF CYCLES     500  CONVERGENCE ON DELTAP        10**-16
 WEIGHT OF F(I) IN F(I+1)      30% CONVERGENCE ON ENERGY        10**- 6
 SHRINK. FACT.(MONKH.)    3  3  3  NUMBER OF K POINTS IN THE IBZ      6
 SHRINKING FACTOR(GILAT NET)    3  NUMBER OF K POINTS(GILAT NET)      6
 *******************************************************************************
 *** K POINTS COORDINATES (OBLIQUE COORDINATES IN UNITS OF IS =  3)
   1-R(  0  0  0)   2-C(  1  0  0)   3-C(  1  1  0)   4-C(  2  1  0)
   5-C(  2  1  1)   6-C(  2  2  1)

 DIRECT LATTICE VECTORS COMPON. (A.U.)     RECIP. LATTICE VECTORS COMPON. (A.U.) 
        X            Y            Z              X            Y            Z
  -10.5323886   10.5323886   11.4611890      0.0000000    0.2982792    0.2741070
   10.5323886  -10.5323886   11.4611890      0.2982792    0.0000000    0.2741070
   10.5323886   10.5323886  -11.4611890      0.2982792    0.2982792    0.0000000

 DISK SPACE FOR EIGENVECTORS (FTN 10)    21683376 REALS

 SYMMETRY ADAPTION OF THE BLOCH FUNCTIONS ENABLED
 TTTTTTTTTTTTTTTTTTTTTTTTTTTTTT gordsh1     TELAPSE        6.72 TCPU        0.09

 MATRIX SIZE: P(G) 2640112, F(G) 1320854, P(G) IRR  332922, F(G) IRR  332922
 MAX G-VECTOR INDEX FOR 1- AND 2-ELECTRON INTEGRALS  59

 TTTTTTTTTTTTTTTTTTTTTTTTTTTTTT INPUT       TELAPSE        6.91 TCPU        0.28

 NEIGHBORS OF THE NON-EQUIVALENT ATOMS

 N = NUMBER OF NEIGHBORS AT DISTANCE R
    ATOM  N     R/ANG      R/AU   NEIGHBORS (ATOM LABELS AND CELL INDICES)
   1 C    1     1.4022     2.6498   17 C    0 0 0
   1 C    1     1.4100     2.6644    9 C    0 0 0
   1 C    1     1.4609     2.7607    5 C    0 0-1
   1 C    1     2.4505     4.6307   22 C    0 0 0
   1 C    1     2.4559     4.6409   41 N    0 0 0
   1 C    1     2.4757     4.6783   25 N    0 0-1

   5 C    1     1.3642     2.5780   33 N    0 0 0
   5 C    1     1.3668     2.5829   25 N    0 0 0
   5 C    1     1.4609     2.7607    1 C    0 0 1
   5 C    1     2.2006     4.1586   37 N    0 0 0
   5 C    1     2.2027     4.1625   29 N   -1 0 0
   5 C    1     2.5043     4.7325   17 C    0 0 1

   9 C    1     1.4100     2.6644    1 C    0 0 0
   9 C    1     1.4264     2.6954   22 C    0 0 0
   9 C    1     1.4991     2.8329   47 BR   0 0-1
   9 C    1     2.3502     4.4413   17 C    0 0 0
   9 C    1     2.4527     4.6350   13 C    0 0 0
   9 C    1     2.5320     4.7847   55 BR   0 0 0

  13 C    1     1.3184     2.4913   41 N    0 0 0
  13 C    1     1.4161     2.6761   22 C    0 0 0
  13 C    1     1.4888     2.8135   59 BR   0 0 0
  13 C    1     2.2638     4.2779   17 C    0 0 0
  13 C    1     2.4475     4.6252   55 BR   0 0 0
  13 C    1     2.4527     4.6350    9 C    0 0 0

  17 C    1     1.3242     2.5023   41 N    0 0 0
  17 C    1     1.4022     2.6498    1 C    0 0 0
  17 C    1     1.5069     2.8477   51 BR   0 0 0
  17 C    1     2.2638     4.2779   13 C    0 0 0
  17 C    1     2.3502     4.4413    9 C    0 0 0
  17 C    1     2.5043     4.7325    5 C    0 0-1

  21 C    1     1.4161     2.6761   14 C    0 0 0
  21 C    1     1.4264     2.6954   10 C    0 0 0
  21 C    1     1.4774     2.7919   56 BR   0 0 0
  21 C    1     2.3822     4.5017   42 N    0 0 0
  21 C    1     2.4505     4.6307    2 C    0 0 0
  21 C    1     2.5022     4.7286   48 BR   1 1 1

  25 N    1     1.3668     2.5829    5 C    0 0 0
  25 N    1     1.3778     2.6036   29 N   -1 0 0
  25 N    1     2.1005     3.9694   45 ZN   0 1 0
  25 N    1     2.1939     4.1458   37 N    0 0 0
  25 N    1     2.2197     4.1946   33 N    0 0 0
  25 N    1     2.4757     4.6783    1 C    0 0 1

  29 N    1     1.3174     2.4896   37 N    1 0 0
  29 N    1     1.3778     2.6036   25 N    1 0 0
  29 N    1     2.2023     4.1617   33 N    1 0 0
  29 N    1     2.2027     4.1625    5 C    1 0 0
  29 N    1     2.7502     5.1972   52 BR   0 0 0
  29 N    1     2.8983     5.4770    4 C    1 0 0

  33 N    1     1.3642     2.5780    5 C    0 0 0
  33 N    1     1.3844     2.6161   37 N    0 0 0
  33 N    1     2.0560     3.8853   46 ZN  -1-1 0
  33 N    1     2.2023     4.1617   29 N   -1 0 0
  33 N    1     2.2197     4.1946   25 N    0 0 0
  33 N    1     2.5512     4.8210    1 C    0 0 1

  37 N    1     1.3174     2.4896   29 N   -1 0 0
  37 N    1     1.3844     2.6161   33 N    0 0 0
  37 N    1     2.1939     4.1458   25 N    0 0 0
  37 N    1     2.2006     4.1586    5 C    0 0 0
  37 N    1     2.8215     5.3319   48 BR   0 0 0
  37 N    1     2.8847     5.4513   46 ZN  -1-1 0

  41 N    1     1.3184     2.4913   13 C    0 0 0
  41 N    1     1.3242     2.5023   17 C    0 0 0
  41 N    1     2.3556     4.4515   51 BR   0 0 0
  41 N    1     2.3822     4.5017   22 C    0 0 0
  41 N    1     2.4061     4.5469   59 BR   0 0 0
  41 N    1     2.4559     4.6409    1 C    0 0 0

  45 ZN   4     2.1005     3.9694   25 N    0-1 0   26 N    0 0 1   27 N    0-1 1
                                    28 N   -1-1 0
  45 ZN   4     2.7738     5.2417   51 BR   0-1 1   52 BR  -1-1 0   53 BR   0 0 1
                                    54 BR   0-1 0
  45 ZN   4     2.9789     5.6293   29 N   -1-1 0   30 N    0-1 1   31 N    0-1 0
                                    32 N    0 0 1
  45 ZN   4     3.2331     6.1097    5 C    0-1 0    6 C    0 0 1    7 C    0-1 1
                                     8 C   -1-1 0
  45 ZN   4     3.4747     6.5662   17 C    0-1 1   18 C   -1-1 0   19 C    0 0 1
                                    20 C    0-1 0
  45 ZN   4     3.6799     6.9541    1 C    0-1 1    2 C   -1-1 0    3 C    0 0 1
                                     4 C    0-1 0

  46 ZN   4     2.0560     3.8853   33 N    1 1 0   34 N    1 1 0   35 N    0 0 0
                                    36 N    0 0 0
  46 ZN   4     2.8847     5.4513   37 N    1 1 0   38 N    1 1 0   39 N    0 0 0
                                    40 N    0 0 0
  46 ZN   4     3.0928     5.8446   47 BR   1 1 0   48 BR   1 1 0   49 BR   0 0 0
                                    50 BR   0 0 0
  46 ZN   4     3.2241     6.0926    5 C    1 1 0    6 C    1 1 0    7 C    0 0 0
                                     8 C    0 0 0
  46 ZN   4     3.8790     7.3302    1 C    1 1 1    2 C    0 0-1    3 C    0 1 0
                                     4 C    1 0 0
  46 ZN   4     3.9733     7.5084    9 C    1 1 1   10 C    0 0-1   11 C    0 1 0
                                    12 C    1 0 0

  47 BR   1     1.4991     2.8329    9 C    0 0 1
  47 BR   1     2.5022     4.7286   22 C    0 0 1
  47 BR   1     2.5236     4.7690    1 C    0 0 1
  47 BR   1     2.8019     5.2948   36 N   -1-1 0
  47 BR   1     2.8215     5.3319   38 N    0 0 0
  47 BR   1     2.8901     5.4615   55 BR   0 0 1

  51 BR   1     1.5069     2.8477   17 C    0 0 0
  51 BR   1     2.3556     4.4515   41 N    0 0 0
  51 BR   1     2.5073     4.7382    1 C    0 0 0
  51 BR   1     2.7408     5.1793   58 BR   0 0 0
  51 BR   1     2.7502     5.1972   30 N    0 0 0
  51 BR   1     2.7723     5.2388   26 N    0 1 0

  55 BR   1     1.4774     2.7919   22 C    0 0 0
  55 BR   1     2.4475     4.6252   13 C    0 0 0
  55 BR   1     2.5320     4.7847    9 C    0 0 0
  55 BR   1     2.5832     4.8816   56 BR   0-1-1
  55 BR   1     2.7408     5.1793   53 BR   0 0 0
  55 BR   1     2.7820     5.2572   59 BR   0 0 0

  59 BR   1     1.4888     2.8135   13 C    0 0 0
  59 BR   1     2.4061     4.5469   41 N    0 0 0
  59 BR   1     2.5050     4.7337   22 C    0 0 0
  59 BR   1     2.7820     5.2572   55 BR   0 0 0
  59 BR   1     2.7967     5.2849   43 N    0 0 0
  59 BR   1     2.8526     5.3906   42 N    0 0 0


 SYMMETRY ALLOWED INTERNAL DEGREE(S) OF FREEDOM:  45
 TTTTTTTTTTTTTTTTTTTTTTTTTTTTTT SYMM        TELAPSE        7.01 TCPU        0.36
 TTTTTTTTTTTTTTTTTTTTTTTTTTTTTT INT_SCREEN  TELAPSE        7.01 TCPU        0.37
 INFORMATION **** EXCBUF **** EXCH. BIPO BUFFER: WORDS USED =           0

 DFT PARAMETERS

     ATOM       ELECTRONS   NET CHARGE   R(ANGSTROM)
   1   6  C       6.0000      0.0000     0.77000000
  25   7  N       7.0000      0.0000     0.74000000
  45  30  ZN     30.0000      0.0000     1.37000000
  47  35  BR     35.0000      0.0000     1.14000000

 SIZE OF GRID=     452568
 TTTTTTTTTTTTTTTTTTTTTTTTTTTTTT MAKE_GRID2  TELAPSE        7.65 TCPU        1.01
 BECKE WEIGHT FUNCTION
 RADSAFE =     2.00
 TOLERANCES - DENSITY:10**- 6; POTENTIAL:10**- 9; GRID WGT:10**-14

 RADIAL INTEGRATION  - INTERVALS (POINTS,UPPER LIMIT):            1( 75,  4.0*R)

 ANGULAR INTEGRATION - INTERVALS (ACCURACY LEVEL [N. POINTS] UPPER LIMIT):
  1(  4[  86]   0.2)  2(  8[ 194]   0.5)  3( 12[ 350]   0.9)  4( 16[ 974]   3.5)
  5( 12[ 350]9999.0)
 TTTTTTTTTTTTTTTTTTTTTTTTTTTTTT INT_CALC    TELAPSE        7.68 TCPU        1.03
 EEEEEEEEEE INT_CALC TERMINATION  DATE 02 04 2024 TIME 17:57:39.1

 *******************************************************************************
 Z:\home\sanoj\Downloads\tmp_p\newconn.mol                                       
 CRYSTAL - SCF - TYPE OF CALCULATION :  RESTRICTED CLOSED SHELL
 *******************************************************************************

 CAPPA:IS1  3;IS2  3;IS3  3; K PTS MONK NET   6; SYMMOPS:K SPACE   8;G SPACE   4

 TTTTTTTTTTTTTTTTTTTTTTTTTTTTTT SDIK        TELAPSE        7.82 TCPU        1.17

 AAAAAAAAAAAAAAAAAAAAAAAAAAAAAAAAAAAAAAAAAAAAAAAAAAAAAAAAAAAAAAAAAAAAAAAAAAAAAAA
         ATOMIC WAVEFUNCTION(S)


 NUCLEAR CHARGE  6.0  SYMMETRY SPECIES            S    P
 N. ELECTRONS    6.0  NUMBER OF PRIMITIVE GTOS    7    4
                      NUMBER OF CONTRACTED GTOS   3    2
                      NUMBER OF CLOSED SHELLS     2    0
                      OPEN SHELL OCCUPATION       0    2

  ZNUC SCFIT  TOTAL HF ENERGY   KINETIC ENERGY   VIRIAL THEOREM ACCURACY
   6.0   6   -3.750912652E+01  3.905246519E+01 -1.960480378E+00  3.7E-06

 NUCLEAR CHARGE  7.0  SYMMETRY SPECIES            S    P
 N. ELECTRONS    7.0  NUMBER OF PRIMITIVE GTOS    7    4
                      NUMBER OF CONTRACTED GTOS   3    2
                      NUMBER OF CLOSED SHELLS     2    0
                      OPEN SHELL OCCUPATION       0    3

  ZNUC SCFIT  TOTAL HF ENERGY   KINETIC ENERGY   VIRIAL THEOREM ACCURACY
   7.0   9   -5.432196661E+01  5.425066284E+01 -2.001314339E+00  1.2E-06

 NUCLEAR CHARGE 30.0  SYMMETRY SPECIES            S    P    D
 N. ELECTRONS   30.0  NUMBER OF PRIMITIVE GTOS   14    9    5
                      NUMBER OF CONTRACTED GTOS   5    3    2
                      NUMBER OF CLOSED SHELLS     4    2    1
                      OPEN SHELL OCCUPATION       0    0    0

  ZNUC SCFIT  TOTAL HF ENERGY   KINETIC ENERGY   VIRIAL THEOREM ACCURACY
  30.0  10   -1.777404290E+03  1.777325716E+03 -2.000044209E+00  2.5E-06

 NUCLEAR CHARGE 35.0  SYMMETRY SPECIES            S    P    D
 N. ELECTRONS   35.0  NUMBER OF PRIMITIVE GTOS   14   10    7
                      NUMBER OF CONTRACTED GTOS   5    4    4
                      NUMBER OF CLOSED SHELLS     4    2    1
                      OPEN SHELL OCCUPATION       0    5    0

  ZNUC SCFIT  TOTAL HF ENERGY   KINETIC ENERGY   VIRIAL THEOREM ACCURACY
  35.0  13   -2.572060514E+03  2.572021521E+03 -2.000015161E+00  3.6E-06

 AAAAAAAAAAAAAAAAAAAAAAAAAAAAAAAAAAAAAAAAAAAAAAAAAAAAAAAAAAAAAAAAAAAAAAAAAAAAAAA

 TOTAL ATOMIC CHARGES:
   6.0000000   6.0000000   6.0000000   6.0000000   6.0000000   6.0000000
   6.0000000   6.0000000   6.0000000   6.0000000   6.0000000   6.0000000
   6.0000000   6.0000000   6.0000000   6.0000000   6.0000000   6.0000000
   6.0000000   6.0000000   6.0000000   6.0000000   6.0000000   6.0000000
   7.0000000   7.0000000   7.0000000   7.0000000   7.0000000   7.0000000
   7.0000000   7.0000000   7.0000000   7.0000000   7.0000000   7.0000000
   7.0000000   7.0000000   7.0000000   7.0000000   7.0000000   7.0000000
   7.0000000   7.0000000  30.0000000  30.0000000  35.0000000  35.0000000
  35.0000000  35.0000000  35.0000000  35.0000000  35.0000000  35.0000000
  35.0000000  35.0000000  35.0000000  35.0000000  35.0000000  35.0000000
  35.0000000  35.0000000
 TTTTTTTTTTTTTTTTTTTTTTTTTTTTTT MOQGAD      TELAPSE        9.16 TCPU        2.50
 TTTTTTTTTTTTTTTTTTTTTTTTTTTTTT SHELLXN     TELAPSE       41.28 TCPU       25.99
 TTTTTTTTTTTTTTTTTTTTTTTTTTTTTT MONMO3      TELAPSE       42.98 TCPU       27.67
 NUMERICALLY INTEGRATED DENSITY    903.9999884734
 TTTTTTTTTTTTTTTTTTTTTTTTTTTTTT NUMDFT      TELAPSE       43.57 TCPU       28.26
 CYC   0 ETOT(AU) -4.675308772634E+04 DETOT -4.68E+04 tst  0.00E+00 PX  1.00E+00
 TTTTTTTTTTTTTTTTTTTTTTTTTTTTTT DIIS        TELAPSE       43.64 TCPU       28.33
 TTTTTTTTTTTTTTTTTTTTTTTTTTTTTT FDIK        TELAPSE       70.65 TCPU       52.93
 INSULATING STATE
 TOP OF VALENCE BANDS -    BAND    452; K    5; EIG -1.2518223E-01 AU
 TOP OF VALENCE BANDS -    BAND    452; K    1; EIG -1.2801377E-01 AU
 BOTTOM OF VIRTUAL BANDS - BAND    453; K    1; EIG -9.7437883E-02 AU
 INDIRECT ENERGY BAND GAP:   0.7550 eV
 TTTTTTTTTTTTTTTTTTTTTTTTTTTTTT PDIG        TELAPSE       71.84 TCPU       54.12
 TOTAL ATOMIC CHARGES:
   6.1514530   6.1514530   6.1514530   6.1514530   5.4921414   5.4921414
   5.4921414   5.4921414   5.9872427   5.9872427   5.9872427   5.9872427
   5.7217109   5.7217109   5.7217109   5.7217109   5.8659855   5.8659855
   5.8659855   5.8659855   6.1351951   6.1351951   6.1351951   6.1351951
   7.4373327   7.4373327   7.4373327   7.4373327   7.2236381   7.2236381
   7.2236381   7.2236381   7.4466279   7.4466279   7.4466279   7.4466279
   7.1670410   7.1670410   7.1670410   7.1670410   7.6137578   7.6137578
   7.6137578   7.6137578  27.8217969  27.9741483  34.9953335  34.9953335
  34.9953335  34.9953335  34.9380466  34.9380466  34.9380466  34.9380466
  34.9823924  34.9823924  34.9823924  34.9823924  34.8931152  34.8931152
  34.8931152  34.8931152
 TTTTTTTTTTTTTTTTTTTTTTTTTTTTTT MOQGAD      TELAPSE       71.86 TCPU       54.14
 TTTTTTTTTTTTTTTTTTTTTTTTTTTTTT SHELLXN     TELAPSE      103.42 TCPU       83.28
 TTTTTTTTTTTTTTTTTTTTTTTTTTTTTT MONMO3      TELAPSE      105.31 TCPU       85.16
 NUMERICALLY INTEGRATED DENSITY    903.9999793695
 TTTTTTTTTTTTTTTTTTTTTTTTTTTTTT NUMDFT      TELAPSE      106.89 TCPU       86.73
 CYC   1 ETOT(AU) -4.673521504496E+04 DETOT  1.79E+01 tst  0.00E+00 PX  1.00E+00
 TTTTTTTTTTTTTTTTTTTTTTTTTTTTTT DIIS        TELAPSE      107.08 TCPU       86.92
 DIIS TEST: 0.10544E+02 AT SCF   CYCLE   1 - MIX   30 %
 TTTTTTTTTTTTTTTTTTTTTTTTTTTTTT FDIK        TELAPSE      115.94 TCPU       93.54
 POSSIBLY CONDUCTING STATE - EFERMI(AU) -7.1902724E-02 (RES. CHARGE  6.06E-11;IT. 14)
 TTTTTTTTTTTTTTTTTTTTTTTTTTTTTT PDIG        TELAPSE      117.13 TCPU       94.72
 TOTAL ATOMIC CHARGES:
   6.0969587   6.0969587   6.0969587   6.0969587   6.4146039   6.4146039
   6.4146039   6.4146039   6.1988976   6.1988976   6.1988976   6.1988976
   6.1069424   6.1069424   6.1069424   6.1069424   6.2907555   6.2907555
   6.2907555   6.2907555   5.8889823   5.8889823   5.8889823   5.8889823
   7.1692209   7.1692209   7.1692209   7.1692209   6.9552800   6.9552800
   6.9552800   6.9552800   7.0410024   7.0410024   7.0410024   7.0410024
   6.9116357   6.9116357   6.9116357   6.9116357   5.3092183   5.3092183
   5.3092183   5.3092183  30.2910476  29.6007547  35.3069946  35.3069946
  35.3069946  35.3069946  35.2978100  35.2978100  35.2978100  35.2978100
  35.1826435  35.1826435  35.1826435  35.1826435  34.8561035  34.8561035
  34.8561035  34.8561035
 TTTTTTTTTTTTTTTTTTTTTTTTTTTTTT MOQGAD      TELAPSE      117.15 TCPU       94.74
 TTTTTTTTTTTTTTTTTTTTTTTTTTTTTT SHELLXN     TELAPSE      148.64 TCPU      123.88
 TTTTTTTTTTTTTTTTTTTTTTTTTTTTTT MONMO3      TELAPSE      150.83 TCPU      126.07
 NUMERICALLY INTEGRATED DENSITY    903.9999628285
 TTTTTTTTTTTTTTTTTTTTTTTTTTTTTT NUMDFT      TELAPSE      152.37 TCPU      127.60
 CYC   2 ETOT(AU) -4.673059229672E+04 DETOT  4.62E+00 tst  3.37E-02 PX  1.73E+00
 TTTTTTTTTTTTTTTTTTTTTTTTTTTTTT DIIS        TELAPSE      152.58 TCPU      127.80
 DIIS TEST: 0.42055E+02 AT SCF   CYCLE   2 - DIIS ACTIVE - HISTORY:     2 CYCLES
 TTTTTTTTTTTTTTTTTTTTTTTTTTTTTT FDIK        TELAPSE      162.17 TCPU      135.19
 INSULATING STATE
 TOP OF VALENCE BANDS -    BAND    452; K    1; EIG -1.4299310E-01 AU
 BOTTOM OF VIRTUAL BANDS - BAND    453; K    1; EIG -9.3326078E-02 AU
 DIRECT ENERGY BAND GAP:   1.3515 eV
 TTTTTTTTTTTTTTTTTTTTTTTTTTTTTT PDIG        TELAPSE      163.36 TCPU      136.38
 TOTAL ATOMIC CHARGES:
   5.7268264   5.7268264   5.7268264   5.7268264   6.1052444   6.1052444
   6.1052444   6.1052444   5.8796408   5.8796408   5.8796408   5.8796408
   6.1937587   6.1937587   6.1937587   6.1937587   6.0997521   6.0997521
   6.0997521   6.0997521   5.8288569   5.8288569   5.8288569   5.8288569
   6.6712377   6.6712377   6.6712377   6.6712377   7.1230174   7.1230174
   7.1230174   7.1230174   6.9130494   6.9130494   6.9130494   6.9130494
   7.0518011   7.0518011   7.0518011   7.0518011   7.4334850   7.4334850
   7.4334850   7.4334850  29.4291707  29.4341311  35.0574571  35.0574571
  35.0574571  35.0574571  35.0086612  35.0086612  35.0086612  35.0086612
  35.0017277  35.0017277  35.0017277  35.0017277  35.1896586  35.1896586
  35.1896586  35.1896586
 TTTTTTTTTTTTTTTTTTTTTTTTTTTTTT MOQGAD      TELAPSE      163.38 TCPU      136.40
 TTTTTTTTTTTTTTTTTTTTTTTTTTTTTT SHELLXN     TELAPSE      194.99 TCPU      165.56
 TTTTTTTTTTTTTTTTTTTTTTTTTTTTTT MONMO3      TELAPSE      197.21 TCPU      167.77
 NUMERICALLY INTEGRATED DENSITY    903.9999745990
 TTTTTTTTTTTTTTTTTTTTTTTTTTTTTT NUMDFT      TELAPSE      198.74 TCPU      169.29
 CYC   3 ETOT(AU) -4.673526875802E+04 DETOT -4.68E+00 tst  8.66E-01 PX  1.24E+00
 TTTTTTTTTTTTTTTTTTTTTTTTTTTTTT DIIS        TELAPSE      198.93 TCPU      169.48
 DIIS TEST: 0.10629E+02 AT SCF   CYCLE   3 - DIIS ACTIVE - HISTORY:     3 CYCLES
 TTTTTTTTTTTTTTTTTTTTTTTTTTTTTT FDIK        TELAPSE      207.97 TCPU      176.25
 INSULATING STATE
 TOP OF VALENCE BANDS -    BAND    452; K    5; EIG -1.3521126E-01 AU
 TOP OF VALENCE BANDS -    BAND    452; K    1; EIG -1.4914109E-01 AU
 BOTTOM OF VIRTUAL BANDS - BAND    453; K    1; EIG -8.4361651E-02 AU
 INDIRECT ENERGY BAND GAP:   1.3837 eV
 TTTTTTTTTTTTTTTTTTTTTTTTTTTTTT PDIG        TELAPSE      209.15 TCPU      177.43
 TOTAL ATOMIC CHARGES:
   6.1256493   6.1256493   6.1256493   6.1256493   5.7588408   5.7588408
   5.7588408   5.7588408   6.0364316   6.0364316   6.0364316   6.0364316
   5.7137794   5.7137794   5.7137794   5.7137794   5.9601375   5.9601375
   5.9601375   5.9601375   6.0381097   6.0381097   6.0381097   6.0381097
   7.3107342   7.3107342   7.3107342   7.3107342   7.1368488   7.1368488
   7.1368488   7.1368488   7.2068804   7.2068804   7.2068804   7.2068804
   7.0174416   7.0174416   7.0174416   7.0174416   7.0746552   7.0746552
   7.0746552   7.0746552  28.8164778  28.8282708  35.1115544  35.1115544
  35.1115544  35.1115544  35.0368241  35.0368241  35.0368241  35.0368241
  35.1632966  35.1632966  35.1632966  35.1632966  34.8976292  34.8976292
  34.8976292  34.8976292
 TTTTTTTTTTTTTTTTTTTTTTTTTTTTTT MOQGAD      TELAPSE      209.17 TCPU      177.45
 TTTTTTTTTTTTTTTTTTTTTTTTTTTTTT SHELLXN     TELAPSE      240.53 TCPU      206.39
 TTTTTTTTTTTTTTTTTTTTTTTTTTTTTT MONMO3      TELAPSE      243.00 TCPU      208.85
 NUMERICALLY INTEGRATED DENSITY    903.9999793185
 TTTTTTTTTTTTTTTTTTTTTTTTTTTTTT NUMDFT      TELAPSE      244.50 TCPU      210.34
 CYC   4 ETOT(AU) -4.673692878626E+04 DETOT -1.66E+00 tst  1.32E-02 PX  3.73E-01
 TTTTTTTTTTTTTTTTTTTTTTTTTTTTTT DIIS        TELAPSE      244.70 TCPU      210.54
 DIIS TEST: 0.94599E+00 AT SCF   CYCLE   4 - DIIS ACTIVE - HISTORY:     4 CYCLES
 TTTTTTTTTTTTTTTTTTTTTTTTTTTTTT FDIK        TELAPSE      254.15 TCPU      217.78
 INSULATING STATE
 TOP OF VALENCE BANDS -    BAND    452; K    5; EIG -1.2463724E-01 AU
 TOP OF VALENCE BANDS -    BAND    452; K    1; EIG -1.4031055E-01 AU
 BOTTOM OF VIRTUAL BANDS - BAND    453; K    1; EIG -9.0218306E-02 AU
 INDIRECT ENERGY BAND GAP:   0.9366 eV
 TTTTTTTTTTTTTTTTTTTTTTTTTTTTTT PDIG        TELAPSE      255.34 TCPU      218.97
 TOTAL ATOMIC CHARGES:
   6.0481302   6.0481302   6.0481302   6.0481302   5.8391155   5.8391155
   5.8391155   5.8391155   6.0067986   6.0067986   6.0067986   6.0067986
   6.0118528   6.0118528   6.0118528   6.0118528   6.0410768   6.0410768
   6.0410768   6.0410768   5.9396145   5.9396145   5.9396145   5.9396145
   7.1557812   7.1557812   7.1557812   7.1557812   7.1124523   7.1124523
   7.1124523   7.1124523   7.2546406   7.2546406   7.2546406   7.2546406
   7.1272373   7.1272373   7.1272373   7.1272373   7.0013757   7.0013757
   7.0013757   7.0013757  28.8263264  28.7953333  35.1080326  35.1080326
  35.1080326  35.1080326  35.0345425  35.0345425  35.0345425  35.0345425
  34.9627557  34.9627557  34.9627557  34.9627557  34.9511788  34.9511788
  34.9511788  34.9511788
 TTTTTTTTTTTTTTTTTTTTTTTTTTTTTT MOQGAD      TELAPSE      255.36 TCPU      218.99
 TTTTTTTTTTTTTTTTTTTTTTTTTTTTTT SHELLXN     TELAPSE      286.70 TCPU      247.95
 TTTTTTTTTTTTTTTTTTTTTTTTTTTTTT MONMO3      TELAPSE      289.24 TCPU      250.49
 NUMERICALLY INTEGRATED DENSITY    903.9999806427
 TTTTTTTTTTTTTTTTTTTTTTTTTTTTTT NUMDFT      TELAPSE      290.81 TCPU      252.04
 CYC   5 ETOT(AU) -4.673699203985E+04 DETOT -6.33E-02 tst  9.52E-04 PX  8.94E-02
 TTTTTTTTTTTTTTTTTTTTTTTTTTTTTT DIIS        TELAPSE      291.01 TCPU      252.24
 DIIS TEST: 0.52659E+00 AT SCF   CYCLE   5 - DIIS ACTIVE - HISTORY:     5 CYCLES
 TTTTTTTTTTTTTTTTTTTTTTTTTTTTTT FDIK        TELAPSE      301.05 TCPU      259.98
 INSULATING STATE
 TOP OF VALENCE BANDS -    BAND    452; K    5; EIG -1.3418304E-01 AU
 TOP OF VALENCE BANDS -    BAND    452; K    1; EIG -1.4895948E-01 AU
 BOTTOM OF VIRTUAL BANDS - BAND    453; K    1; EIG -8.6118743E-02 AU
 INDIRECT ENERGY BAND GAP:   1.3079 eV
 TTTTTTTTTTTTTTTTTTTTTTTTTTTTTT PDIG        TELAPSE      302.24 TCPU      261.17
 TOTAL ATOMIC CHARGES:
   6.0223165   6.0223165   6.0223165   6.0223165   5.8615639   5.8615639
   5.8615639   5.8615639   6.0112911   6.0112911   6.0112911   6.0112911
   5.8913043   5.8913043   5.8913043   5.8913043   5.9963266   5.9963266
   5.9963266   5.9963266   5.9967692   5.9967692   5.9967692   5.9967692
   7.1920547   7.1920547   7.1920547   7.1920547   7.1694521   7.1694521
   7.1694521   7.1694521   7.1315253   7.1315253   7.1315253   7.1315253
   7.0410618   7.0410618   7.0410618   7.0410618   7.0987568   7.0987568
   7.0987568   7.0987568  28.8606857  28.8336145  35.0844489  35.0844489
  35.0844489  35.0844489  35.0432634  35.0432634  35.0432634  35.0432634
  35.0977550  35.0977550  35.0977550  35.0977550  34.9385355  34.9385355
  34.9385355  34.9385355
 TTTTTTTTTTTTTTTTTTTTTTTTTTTTTT MOQGAD      TELAPSE      302.26 TCPU      261.19
 TTTTTTTTTTTTTTTTTTTTTTTTTTTTTT SHELLXN     TELAPSE      333.46 TCPU      290.15
 TTTTTTTTTTTTTTTTTTTTTTTTTTTTTT MONMO3      TELAPSE      336.11 TCPU      292.80
 NUMERICALLY INTEGRATED DENSITY    903.9999787098
 TTTTTTTTTTTTTTTTTTTTTTTTTTTTTT NUMDFT      TELAPSE      337.66 TCPU      294.34
 CYC   6 ETOT(AU) -4.673706543768E+04 DETOT -7.34E-02 tst  2.36E-04 PX  5.45E-02
 TTTTTTTTTTTTTTTTTTTTTTTTTTTTTT DIIS        TELAPSE      337.86 TCPU      294.53
 DIIS TEST: 0.72136E-01 AT SCF   CYCLE   6 - DIIS ACTIVE - HISTORY:     6 CYCLES
 TTTTTTTTTTTTTTTTTTTTTTTTTTTTTT FDIK        TELAPSE      346.00 TCPU      300.41
 INSULATING STATE
 TOP OF VALENCE BANDS -    BAND    452; K    5; EIG -1.3178794E-01 AU
 TOP OF VALENCE BANDS -    BAND    452; K    1; EIG -1.4728895E-01 AU
 BOTTOM OF VIRTUAL BANDS - BAND    453; K    1; EIG -8.7085862E-02 AU
 INDIRECT ENERGY BAND GAP:   1.2164 eV
 TTTTTTTTTTTTTTTTTTTTTTTTTTTTTT PDIG        TELAPSE      347.20 TCPU      301.60
 TOTAL ATOMIC CHARGES:
   6.0512186   6.0512186   6.0512186   6.0512186   5.8541438   5.8541438
   5.8541438   5.8541438   6.0278951   6.0278951   6.0278951   6.0278951
   5.8610338   5.8610338   5.8610338   5.8610338   5.9932671   5.9932671
   5.9932671   5.9932671   5.9777061   5.9777061   5.9777061   5.9777061
   7.1530082   7.1530082   7.1530082   7.1530082   7.1063566   7.1063566
   7.1063566   7.1063566   7.2034966   7.2034966   7.2034966   7.2034966
   7.0707207   7.0707207   7.0707207   7.0707207   7.1095159   7.1095159
   7.1095159   7.1095159  28.8615228  28.8590251  35.1049490  35.1049490
  35.1049490  35.1049490  35.0285938  35.0285938  35.0285938  35.0285938
  35.0837388  35.0837388  35.0837388  35.0837388  34.9442190  34.9442190
  34.9442190  34.9442190
 TTTTTTTTTTTTTTTTTTTTTTTTTTTTTT MOQGAD      TELAPSE      347.22 TCPU      301.62
 TTTTTTTTTTTTTTTTTTTTTTTTTTTTTT SHELLXN     TELAPSE      378.53 TCPU      330.61
 TTTTTTTTTTTTTTTTTTTTTTTTTTTTTT MONMO3      TELAPSE      381.15 TCPU      333.22
 NUMERICALLY INTEGRATED DENSITY    903.9999784755
 TTTTTTTTTTTTTTTTTTTTTTTTTTTTTT NUMDFT      TELAPSE      382.67 TCPU      334.73
 CYC   7 ETOT(AU) -4.673706957508E+04 DETOT -4.14E-03 tst  4.27E-05 PX  1.99E-02
 TTTTTTTTTTTTTTTTTTTTTTTTTTTTTT DIIS        TELAPSE      382.87 TCPU      334.93
 DIIS TEST: 0.41441E-01 AT SCF   CYCLE   7 - DIIS ACTIVE - HISTORY:     7 CYCLES
 TTTTTTTTTTTTTTTTTTTTTTTTTTTTTT FDIK        TELAPSE      391.83 TCPU      341.56
 INSULATING STATE
 TOP OF VALENCE BANDS -    BAND    452; K    5; EIG -1.3165523E-01 AU
 TOP OF VALENCE BANDS -    BAND    452; K    1; EIG -1.4687739E-01 AU
 BOTTOM OF VIRTUAL BANDS - BAND    453; K    1; EIG -8.6664946E-02 AU
 INDIRECT ENERGY BAND GAP:   1.2242 eV
 TTTTTTTTTTTTTTTTTTTTTTTTTTTTTT PDIG        TELAPSE      393.02 TCPU      342.74
 TOTAL ATOMIC CHARGES:
   6.0461028   6.0461028   6.0461028   6.0461028   5.8431950   5.8431950
   5.8431950   5.8431950   6.0170603   6.0170603   6.0170603   6.0170603
   5.8833887   5.8833887   5.8833887   5.8833887   6.0072627   6.0072627
   6.0072627   6.0072627   5.9738838   5.9738838   5.9738838   5.9738838
   7.1849573   7.1849573   7.1849573   7.1849573   7.1404026   7.1404026
   7.1404026   7.1404026   7.1686534   7.1686534   7.1686534   7.1686534
   7.0531269   7.0531269   7.0531269   7.0531269   7.0998540   7.0998540
   7.0998540   7.0998540  28.8675980  28.8552580  35.0962308  35.0962308
  35.0962308  35.0962308  35.0361787  35.0361787  35.0361787  35.0361787
  35.0685679  35.0685679  35.0685679  35.0685679  34.9504213  34.9504213
  34.9504213  34.9504213
 TTTTTTTTTTTTTTTTTTTTTTTTTTTTTT MOQGAD      TELAPSE      393.04 TCPU      342.76
 TTTTTTTTTTTTTTTTTTTTTTTTTTTTTT SHELLXN     TELAPSE      422.17 TCPU      371.54
 TTTTTTTTTTTTTTTTTTTTTTTTTTTTTT MONMO3      TELAPSE      424.91 TCPU      374.28
 NUMERICALLY INTEGRATED DENSITY    903.9999792262
 TTTTTTTTTTTTTTTTTTTTTTTTTTTTTT NUMDFT      TELAPSE      426.43 TCPU      375.79
 CYC   8 ETOT(AU) -4.673707472171E+04 DETOT -5.15E-03 tst  2.47E-05 PX  1.02E-02
 TTTTTTTTTTTTTTTTTTTTTTTTTTTTTT DIIS        TELAPSE      426.64 TCPU      375.99
 DIIS TEST: 0.71247E-02 AT SCF   CYCLE   8 - DIIS ACTIVE - HISTORY:     8 CYCLES
 TTTTTTTTTTTTTTTTTTTTTTTTTTTTTT FDIK        TELAPSE      435.87 TCPU      382.98
 INSULATING STATE
 TOP OF VALENCE BANDS -    BAND    452; K    5; EIG -1.3241023E-01 AU
 TOP OF VALENCE BANDS -    BAND    452; K    1; EIG -1.4766377E-01 AU
 BOTTOM OF VIRTUAL BANDS - BAND    453; K    1; EIG -8.6850942E-02 AU
 INDIRECT ENERGY BAND GAP:   1.2397 eV
 TTTTTTTTTTTTTTTTTTTTTTTTTTTTTT PDIG        TELAPSE      437.06 TCPU      384.16
 TOTAL ATOMIC CHARGES:
   6.0377072   6.0377072   6.0377072   6.0377072   5.8467249   5.8467249
   5.8467249   5.8467249   6.0157540   6.0157540   6.0157540   6.0157540
   5.8921411   5.8921411   5.8921411   5.8921411   5.9985786   5.9985786
   5.9985786   5.9985786   5.9845663   5.9845663   5.9845663   5.9845663
   7.1662406   7.1662406   7.1662406   7.1662406   7.1377907   7.1377907
   7.1377907   7.1377907   7.1736019   7.1736019   7.1736019   7.1736019
   7.0658457   7.0658457   7.0658457   7.0658457   7.0959476   7.0959476
   7.0959476   7.0959476  28.8622758  28.8522716  35.0974497  35.0974497
  35.0974497  35.0974497  35.0331436  35.0331436  35.0331436  35.0331436
  35.0805742  35.0805742  35.0805742  35.0805742  34.9452971  34.9452971
  34.9452971  34.9452971
 TTTTTTTTTTTTTTTTTTTTTTTTTTTTTT MOQGAD      TELAPSE      437.08 TCPU      384.19
 TTTTTTTTTTTTTTTTTTTTTTTTTTTTTT SHELLXN     TELAPSE      468.70 TCPU      413.46
 TTTTTTTTTTTTTTTTTTTTTTTTTTTTTT MONMO3      TELAPSE      470.98 TCPU      415.72
 NUMERICALLY INTEGRATED DENSITY    903.9999788876
 TTTTTTTTTTTTTTTTTTTTTTTTTTTTTT NUMDFT      TELAPSE      472.51 TCPU      417.23
 CYC   9 ETOT(AU) -4.673707531405E+04 DETOT -5.92E-04 tst  4.99E-06 PX  6.00E-03
 TTTTTTTTTTTTTTTTTTTTTTTTTTTTTT DIIS        TELAPSE      472.71 TCPU      417.43
 DIIS TEST: 0.32916E-02 AT SCF   CYCLE   9 - DIIS ACTIVE - HISTORY:     9 CYCLES
 TTTTTTTTTTTTTTTTTTTTTTTTTTTTTT FDIK        TELAPSE      481.63 TCPU      424.06
 INSULATING STATE
 TOP OF VALENCE BANDS -    BAND    452; K    5; EIG -1.3216973E-01 AU
 TOP OF VALENCE BANDS -    BAND    452; K    1; EIG -1.4739504E-01 AU
 BOTTOM OF VIRTUAL BANDS - BAND    453; K    1; EIG -8.6921007E-02 AU
 INDIRECT ENERGY BAND GAP:   1.2313 eV
 TTTTTTTTTTTTTTTTTTTTTTTTTTTTTT PDIG        TELAPSE      482.82 TCPU      425.24
 TOTAL ATOMIC CHARGES:
   6.0408749   6.0408749   6.0408749   6.0408749   5.8499782   5.8499782
   5.8499782   5.8499782   6.0188210   6.0188210   6.0188210   6.0188210
   5.8880008   5.8880008   5.8880008   5.8880008   6.0010213   6.0010213
   6.0010213   6.0010213   5.9770560   5.9770560   5.9770560   5.9770560
   7.1723827   7.1723827   7.1723827   7.1723827   7.1371279   7.1371279
   7.1371279   7.1371279   7.1742375   7.1742375   7.1742375   7.1742375
   7.0583383   7.0583383   7.0583383   7.0583383   7.1038714   7.1038714
   7.1038714   7.1038714  28.8646151  28.8522430  35.0950756  35.0950756
  35.0950756  35.0950756  35.0335638  35.0335638  35.0335638  35.0335638
  35.0765648  35.0765648  35.0765648  35.0765648  34.9438713  34.9438713
  34.9438713  34.9438713
 TTTTTTTTTTTTTTTTTTTTTTTTTTTTTT MOQGAD      TELAPSE      482.84 TCPU      425.26
 TTTTTTTTTTTTTTTTTTTTTTTTTTTTTT SHELLXN     TELAPSE      513.94 TCPU      454.04
 TTTTTTTTTTTTTTTTTTTTTTTTTTTTTT MONMO3      TELAPSE      516.43 TCPU      456.51
 NUMERICALLY INTEGRATED DENSITY    903.9999789725
 TTTTTTTTTTTTTTTTTTTTTTTTTTTTTT NUMDFT      TELAPSE      517.98 TCPU      458.06
 CYC  10 ETOT(AU) -4.673707569609E+04 DETOT -3.82E-04 tst  1.39E-06 PX  2.77E-03
 TTTTTTTTTTTTTTTTTTTTTTTTTTTTTT DIIS        TELAPSE      518.18 TCPU      458.26
 DIIS TEST: 0.36534E-03 AT SCF   CYCLE  10 - DIIS ACTIVE - HISTORY:    10 CYCLES
 TTTTTTTTTTTTTTTTTTTTTTTTTTTTTT FDIK        TELAPSE      527.59 TCPU      465.26
 INSULATING STATE
 TOP OF VALENCE BANDS -    BAND    452; K    5; EIG -1.3212210E-01 AU
 TOP OF VALENCE BANDS -    BAND    452; K    1; EIG -1.4739543E-01 AU
 BOTTOM OF VIRTUAL BANDS - BAND    453; K    1; EIG -8.6896716E-02 AU
 INDIRECT ENERGY BAND GAP:   1.2306 eV
 TTTTTTTTTTTTTTTTTTTTTTTTTTTTTT PDIG        TELAPSE      528.79 TCPU      466.44
 TOTAL ATOMIC CHARGES:
   6.0402006   6.0402006   6.0402006   6.0402006   5.8456441   5.8456441
   5.8456441   5.8456441   6.0211206   6.0211206   6.0211206   6.0211206
   5.8872675   5.8872675   5.8872675   5.8872675   6.0011032   6.0011032
   6.0011032   6.0011032   5.9785184   5.9785184   5.9785184   5.9785184
   7.1725128   7.1725128   7.1725128   7.1725128   7.1381722   7.1381722
   7.1381722   7.1381722   7.1721988   7.1721988   7.1721988   7.1721988
   7.0619052   7.0619052   7.0619052   7.0619052   7.1010704   7.1010704
   7.1010704   7.1010704  28.8647598  28.8535880  35.0956483  35.0956483
  35.0956483  35.0956483  35.0333144  35.0333144  35.0333144  35.0333144
  35.0754724  35.0754724  35.0754724  35.0754724  34.9462642  34.9462642
  34.9462642  34.9462642
 TTTTTTTTTTTTTTTTTTTTTTTTTTTTTT MOQGAD      TELAPSE      528.81 TCPU      466.47
 TTTTTTTTTTTTTTTTTTTTTTTTTTTTTT SHELLXN     TELAPSE      560.13 TCPU      495.38
 TTTTTTTTTTTTTTTTTTTTTTTTTTTTTT MONMO3      TELAPSE      562.62 TCPU      497.85
 NUMERICALLY INTEGRATED DENSITY    903.9999789871
 TTTTTTTTTTTTTTTTTTTTTTTTTTTTTT NUMDFT      TELAPSE      564.14 TCPU      499.36
 CYC  11 ETOT(AU) -4.673707572976E+04 DETOT -3.37E-05 tst  1.47E-07 PX  1.40E-03
 TTTTTTTTTTTTTTTTTTTTTTTTTTTTTT DIIS        TELAPSE      564.34 TCPU      499.56
 DIIS TEST: 0.12802E-03 AT SCF   CYCLE  11 - DIIS ACTIVE - HISTORY:    11 CYCLES
 TTTTTTTTTTTTTTTTTTTTTTTTTTTTTT FDIK        TELAPSE      573.76 TCPU      506.76
 INSULATING STATE
 TOP OF VALENCE BANDS -    BAND    452; K    5; EIG -1.3222867E-01 AU
 TOP OF VALENCE BANDS -    BAND    452; K    1; EIG -1.4746495E-01 AU
 BOTTOM OF VIRTUAL BANDS - BAND    453; K    1; EIG -8.6895427E-02 AU
 INDIRECT ENERGY BAND GAP:   1.2336 eV
 TTTTTTTTTTTTTTTTTTTTTTTTTTTTTT PDIG        TELAPSE      574.95 TCPU      507.94
 TOTAL ATOMIC CHARGES:
   6.0410411   6.0410411   6.0410411   6.0410411   5.8487846   5.8487846
   5.8487846   5.8487846   6.0184167   6.0184167   6.0184167   6.0184167
   5.8877263   5.8877263   5.8877263   5.8877263   6.0012433   6.0012433
   6.0012433   6.0012433   5.9784454   5.9784454   5.9784454   5.9784454
   7.1720772   7.1720772   7.1720772   7.1720772   7.1373496   7.1373496
   7.1373496   7.1373496   7.1732450   7.1732450   7.1732450   7.1732450
   7.0593278   7.0593278   7.0593278   7.0593278   7.1014925   7.1014925
   7.1014925   7.1014925  28.8638236  28.8520561  35.0955868  35.0955868
  35.0955868  35.0955868  35.0335360  35.0335360  35.0335360  35.0335360
  35.0768496  35.0768496  35.0768496  35.0768496  34.9459082  34.9459082
  34.9459082  34.9459082
 TTTTTTTTTTTTTTTTTTTTTTTTTTTTTT MOQGAD      TELAPSE      574.97 TCPU      507.96
 TTTTTTTTTTTTTTTTTTTTTTTTTTTTTT SHELLXN     TELAPSE      604.14 TCPU      536.75
 TTTTTTTTTTTTTTTTTTTTTTTTTTTTTT MONMO3      TELAPSE      606.84 TCPU      539.44
 NUMERICALLY INTEGRATED DENSITY    903.9999789490
 TTTTTTTTTTTTTTTTTTTTTTTTTTTTTT NUMDFT      TELAPSE      608.39 TCPU      540.98
 CYC  12 ETOT(AU) -4.673707574072E+04 DETOT -1.10E-05 tst  6.58E-08 PX  1.05E-03
 TTTTTTTTTTTTTTTTTTTTTTTTTTTTTT DIIS        TELAPSE      608.61 TCPU      541.20
 DIIS TEST: 0.56615E-04 AT SCF   CYCLE  12 - DIIS ACTIVE - HISTORY:    12 CYCLES
 TTTTTTTTTTTTTTTTTTTTTTTTTTTTTT FDIK        TELAPSE      615.56 TCPU      547.88
 INSULATING STATE
 TOP OF VALENCE BANDS -    BAND    452; K    5; EIG -1.3214978E-01 AU
 TOP OF VALENCE BANDS -    BAND    452; K    1; EIG -1.4740335E-01 AU
 BOTTOM OF VIRTUAL BANDS - BAND    453; K    1; EIG -8.6909555E-02 AU
 INDIRECT ENERGY BAND GAP:   1.2310 eV
 TTTTTTTTTTTTTTTTTTTTTTTTTTTTTT PDIG        TELAPSE      616.76 TCPU      549.07
 TOTAL ATOMIC CHARGES:
   6.0404064   6.0404064   6.0404064   6.0404064   5.8476836   5.8476836
   5.8476836   5.8476836   6.0212452   6.0212452   6.0212452   6.0212452
   5.8876540   5.8876540   5.8876540   5.8876540   6.0014389   6.0014389
   6.0014389   6.0014389   5.9774693   5.9774693   5.9774693   5.9774693
   7.1716969   7.1716969   7.1716969   7.1716969   7.1381898   7.1381898
   7.1381898   7.1381898   7.1720644   7.1720644   7.1720644   7.1720644
   7.0613305   7.0613305   7.0613305   7.0613305   7.1016889   7.1016889
   7.1016889   7.1016889  28.8644890  28.8528798  35.0954085  35.0954085
  35.0954085  35.0954085  35.0333507  35.0333507  35.0333507  35.0333507
  35.0759805  35.0759805  35.0759805  35.0759805  34.9450501  34.9450501
  34.9450501  34.9450501
 TTTTTTTTTTTTTTTTTTTTTTTTTTTTTT MOQGAD      TELAPSE      616.78 TCPU      549.09
 TTTTTTTTTTTTTTTTTTTTTTTTTTTTTT SHELLXN     TELAPSE      645.88 TCPU      577.81
 TTTTTTTTTTTTTTTTTTTTTTTTTTTTTT MONMO3      TELAPSE      648.49 TCPU      580.41
 NUMERICALLY INTEGRATED DENSITY    903.9999790019
 TTTTTTTTTTTTTTTTTTTTTTTTTTTTTT NUMDFT      TELAPSE      650.00 TCPU      581.91
 CYC  13 ETOT(AU) -4.673707574569E+04 DETOT -4.98E-06 tst  4.09E-08 PX  7.43E-04
 TTTTTTTTTTTTTTTTTTTTTTTTTTTTTT DIIS        TELAPSE      650.21 TCPU      582.12
 DIIS TEST: 0.20849E-04 AT SCF   CYCLE  13 - DIIS ACTIVE - HISTORY:    13 CYCLES
 TTTTTTTTTTTTTTTTTTTTTTTTTTTTTT FDIK        TELAPSE      657.83 TCPU      589.48
 INSULATING STATE
 TOP OF VALENCE BANDS -    BAND    452; K    5; EIG -1.3216238E-01 AU
 TOP OF VALENCE BANDS -    BAND    452; K    1; EIG -1.4741155E-01 AU
 BOTTOM OF VIRTUAL BANDS - BAND    453; K    1; EIG -8.6884473E-02 AU
 INDIRECT ENERGY BAND GAP:   1.2321 eV
 TTTTTTTTTTTTTTTTTTTTTTTTTTTTTT PDIG        TELAPSE      659.01 TCPU      590.66
 TOTAL ATOMIC CHARGES:
   6.0405109   6.0405109   6.0405109   6.0405109   5.8471364   5.8471364
   5.8471364   5.8471364   6.0202315   6.0202315   6.0202315   6.0202315
   5.8875774   5.8875774   5.8875774   5.8875774   6.0011159   6.0011159
   6.0011159   6.0011159   5.9780299   5.9780299   5.9780299   5.9780299
   7.1726094   7.1726094   7.1726094   7.1726094   7.1375329   7.1375329
   7.1375329   7.1375329   7.1730551   7.1730551   7.1730551   7.1730551
   7.0604490   7.0604490   7.0604490   7.0604490   7.1014098   7.1014098
   7.1014098   7.1014098  28.8643289  28.8528379  35.0954323  35.0954323
  35.0954323  35.0954323  35.0334646  35.0334646  35.0334646  35.0334646
  35.0762751  35.0762751  35.0762751  35.0762751  34.9458780  34.9458780
  34.9458780  34.9458780
 TTTTTTTTTTTTTTTTTTTTTTTTTTTTTT MOQGAD      TELAPSE      659.04 TCPU      590.68
 TTTTTTTTTTTTTTTTTTTTTTTTTTTTTT SHELLXN     TELAPSE      689.95 TCPU      619.22
 TTTTTTTTTTTTTTTTTTTTTTTTTTTTTT MONMO3      TELAPSE      693.16 TCPU      622.40
[...]

 *******************************************************************************

 ELECTRIC FIELD APPLIED ALONG CARTESIAN DIRECTION X

 *******************************************************************************
 THE NUMBER OF SYMMETRY OPERATORS HAS BEEN REDUCED FROM  4 TO  1

 NEW GRID IN RECIPROCAL SPACE
 *******************************************************************************
 POINTS IN THE IBZ                  14 SHRINKING FACTORS               3  3  3
 *******************************************************************************
 *** K POINTS COORDINATES (OBLIQUE COORDINATES IN UNITS OF SHRINK FAC. )
   1-R(  0  0  0)   2-C(  1  0  0)   3-C(  0  1  2)   4-C(  2  0  1)
   5-C(  0  2  0)   6-C(  1  1  0)   7-C(  1  1  1)   8-C(  1  0  1)
   9-C(  0  1  1)  10-C(  2  1  0)  11-C(  0  0  2)  12-C(  2  1  1)
  13-C(  2  1  2)  14-C(  2  2  1)

 GCALCO - MAX INDICES DIRECT LATTICE VECTOR    14    14    15
 NO.OF VECTORS CREATED 6999 STARS  488 RMAX   203.94424 BOHR
 TTTTTTTTTTTTTTTTTTTTTTTTTTTTTT gordsh1     TELAPSE   207239.86 TCPU   205508.00

 MATRIX SIZE: P(G) 2640112, F(G) 1320854, P(G) IRR 1322772, F(G) IRR 1322772
 MAX G-VECTOR INDEX FOR 1- AND 2-ELECTRON INTEGRALS  59

 TTTTTTTTTTTTTTTTTTTTTTTTTTTTTT INPUT       TELAPSE   207240.08 TCPU   205508.22
 TTTTTTTTTTTTTTTTTTTTTTTTTTTTTT SYMM        TELAPSE   207240.08 TCPU   205508.22

 ***** NEW REFERENCE GEOMETRY *****
 TTTTTTTTTTTTTTTTTTTTTTTTTTTTTT INT_SCREEN  TELAPSE   207240.12 TCPU   205508.26
 INFORMATION **** EXCBUF **** EXCH. BIPO BUFFER: WORDS USED =           0

 DFT PARAMETERS

     ATOM       ELECTRONS   NET CHARGE   R(ANGSTROM)
   1   6  C       6.0000      0.0000     0.77000000
  25   7  N       7.0000      0.0000     0.74000000
  45  30  ZN     30.0000      0.0000     1.37000000
  47  35  BR     35.0000      0.0000     1.14000000

 SIZE OF GRID=    1810046
 TTTTTTTTTTTTTTTTTTTTTTTTTTTTTT MAKE_GRID2  TELAPSE   207258.84 TCPU   205526.85
 BECKE WEIGHT FUNCTION
 RADSAFE =     2.00
 TOLERANCES - DENSITY:10**- 6; POTENTIAL:10**- 9; GRID WGT:10**-14

 RADIAL INTEGRATION  - INTERVALS (POINTS,UPPER LIMIT):            1( 75,  4.0*R)

 ANGULAR INTEGRATION - INTERVALS (ACCURACY LEVEL [N. POINTS] UPPER LIMIT):
  1(  4[  86]   0.2)  2(  8[ 194]   0.5)  3( 12[ 350]   0.9)  4( 16[ 974]   3.5)
  5( 12[ 350]9999.0)
 TTTTTTTTTTTTTTTTTTTTTTTTTTTTTT INT_CALC    TELAPSE   207258.95 TCPU   205526.97
 CYCLE   0   ALPHA 3264.720217  EPSILON    9.067007  DELTA    3.2647E+03
 TTTTTTTTTTTTTTTTTTTTTTTTTTTTTT MOQGAD      TELAPSE   207792.56 TCPU   206058.16
 TTTTTTTTTTTTTTTTTTTTTTTTTTTTTT CP_MONMON   TELAPSE   207800.66 TCPU   206066.23
 DIIS TEST: 0.60978E+03 AT CPHF  CYCLE   1 - MIX    0 %
 CYCLE   1   ALPHA  990.773980  EPSILON    3.448167  DELTA   -2.2739E+03
 TTTTTTTTTTTTTTTTTTTTTTTTTTTTTT MOQGAD      TELAPSE   208338.36 TCPU   206599.51
 TTTTTTTTTTTTTTTTTTTTTTTTTTTTTT CP_MONMON   TELAPSE   208346.48 TCPU   206607.58
 DIIS TEST: 0.68164E+04 AT CPHF  CYCLE   2 - DIIS ACTIVE - HISTORY:     2 CYCLES
 CYCLE   2   ALPHA 2353.303423  EPSILON    6.814928  DELTA    1.3625E+03
 TTTTTTTTTTTTTTTTTTTTTTTTTTTTTT MOQGAD      TELAPSE   208885.72 TCPU   207143.07
 TTTTTTTTTTTTTTTTTTTTTTTTTTTTTT CP_MONMON   TELAPSE   208893.86 TCPU   207151.18
 DIIS TEST: 0.26633E+03 AT CPHF  CYCLE   3 - DIIS ACTIVE - HISTORY:     3 CYCLES
 CYCLE   3   ALPHA 2498.232372  EPSILON    7.173043  DELTA    1.4493E+02
 TTTTTTTTTTTTTTTTTTTTTTTTTTTTTT MOQGAD      TELAPSE   209431.25 TCPU   207684.10
 TTTTTTTTTTTTTTTTTTTTTTTTTTTTTT CP_MONMON   TELAPSE   209439.38 TCPU   207692.15
 DIIS TEST: 0.30273E+02 AT CPHF  CYCLE   4 - DIIS ACTIVE - HISTORY:     4 CYCLES
 CYCLE   4   ALPHA 2539.902327  EPSILON    7.276008  DELTA    4.1670E+01
 TTTTTTTTTTTTTTTTTTTTTTTTTTTTTT MOQGAD      TELAPSE   209981.36 TCPU   208226.88
 TTTTTTTTTTTTTTTTTTTTTTTTTTTTTT CP_MONMON   TELAPSE   209989.50 TCPU   208234.99
 DIIS TEST: 0.81300E+01 AT CPHF  CYCLE   5 - DIIS ACTIVE - HISTORY:     5 CYCLES
 CYCLE   5   ALPHA 2547.302585  EPSILON    7.294293  DELTA    7.4003E+00
 TTTTTTTTTTTTTTTTTTTTTTTTTTTTTT MOQGAD      TELAPSE   210530.46 TCPU   208770.98
 TTTTTTTTTTTTTTTTTTTTTTTTTTTTTT CP_MONMON   TELAPSE   210538.59 TCPU   208779.09
 DIIS TEST: 0.25071E+03 AT CPHF  CYCLE   6 - DIIS ACTIVE - HISTORY:     6 CYCLES
 CYCLE   6   ALPHA 2551.014136  EPSILON    7.303465  DELTA    3.7116E+00
 TTTTTTTTTTTTTTTTTTTTTTTTTTTTTT MOQGAD      TELAPSE   211079.16 TCPU   209314.02
 TTTTTTTTTTTTTTTTTTTTTTTTTTTTTT CP_MONMON   TELAPSE   211087.27 TCPU   209322.10
 DIIS TEST: 0.52616E+00 AT CPHF  CYCLE   7 - DIIS ACTIVE - HISTORY:     7 CYCLES
 CYCLE   7   ALPHA 2553.361417  EPSILON    7.309265  DELTA    2.3473E+00
 TTTTTTTTTTTTTTTTTTTTTTTTTTTTTT MOQGAD      TELAPSE   211628.39 TCPU   209857.89
 TTTTTTTTTTTTTTTTTTTTTTTTTTTTTT CP_MONMON   TELAPSE   211636.53 TCPU   209865.99
 DIIS TEST: 0.29587E-01 AT CPHF  CYCLE   8 - DIIS ACTIVE - HISTORY:     8 CYCLES
 CYCLE   8   ALPHA 2553.940936  EPSILON    7.310697  DELTA    5.7952E-01
 TTTTTTTTTTTTTTTTTTTTTTTTTTTTTT MOQGAD      TELAPSE   212176.15 TCPU   210401.02
 TTTTTTTTTTTTTTTTTTTTTTTTTTTTTT CP_MONMON   TELAPSE   212184.28 TCPU   210409.11
 DIIS TEST: 0.11365E-01 AT CPHF  CYCLE   9 - DIIS ACTIVE - HISTORY:     9 CYCLES
 CYCLE   9   ALPHA 2554.164322  EPSILON    7.311249  DELTA    2.2339E-01
 TTTTTTTTTTTTTTTTTTTTTTTTTTTTTT MOQGAD      TELAPSE   212725.57 TCPU   210943.16
 TTTTTTTTTTTTTTTTTTTTTTTTTTTTTT CP_MONMON   TELAPSE   212733.68 TCPU   210951.24
 DIIS TEST: 0.74202E-03 AT CPHF  CYCLE  10 - DIIS ACTIVE - HISTORY:    10 CYCLES
 CYCLE  10   ALPHA 2554.129787  EPSILON    7.311163  DELTA   -3.4535E-02
 TTTTTTTTTTTTTTTTTTTTTTTTTTTTTT MOQGAD      TELAPSE   213271.51 TCPU   211485.10
 TTTTTTTTTTTTTTTTTTTTTTTTTTTTTT CP_MONMON   TELAPSE   213279.63 TCPU   211493.20
 DIIS TEST: 0.23135E-03 AT CPHF  CYCLE  11 - DIIS ACTIVE - HISTORY:    11 CYCLES
 CYCLE  11   ALPHA 2554.102561  EPSILON    7.311096  DELTA   -2.7226E-02
 TTTTTTTTTTTTTTTTTTTTTTTTTTTTTT MOQGAD      TELAPSE   213821.27 TCPU   212030.55
 TTTTTTTTTTTTTTTTTTTTTTTTTTTTTT CP_MONMON   TELAPSE   213829.39 TCPU   212038.64
 DIIS TEST: 0.43072E-04 AT CPHF  CYCLE  12 - DIIS ACTIVE - HISTORY:    12 CYCLES
 CYCLE  12   ALPHA 2554.081446  EPSILON    7.311044  DELTA   -2.1114E-02
 TTTTTTTTTTTTTTTTTTTTTTTTTTTTTT MOQGAD      TELAPSE   214368.69 TCPU   212572.68
 TTTTTTTTTTTTTTTTTTTTTTTTTTTTTT CP_MONMON   TELAPSE   214376.81 TCPU   212580.76
 DIIS TEST: 0.72086E-05 AT CPHF  CYCLE  13 - DIIS ACTIVE - HISTORY:    13 CYCLES
 CYCLE  13   ALPHA 2554.074577  EPSILON    7.311027  DELTA   -6.8691E-03
 TTTTTTTTTTTTTTTTTTTTTTTTTTTTTT MOQGAD      TELAPSE   214917.74 TCPU   213114.25
 TTTTTTTTTTTTTTTTTTTTTTTTTTTTTT CP_MONMON   TELAPSE   214925.87 TCPU   213122.32
 DIIS TEST: 0.33584E-05 AT CPHF  CYCLE  14 - DIIS ACTIVE - HISTORY:    14 CYCLES
 CYCLE  14   ALPHA 2554.076570  EPSILON    7.311032  DELTA    1.9923E-03
 TTTTTTTTTTTTTTTTTTTTTTTTTTTTTT MOQGAD      TELAPSE   215468.13 TCPU   213657.01
 TTTTTTTTTTTTTTTTTTTTTTTTTTTTTT CP_MONMON   TELAPSE   215476.26 TCPU   213665.10
 DIIS TEST: 0.55609E-06 AT CPHF  CYCLE  15 - DIIS ACTIVE - HISTORY:    15 CYCLES
 CYCLE  15   ALPHA 2554.076606  EPSILON    7.311032  DELTA    3.6170E-05
 TTTTTTTTTTTTTTTTTTTTTTTTTTTTTT CP_SC       TELAPSE   215497.95 TCPU   213683.80

 *******************************************************************************

 ELECTRIC FIELD APPLIED ALONG CARTESIAN DIRECTION Z

 *******************************************************************************
 THE NUMBER OF SYMMETRY OPERATORS HAS BEEN REDUCED FROM  4 TO  2

 NEW GRID IN RECIPROCAL SPACE
 *******************************************************************************
 POINTS IN THE IBZ                  10 SHRINKING FACTORS               3  3  3
 *******************************************************************************
 *** K POINTS COORDINATES (OBLIQUE COORDINATES IN UNITS OF SHRINK FAC. )
   1-R(  0  0  0)   2-C(  1  0  0)   3-C(  2  0  1)   4-C(  1  1  0)
   5-C(  1  0  1)   6-C(  2  1  0)   7-C(  0  0  2)   8-C(  2  1  1)
   9-C(  2  1  2)  10-C(  2  2  1)

 GCALCO - MAX INDICES DIRECT LATTICE VECTOR    14    14    15
 NO.OF VECTORS CREATED 6999 STARS  488 RMAX   203.94424 BOHR
 TTTTTTTTTTTTTTTTTTTTTTTTTTTTTT gordsh1     TELAPSE   215497.96 TCPU   213683.81

 MATRIX SIZE: P(G) 2640112, F(G) 1320854, P(G) IRR  664220, F(G) IRR  664220
 MAX G-VECTOR INDEX FOR 1- AND 2-ELECTRON INTEGRALS  59

 TTTTTTTTTTTTTTTTTTTTTTTTTTTTTT INPUT       TELAPSE   215498.00 TCPU   213683.85
 TTTTTTTTTTTTTTTTTTTTTTTTTTTTTT SYMM        TELAPSE   215498.00 TCPU   213683.85

 ***** NEW REFERENCE GEOMETRY *****
 TTTTTTTTTTTTTTTTTTTTTTTTTTTTTT INT_SCREEN  TELAPSE   215498.01 TCPU   213683.85
 INFORMATION **** EXCBUF **** EXCH. BIPO BUFFER: WORDS USED =           0

 DFT PARAMETERS

     ATOM       ELECTRONS   NET CHARGE   R(ANGSTROM)
   1   6  C       6.0000      0.0000     0.77000000
  25   7  N       7.0000      0.0000     0.74000000
  45  30  ZN     30.0000      0.0000     1.37000000
  47  35  BR     35.0000      0.0000     1.14000000

 SIZE OF GRID=     905136
 TTTTTTTTTTTTTTTTTTTTTTTTTTTTTT MAKE_GRID2  TELAPSE   215498.72 TCPU   213684.56
 BECKE WEIGHT FUNCTION
 RADSAFE =     2.00
 TOLERANCES - DENSITY:10**- 6; POTENTIAL:10**- 9; GRID WGT:10**-14

 RADIAL INTEGRATION  - INTERVALS (POINTS,UPPER LIMIT):            1( 75,  4.0*R)

 ANGULAR INTEGRATION - INTERVALS (ACCURACY LEVEL [N. POINTS] UPPER LIMIT):
  1(  4[  86]   0.2)  2(  8[ 194]   0.5)  3( 12[ 350]   0.9)  4( 16[ 974]   3.5)
  5( 12[ 350]9999.0)
 TTTTTTTTTTTTTTTTTTTTTTTTTTTTTT INT_CALC    TELAPSE   215498.75 TCPU   213684.59
 CYCLE   0   ALPHA 1538.611234  EPSILON    4.801853  DELTA    1.5386E+03
 TTTTTTTTTTTTTTTTTTTTTTTTTTTTTT MOQGAD      TELAPSE   215792.71 TCPU   213977.32
 TTTTTTTTTTTTTTTTTTTTTTTTTTTTTT CP_MONMON   TELAPSE   215797.06 TCPU   213981.65
 DIIS TEST: 0.13614E+03 AT CPHF  CYCLE   1 - MIX    0 %
 CYCLE   1   ALPHA 1040.403356  EPSILON    3.570799  DELTA   -4.9821E+02
 TTTTTTTTTTTTTTTTTTTTTTTTTTTTTT MOQGAD      TELAPSE   216094.37 TCPU   214277.00
 TTTTTTTTTTTTTTTTTTTTTTTTTTTTTT CP_MONMON   TELAPSE   216098.71 TCPU   214281.32
 DIIS TEST: 0.10941E+04 AT CPHF  CYCLE   2 - DIIS ACTIVE - HISTORY:     2 CYCLES
 CYCLE   2   ALPHA 1238.412718  EPSILON    4.060073  DELTA    1.9801E+02
 TTTTTTTTTTTTTTTTTTTTTTTTTTTTTT MOQGAD      TELAPSE   216396.19 TCPU   214576.78
 TTTTTTTTTTTTTTTTTTTTTTTTTTTTTT CP_MONMON   TELAPSE   216400.54 TCPU   214581.11
 DIIS TEST: 0.58918E+04 AT CPHF  CYCLE   3 - DIIS ACTIVE - HISTORY:     3 CYCLES
 CYCLE   3   ALPHA 1239.694029  EPSILON    4.063240  DELTA    1.2813E+00
 TTTTTTTTTTTTTTTTTTTTTTTTTTTTTT MOQGAD      TELAPSE   216699.64 TCPU   214878.23
 TTTTTTTTTTTTTTTTTTTTTTTTTTTTTT CP_MONMON   TELAPSE   216703.98 TCPU   214882.56
 DIIS TEST: 0.94637E+04 AT CPHF  CYCLE   4 - DIIS ACTIVE - HISTORY:     4 CYCLES
 CYCLE   4   ALPHA 1243.207228  EPSILON    4.071921  DELTA    3.5132E+00
 TTTTTTTTTTTTTTTTTTTTTTTTTTTTTT MOQGAD      TELAPSE   217001.12 TCPU   215177.74
 TTTTTTTTTTTTTTTTTTTTTTTTTTTTTT CP_MONMON   TELAPSE   217005.46 TCPU   215182.06
 DIIS TEST: 0.66618E+04 AT CPHF  CYCLE   5 - DIIS ACTIVE - HISTORY:     5 CYCLES
 CYCLE   5   ALPHA 1254.586620  EPSILON    4.100039  DELTA    1.1379E+01
 TTTTTTTTTTTTTTTTTTTTTTTTTTTTTT MOQGAD      TELAPSE   217302.59 TCPU   215477.24
 TTTTTTTTTTTTTTTTTTTTTTTTTTTTTT CP_MONMON   TELAPSE   217306.94 TCPU   215481.57
 DIIS TEST: 0.66447E+04 AT CPHF  CYCLE   6 - DIIS ACTIVE - HISTORY:     6 CYCLES
 CYCLE   6   ALPHA 1263.324653  EPSILON    4.121630  DELTA    8.7380E+00
 TTTTTTTTTTTTTTTTTTTTTTTTTTTTTT MOQGAD      TELAPSE   217604.06 TCPU   215776.66
 TTTTTTTTTTTTTTTTTTTTTTTTTTTTTT CP_MONMON   TELAPSE   217608.39 TCPU   215780.97
 DIIS TEST: 0.77032E+03 AT CPHF  CYCLE   7 - DIIS ACTIVE - HISTORY:     7 CYCLES
 CYCLE   7   ALPHA 1301.326583  EPSILON    4.215531  DELTA    3.8002E+01
 TTTTTTTTTTTTTTTTTTTTTTTTTTTTTT MOQGAD      TELAPSE   217906.13 TCPU   216076.48
 TTTTTTTTTTTTTTTTTTTTTTTTTTTTTT CP_MONMON   TELAPSE   217910.47 TCPU   216080.81
 DIIS TEST: 0.12014E+04 AT CPHF  CYCLE   8 - DIIS ACTIVE - HISTORY:     8 CYCLES
 CYCLE   8   ALPHA 1299.433251  EPSILON    4.210853  DELTA   -1.8933E+00
 TTTTTTTTTTTTTTTTTTTTTTTTTTTTTT MOQGAD      TELAPSE   218207.82 TCPU   216376.21
 TTTTTTTTTTTTTTTTTTTTTTTTTTTTTT CP_MONMON   TELAPSE   218212.16 TCPU   216380.53
 DIIS TEST: 0.94894E+03 AT CPHF  CYCLE   9 - DIIS ACTIVE - HISTORY:     9 CYCLES
 CYCLE   9   ALPHA 1317.210199  EPSILON    4.254779  DELTA    1.7777E+01
 TTTTTTTTTTTTTTTTTTTTTTTTTTTTTT MOQGAD      TELAPSE   218511.38 TCPU   216677.72
 TTTTTTTTTTTTTTTTTTTTTTTTTTTTTT CP_MONMON   TELAPSE   218515.72 TCPU   216682.04
 DIIS TEST: 0.30304E+04 AT CPHF  CYCLE  10 - DIIS ACTIVE - HISTORY:    10 CYCLES
 CYCLE  10   ALPHA 1324.334097  EPSILON    4.272382  DELTA    7.1239E+00
 TTTTTTTTTTTTTTTTTTTTTTTTTTTTTT MOQGAD      TELAPSE   218814.96 TCPU   216979.27
 TTTTTTTTTTTTTTTTTTTTTTTTTTTTTT CP_MONMON   TELAPSE   218819.31 TCPU   216983.60
 DIIS TEST: 0.23916E+04 AT CPHF  CYCLE  11 - DIIS ACTIVE - HISTORY:    11 CYCLES
 CYCLE  11   ALPHA 1326.056237  EPSILON    4.276637  DELTA    1.7221E+00
 TTTTTTTTTTTTTTTTTTTTTTTTTTTTTT MOQGAD      TELAPSE   219096.78 TCPU   217259.13
 TTTTTTTTTTTTTTTTTTTTTTTTTTTTTT CP_MONMON   TELAPSE   219101.12 TCPU   217263.46
 DIIS TEST: 0.66713E+03 AT CPHF  CYCLE  12 - DIIS ACTIVE - HISTORY:    12 CYCLES
 CYCLE  12   ALPHA 1327.035238  EPSILON    4.279057  DELTA    9.7900E-01
 TTTTTTTTTTTTTTTTTTTTTTTTTTTTTT MOQGAD      TELAPSE   219378.82 TCPU   217539.19
 TTTTTTTTTTTTTTTTTTTTTTTTTTTTTT CP_MONMON   TELAPSE   219383.17 TCPU   217543.53
 DIIS TEST: 0.15430E+03 AT CPHF  CYCLE  13 - DIIS ACTIVE - HISTORY:    13 CYCLES
 CYCLE  13   ALPHA 1327.517675  EPSILON    4.280249  DELTA    4.8244E-01
 TTTTTTTTTTTTTTTTTTTTTTTTTTTTTT MOQGAD      TELAPSE   219660.42 TCPU   217818.90
 TTTTTTTTTTTTTTTTTTTTTTTTTTTTTT CP_MONMON   TELAPSE   219664.77 TCPU   217823.23
 DIIS TEST: 0.10547E+03 AT CPHF  CYCLE  14 - DIIS ACTIVE - HISTORY:    14 CYCLES
 CYCLE  14   ALPHA 1327.466247  EPSILON    4.280122  DELTA   -5.1428E-02
 TTTTTTTTTTTTTTTTTTTTTTTTTTTTTT MOQGAD      TELAPSE   219942.26 TCPU   218098.89
 TTTTTTTTTTTTTTTTTTTTTTTTTTTTTT CP_MONMON   TELAPSE   219946.63 TCPU   218103.24
 DIIS TEST: 0.12501E+03 AT CPHF  CYCLE  15 - DIIS ACTIVE - HISTORY:    15 CYCLES
 CYCLE  15   ALPHA 1326.520024  EPSILON    4.277783  DELTA   -9.4622E-01
 TTTTTTTTTTTTTTTTTTTTTTTTTTTTTT MOQGAD      TELAPSE   220224.11 TCPU   218378.95
 TTTTTTTTTTTTTTTTTTTTTTTTTTTTTT CP_MONMON   TELAPSE   220228.52 TCPU   218383.34
 DIIS TEST: 0.91524E+02 AT CPHF  CYCLE  16 - DIIS ACTIVE - HISTORY:    16 CYCLES
 CYCLE  16   ALPHA 1327.184228  EPSILON    4.279425  DELTA    6.6420E-01
 TTTTTTTTTTTTTTTTTTTTTTTTTTTTTT MOQGAD      TELAPSE   220506.06 TCPU   218659.10
 TTTTTTTTTTTTTTTTTTTTTTTTTTTTTT CP_MONMON   TELAPSE   220510.43 TCPU   218663.45
 DIIS TEST: 0.53361E+03 AT CPHF  CYCLE  17 - DIIS ACTIVE - HISTORY:    17 CYCLES
 CYCLE  17   ALPHA 1327.011742  EPSILON    4.278998  DELTA   -1.7249E-01
 TTTTTTTTTTTTTTTTTTTTTTTTTTTTTT MOQGAD      TELAPSE   220788.82 TCPU   218938.78
 TTTTTTTTTTTTTTTTTTTTTTTTTTTTTT CP_MONMON   TELAPSE   220793.20 TCPU   218943.14
 DIIS TEST: 0.38104E+03 AT CPHF  CYCLE  18 - DIIS ACTIVE - HISTORY:    18 CYCLES
 CYCLE  18   ALPHA 1327.442161  EPSILON    4.280062  DELTA    4.3042E-01
 TTTTTTTTTTTTTTTTTTTTTTTTTTTTTT MOQGAD      TELAPSE   221070.89 TCPU   219218.82
 TTTTTTTTTTTTTTTTTTTTTTTTTTTTTT CP_MONMON   TELAPSE   221075.24 TCPU   219223.16
 DIIS TEST: 0.43160E+02 AT CPHF  CYCLE  19 - DIIS ACTIVE - HISTORY:    19 CYCLES
 CYCLE  19   ALPHA 1326.972998  EPSILON    4.278903  DELTA   -4.6916E-01
 TTTTTTTTTTTTTTTTTTTTTTTTTTTTTT MOQGAD      TELAPSE   221353.14 TCPU   219499.04
 TTTTTTTTTTTTTTTTTTTTTTTTTTTTTT CP_MONMON   TELAPSE   221357.53 TCPU   219503.40
 DIIS TEST: 0.25084E+01 AT CPHF  CYCLE  20 - DIIS ACTIVE - HISTORY:    20 CYCLES
 CYCLE  20   ALPHA 1327.112652  EPSILON    4.279248  DELTA    1.3965E-01
 TTTTTTTTTTTTTTTTTTTTTTTTTTTTTT MOQGAD      TELAPSE   221635.04 TCPU   219778.97
 TTTTTTTTTTTTTTTTTTTTTTTTTTTTTT CP_MONMON   TELAPSE   221639.39 TCPU   219783.31
 DIIS TEST: 0.10794E+02 AT CPHF  CYCLE  21 - DIIS ACTIVE - HISTORY:    21 CYCLES
 CYCLE  21   ALPHA 1327.294078  EPSILON    4.279696  DELTA    1.8143E-01
 TTTTTTTTTTTTTTTTTTTTTTTTTTTTTT MOQGAD      TELAPSE   221917.00 TCPU   220059.04
 TTTTTTTTTTTTTTTTTTTTTTTTTTTTTT CP_MONMON   TELAPSE   221921.38 TCPU   220063.41
 DIIS TEST: 0.97072E+01 AT CPHF  CYCLE  22 - DIIS ACTIVE - HISTORY:    22 CYCLES
 CYCLE  22   ALPHA 1327.374545  EPSILON    4.279895  DELTA    8.0467E-02
 TTTTTTTTTTTTTTTTTTTTTTTTTTTTTT MOQGAD      TELAPSE   222198.95 TCPU   220339.00
 TTTTTTTTTTTTTTTTTTTTTTTTTTTTTT CP_MONMON   TELAPSE   222203.34 TCPU   220343.37
 DIIS TEST: 0.54000E+01 AT CPHF  CYCLE  23 - DIIS ACTIVE - HISTORY:    23 CYCLES
 CYCLE  23   ALPHA 1327.409689  EPSILON    4.279982  DELTA    3.5144E-02
 TTTTTTTTTTTTTTTTTTTTTTTTTTTTTT MOQGAD      TELAPSE   222480.63 TCPU   220618.66
 TTTTTTTTTTTTTTTTTTTTTTTTTTTTTT CP_MONMON   TELAPSE   222485.02 TCPU   220623.03
 DIIS TEST: 0.20047E+01 AT CPHF  CYCLE  24 - DIIS ACTIVE - HISTORY:    24 CYCLES
 CYCLE  24   ALPHA 1327.387679  EPSILON    4.279927  DELTA   -2.2010E-02
 TTTTTTTTTTTTTTTTTTTTTTTTTTTTTT MOQGAD      TELAPSE   222762.08 TCPU   220898.11
 TTTTTTTTTTTTTTTTTTTTTTTTTTTTTT CP_MONMON   TELAPSE   222766.48 TCPU   220902.49
 DIIS TEST: 0.12266E+00 AT CPHF  CYCLE  25 - DIIS ACTIVE - HISTORY:    25 CYCLES
 CYCLE  25   ALPHA 1327.377428  EPSILON    4.279902  DELTA   -1.0251E-02
 TTTTTTTTTTTTTTTTTTTTTTTTTTTTTT MOQGAD      TELAPSE   223043.59 TCPU   221177.66
 TTTTTTTTTTTTTTTTTTTTTTTTTTTTTT CP_MONMON   TELAPSE   223047.98 TCPU   221182.03
 DIIS TEST: 0.28661E-01 AT CPHF  CYCLE  26 - DIIS ACTIVE - HISTORY:    26 CYCLES
 CYCLE  26   ALPHA 1327.375112  EPSILON    4.279896  DELTA   -2.3161E-03
 TTTTTTTTTTTTTTTTTTTTTTTTTTTTTT MOQGAD      TELAPSE   223324.86 TCPU   221457.01
 TTTTTTTTTTTTTTTTTTTTTTTTTTTTTT CP_MONMON   TELAPSE   223329.26 TCPU   221461.38
 DIIS TEST: 0.47573E-02 AT CPHF  CYCLE  27 - DIIS ACTIVE - HISTORY:    27 CYCLES
 CYCLE  27   ALPHA 1327.372534  EPSILON    4.279890  DELTA   -2.5777E-03
 TTTTTTTTTTTTTTTTTTTTTTTTTTTTTT MOQGAD      TELAPSE   223607.37 TCPU   221736.48
 TTTTTTTTTTTTTTTTTTTTTTTTTTTTTT CP_MONMON   TELAPSE   223611.75 TCPU   221740.84
 DIIS TEST: 0.61815E-03 AT CPHF  CYCLE  28 - DIIS ACTIVE - HISTORY:    28 CYCLES
 CYCLE  28   ALPHA 1327.372699  EPSILON    4.279890  DELTA    1.6467E-04
 TTTTTTTTTTTTTTTTTTTTTTTTTTTTTT CP_SC       TELAPSE   223631.63 TCPU   221759.51

 *******************************************************************************

 POLARIZABILITY (ALPHA), DIELECTRIC (EPSILON) AND FIRST-ORDER ELECTRIC
 SUSCEPTIBILITY (CHI(1)) TENSORS (INDEPENDENT COMPONENTS)

  FR.(eV) COMP.   ALPHA(Re,Im)           EPSILON(Re,Im)                CHI(1)
  1.165   XX    2554.0766       0.0000       7.3110       0.0000       6.3110
  1.165   ZZ    1327.3727       0.0000       4.2799       0.0000       3.2799

 DIELECTRIC TENSOR

 TENSOR IN PRINCIPAL AXES SYSTEM
 AA  7.311032E+00 BB  7.311032E+00 CC  4.279890E+00

 REFRACTIVE INDICES 
 AA  2.068790E+00 BB  2.703892E+00 CC  2.703892E+00

 OPTICALLY ANISOTROPIC - UNIAXIAL CRYSTAL

 BIREFRINGENCE =  0.6351 (NEGATIVE) - OBLATE OPTICAL ELLIPSOID

 EPSILON=N**2=1+CHI(1)=1+ALPHA*4*PI/V,   4*PI/V=   0.00247 BOHR**(-3)
 ALPHA IN BOHR**3; EPSILON AND CHI(1) ARE DIMENSIONLESS.
 *******************************************************************************


 GCALCO - MAX INDICES DIRECT LATTICE VECTOR    14    14    15
 NO.OF VECTORS CREATED 6999 STARS  488 RMAX   203.94424 BOHR

 CAPPA:IS1  3;IS2  3;IS3  3; K PTS MONK NET   6; SYMMOPS:K SPACE   8;G SPACE   4

 TTTTTTTTTTTTTTTTTTTTTTTTTTTTTT END         TELAPSE   223631.69 TCPU   221759.51
 EEEEEEEEEE TERMINATION  DATE 05 04 2024 TIME 08:04:43.1
NODE    0 CPU TIME =    221759.511
    TOTAL CPU TIME =  14197842.732
