Loading crystal17/1.0.2/intel/19.0
  Loading requirement: intel/19.0 ompi/4.0.1/intel/19.0
          64 PROCESSORS WORKING

         
 *******************************************************************************
 *                                                                             *
 *                               CRYSTAL17                                     *
 *                      public : 1.0.2 - March 1st, 2018                       *
 *                       HTTP://WWW.CRYSTAL.UNITO.IT                           *
 *                                                                             *
 *                              MAIN AUTHORS                                   *
 *                                                                             *
 *  R. DOVESI(1,11), V.R. SAUNDERS(2), C. ROETTI(1,11), R. ORLANDO(1,11),      *
 *  C.M. ZICOVICH-WILSON(1,3), F. PASCALE(4), B. CIVALLERI(1,11),              *
 *  K. DOLL(5), N.M. HARRISON(2,6), I.J. BUSH(7), Ph. D'ARCO(8),               *
 *  M. LLUNELL(9), M. CAUSA'(10), Y. NOEL(8), L. MASCHIO(1,11), A. ERBA(1,11)  *
 *  M. RE'RAT(14), S. CASASSA(1,11)                                            *
 *                                                                             *
 *        CONTRIBUTIONS TO THE CODE HAVE ALSO BEEN GIVEN BY                    *
 *                                                                             *
 *  M. FERRABONE(1,11), M. DE LA PIERRE(1,11), M. FERRERO(1,11),               *
 *  J. BAIMA(1,11), E. ALBANESE(1,11), M.F. PEINTINGER(12), R. BAST(13),       *
 *  B. KIRTMAN(15), V. LACIVITA(1,11), R. DEMICHELIS(1,16)                     *
 *  G. BRANDEBURG(17), S. SALUSTRO(1,11), G. SANSONE(1,11)                     *
 *  M.T. RUGGIERO(18)                                                          *
 *                                                                             *
 * (1) THEORETICAL CHEMISTRY GROUP - UNIVERSITA' DI TORINO - TORINO (ITALY)    *
 * (2) COMPUTATIONAL SCIENCE & ENGINEERING DEPARTMENT - STFC DARESBURY (UK)    *
 * (3) UNIVERSIDAD AUTONOMA DEL ESTADO DE MORELOS - CUERNAVACA (MEXICO)        *
 * (4) UNIVERSITE' DE LORRAINE - NANCY (FRANCE)                                *
 * (5) UNIVERSITAET STUTTGART- STUTTGART (GERMANY)                             *
 * (6) IMPERIAL COLLEGE - LONDON (UK)                                          *
 * (7) OXFORD E-RESEARCH CENTRE - OXFORD (UK)                                  *
 * (8) UPMC - SORBONNE UNIVERSITES - PARIS (FRANCE)                            *
 * (9) UNIVERSIDAD DE BARCELONA - BARCELONA (SPAIN)                            *
 *(10) UNIVERSITA' DI NAPOLI "FEDERICO II" - NAPOLI (ITALY)                    *
 *(11) NIS - NANOSTRUCTURED INTERFACES AND SURFACES - TORINO (ITALY)           *
 *(12) MPI FUER CHEMISCHE ENERGIEKONVERSION - MUELHEIM AN DER RUHR (GERMANY)   *
 *(13) UNIVERSITY OF TROMSO - TROMSO (NORWAY)                                  *
 *(14) UNIVERSITE' DE PAU ET DES PAYS DE L'ADOUR - PAU (FRANCE)                *
 *(15) UNIVERSITY OF CALIFORNIA SANTA BARBARA - SANTA BARBARA (USA)            *
 *(16) CURTIN UNIVERSITY - PERTH (AUSTRALIA)                                   *
 *(17) UNIVERSITY COLLEGE LONDON - LONDON (UK)                                 *
 *(18) CAMBRIDGE UNIVERSITY - CAMBRIDGE (UK)                                   *
 *                                                                             *
 *******************************************************************************
 EEEEEEEEEE STARTING  DATE 08 03 2024 TIME 16:02:17.9
 Z:\home\sanoj\Downloads\tmp_p\newconn.mol                                       

 CRYSTAL CALCULATION
 (INPUT ACCORDING TO THE INTERNATIONAL TABLES FOR X-RAY CRYSTALLOGRAPHY)
 CRYSTAL FAMILY                       :  TETRAGONAL  
 CRYSTAL CLASS  (GROTH - 1921)        :  TETRAGONAL DISPHENOIDAL              

 SPACE GROUP (NONCENTROSYMMETRIC)     :  I -4            

 LATTICE PARAMETERS  (ANGSTROMS AND DEGREES) - CONVENTIONAL CELL
        A           B           C        ALPHA        BETA       GAMMA
    12.11109    12.11109    12.03001    90.00000    90.00000    90.00000


 NUMBER OF IRREDUCIBLE ATOMS IN THE CONVENTIONAL CELL:   17

 INPUT COORDINATES

 ATOM AT. N.              COORDINATES
   1   1     6.213300000000E-01  7.243400000000E-01  1.927100000000E-01
   2   6     7.738100000000E-01  6.824100000000E-01  1.119400000000E-01
   3   6     7.517100000000E-01  5.635500000000E-01  1.155700000000E-01
   4   6     7.005600000000E-01  7.553200000000E-01  1.644500000000E-01
   5   6     8.322200000000E-01 -9.862000000000E-02  1.486500000000E-01
   6   6     8.770800000000E-01  7.278300000000E-01  8.457000000000E-02
   7   6     2.664000000000E-01  1.388100000000E-01  1.951300000000E-01
   8   7     8.245200000000E-01  4.938900000000E-01  1.668100000000E-01
   9   7     7.776700000000E-01  3.906200000000E-01  1.619300000000E-01
  10   7     6.602600000000E-01  5.056400000000E-01  8.208000000000E-02
  11   7     6.806200000000E-01  3.974600000000E-01  1.121500000000E-01
  12   7    -9.969000000000E-02  8.339000000000E-01  9.596000000000E-02
  13  30     0.000000000000E+00  5.000000000000E-01  2.500000000000E-01
  14  30     0.000000000000E+00  0.000000000000E+00  5.000000000000E-01
  15  35    -1.740000000000E-03  6.406600000000E-01  3.629000000000E-02
  16  35     6.618700000000E-01 -6.885000000000E-02  3.145500000000E-01
  17  35     8.735100000000E-01  5.119000000000E-02  1.544600000000E-01

 *******************************************************************************

 << INFORMATION >>: FROM NOW ON, ALL COORDINATES REFER TO THE PRIMITIVE CELL

 *******************************************************************************

 LATTICE PARAMETERS  (ANGSTROMS AND DEGREES) - PRIMITIVE CELL
       A          B          C        ALPHA      BETA     GAMMA        VOLUME
   10.46516   10.46516   10.46516   109.29030 109.29030 109.83366    882.271443

 COORDINATES OF THE EQUIVALENT ATOMS (FRACTIONAL UNITS)

 N. ATOM EQUIV AT. N.          X                  Y                  Z

   1   1   1    1 H    -8.29500000000E-02 -1.85960000000E-01  3.45670000000E-01
   2   1   2    1 H     4.68370000000E-01 -4.28620000000E-01 -3.45670000000E-01
   3   1   3    1 H     1.85960000000E-01 -4.68370000000E-01  1.03010000000E-01
   4   1   4    1 H     4.28620000000E-01  8.29500000000E-02 -1.03010000000E-01

   5   2   1    6 C    -2.05650000000E-01 -1.14250000000E-01  4.56220000000E-01
   6   2   2    6 C     4.29530000000E-01  3.38130000000E-01 -4.56220000000E-01
   7   2   3    6 C     1.14250000000E-01 -4.29530000000E-01 -9.14000000000E-02
   8   2   4    6 C    -3.38130000000E-01  2.05650000000E-01  9.14000000000E-02

   9   3   1    6 C    -3.20880000000E-01 -1.32720000000E-01  3.15260000000E-01
  10   3   2    6 C    -4.47980000000E-01  3.63860000000E-01 -3.15260000000E-01
  11   3   3    6 C     1.32720000000E-01  4.47980000000E-01 -1.88160000000E-01
  12   3   4    6 C    -3.63860000000E-01  3.20880000000E-01  1.88160000000E-01

  13   4   1    6 C    -8.02300000000E-02 -1.34990000000E-01  4.55880000000E-01
  14   4   2    6 C     4.09130000000E-01  4.63890000000E-01 -4.55880000000E-01
  15   4   3    6 C     1.34990000000E-01 -4.09130000000E-01  5.47600000000E-02
  16   4   4    6 C    -4.63890000000E-01  8.02300000000E-02 -5.47600000000E-02

  17   5   1    6 C     5.00300000000E-02 -1.91300000000E-02 -2.66400000000E-01
  18   5   2    6 C     2.47270000000E-01  3.16430000000E-01  2.66400000000E-01
  19   5   3    6 C     1.91300000000E-02 -2.47270000000E-01  6.91600000000E-02
  20   5   4    6 C    -3.16430000000E-01 -5.00300000000E-02 -6.91600000000E-02

  21   6   1    6 C    -1.87600000000E-01 -3.83500000000E-02 -3.95090000000E-01
  22   6   2    6 C     3.56740000000E-01  2.07490000000E-01  3.95090000000E-01
  23   6   3    6 C     3.83500000000E-02 -3.56740000000E-01 -1.49250000000E-01
  24   6   4    6 C    -2.07490000000E-01  1.87600000000E-01  1.49250000000E-01

  25   7   1    6 C     3.33940000000E-01  4.61530000000E-01  4.05210000000E-01
  26   7   2    6 C     5.63200000000E-02 -7.12700000000E-02 -4.05210000000E-01
  27   7   3    6 C    -4.61530000000E-01 -5.63200000000E-02 -1.27590000000E-01
  28   7   4    6 C     7.12700000000E-02 -3.33940000000E-01  1.27590000000E-01

  29   8   1    7 N    -3.39300000000E-01 -8.67000000000E-03  3.18410000000E-01
  30   8   2    7 N    -3.27080000000E-01  3.42290000000E-01 -3.18410000000E-01
  31   8   3    7 N     8.67000000000E-03  3.27080000000E-01 -3.30630000000E-01
  32   8   4    7 N    -3.42290000000E-01  3.39300000000E-01  3.30630000000E-01

  33   9   1    7 N    -4.47450000000E-01 -6.04000000000E-02  1.68290000000E-01
  34   9   2    7 N    -2.28690000000E-01  3.84260000000E-01 -1.68290000000E-01
  35   9   3    7 N     6.04000000000E-02  2.28690000000E-01 -3.87050000000E-01
  36   9   4    7 N    -3.84260000000E-01  4.47450000000E-01  3.87050000000E-01

  37  10   1    7 N    -4.12280000000E-01 -2.57660000000E-01  1.65900000000E-01
  38  10   2    7 N    -4.23560000000E-01  4.21820000000E-01 -1.65900000000E-01
  39  10   3    7 N     2.57660000000E-01  4.23560000000E-01 -1.54620000000E-01
  40  10   4    7 N    -4.21820000000E-01  4.12280000000E-01  1.54620000000E-01

  41  11   1    7 N    -4.90390000000E-01 -2.07230000000E-01  7.80800000000E-02
  42  11   2    7 N    -2.85310000000E-01  4.31530000000E-01 -7.80800000000E-02
  43  11   3    7 N     2.07230000000E-01  2.85310000000E-01 -2.83160000000E-01
  44  11   4    7 N    -4.31530000000E-01  4.90390000000E-01  2.83160000000E-01

  45  12   1    7 N    -7.01400000000E-02 -3.73000000000E-03 -2.65790000000E-01
  46  12   2    7 N     2.62060000000E-01  1.95650000000E-01  2.65790000000E-01
  47  12   3    7 N     3.73000000000E-03 -2.62060000000E-01 -6.64100000000E-02
  48  12   4    7 N    -1.95650000000E-01  7.01400000000E-02  6.64100000000E-02

  49  13   1   30 ZN   -2.50000000000E-01  2.50000000000E-01 -5.00000000000E-01

  50  14   1   30 ZN   -5.00000000000E-01 -5.00000000000E-01  0.00000000000E+00

  51  15   1   35 BR   -3.23050000000E-01  3.45500000000E-02 -3.61080000000E-01
  52  15   2   35 BR    3.95630000000E-01  3.80300000000E-02  3.61080000000E-01
  53  15   3   35 BR   -3.45500000000E-02 -3.95630000000E-01 -3.57600000000E-01
  54  15   4   35 BR   -3.80300000000E-02  3.23050000000E-01  3.57600000000E-01

  55  16   1   35 BR    2.45700000000E-01 -2.35800000000E-02 -4.06980000000E-01
  56  16   2   35 BR    3.83400000000E-01 -3.47320000000E-01  4.06980000000E-01
  57  16   3   35 BR    2.35800000000E-02 -3.83400000000E-01  2.69280000000E-01
  58  16   4   35 BR    3.47320000000E-01 -2.45700000000E-01 -2.69280000000E-01

  59  17   1   35 BR    2.05650000000E-01  2.79700000000E-02 -7.53000000000E-02
  60  17   2   35 BR    1.03270000000E-01  2.80950000000E-01  7.53000000000E-02
  61  17   3   35 BR   -2.79700000000E-02 -1.03270000000E-01  1.77680000000E-01
  62  17   4   35 BR   -2.80950000000E-01 -2.05650000000E-01 -1.77680000000E-01

 NUMBER OF SYMMETRY OPERATORS         :    4
 *******************************************************************************
 * GEOMETRY EDITING - INPUT COORDINATES ARE GIVEN IN ANGSTROM         
 *******************************************************************************

 GEOMETRY NOW FULLY CONSISTENT WITH THE GROUP

 GCALCO - MAX INDICES DIRECT LATTICE VECTOR    15    15    14
 NO.OF VECTORS CREATED 6999 STARS  490 RMAX   215.32861 BOHR

 GEOMETRY FOR WAVE FUNCTION - DIMENSIONALITY OF THE SYSTEM    3
 (NON PERIODIC DIRECTION: LATTICE PARAMETER FORMALLY SET TO 500)
 *******************************************************************************
 LATTICE PARAMETERS (ANGSTROMS AND DEGREES) - BOHR = 0.5291772083 ANGSTROM
 PRIMITIVE CELL - CENTRING CODE 6/0 VOLUME=   882.271443 - DENSITY  3.100 g/cm^3
         A              B              C           ALPHA      BETA       GAMMA 
    10.46515630    10.46515630    10.46515630   109.290304 109.290304 109.833663
 *******************************************************************************
 ATOMS IN THE ASYMMETRIC UNIT   17 - ATOMS IN THE UNIT CELL:   62
     ATOM                 X/A                 Y/B                 Z/C    
 *******************************************************************************
      1 T   1 H    -8.295000000000E-02 -1.859600000000E-01  3.456700000000E-01
      2 F   1 H     4.683700000000E-01 -4.286200000000E-01 -3.456700000000E-01
      3 F   1 H     1.859600000000E-01 -4.683700000000E-01  1.030100000000E-01
      4 F   1 H     4.286200000000E-01  8.295000000000E-02 -1.030100000000E-01
      5 T   6 C    -2.056500000000E-01 -1.142500000000E-01  4.562200000000E-01
      6 F   6 C     4.295300000000E-01  3.381300000000E-01 -4.562200000000E-01
      7 F   6 C     1.142500000000E-01 -4.295300000000E-01 -9.140000000000E-02
      8 F   6 C    -3.381300000000E-01  2.056500000000E-01  9.140000000000E-02
      9 T   6 C    -3.208800000000E-01 -1.327200000000E-01  3.152600000000E-01
     10 F   6 C    -4.479800000000E-01  3.638600000000E-01 -3.152600000000E-01
     11 F   6 C     1.327200000000E-01  4.479800000000E-01 -1.881600000000E-01
     12 F   6 C    -3.638600000000E-01  3.208800000000E-01  1.881600000000E-01
     13 T   6 C    -8.023000000000E-02 -1.349900000000E-01  4.558800000000E-01
     14 F   6 C     4.091300000000E-01  4.638900000000E-01 -4.558800000000E-01
     15 F   6 C     1.349900000000E-01 -4.091300000000E-01  5.476000000000E-02
     16 F   6 C    -4.638900000000E-01  8.023000000000E-02 -5.476000000000E-02
     17 T   6 C     5.003000000000E-02 -1.913000000000E-02 -2.664000000000E-01
     18 F   6 C     2.472700000000E-01  3.164300000000E-01  2.664000000000E-01
     19 F   6 C     1.913000000000E-02 -2.472700000000E-01  6.916000000000E-02
     20 F   6 C    -3.164300000000E-01 -5.003000000000E-02 -6.916000000000E-02
     21 T   6 C    -1.876000000000E-01 -3.835000000000E-02 -3.950900000000E-01
     22 F   6 C     3.567400000000E-01  2.074900000000E-01  3.950900000000E-01
     23 F   6 C     3.835000000000E-02 -3.567400000000E-01 -1.492500000000E-01
     24 F   6 C    -2.074900000000E-01  1.876000000000E-01  1.492500000000E-01
     25 T   6 C     3.339400000000E-01  4.615300000000E-01  4.052100000000E-01
     26 F   6 C     5.632000000000E-02 -7.127000000000E-02 -4.052100000000E-01
     27 F   6 C    -4.615300000000E-01 -5.632000000000E-02 -1.275900000000E-01
     28 F   6 C     7.127000000000E-02 -3.339400000000E-01  1.275900000000E-01
     29 T   7 N    -3.393000000000E-01 -8.670000000000E-03  3.184100000000E-01
     30 F   7 N    -3.270800000000E-01  3.422900000000E-01 -3.184100000000E-01
     31 F   7 N     8.670000000000E-03  3.270800000000E-01 -3.306300000000E-01
     32 F   7 N    -3.422900000000E-01  3.393000000000E-01  3.306300000000E-01
     33 T   7 N    -4.474500000000E-01 -6.040000000000E-02  1.682900000000E-01
     34 F   7 N    -2.286900000000E-01  3.842600000000E-01 -1.682900000000E-01
     35 F   7 N     6.040000000000E-02  2.286900000000E-01 -3.870500000000E-01
     36 F   7 N    -3.842600000000E-01  4.474500000000E-01  3.870500000000E-01
     37 T   7 N    -4.122800000000E-01 -2.576600000000E-01  1.659000000000E-01
     38 F   7 N    -4.235600000000E-01  4.218200000000E-01 -1.659000000000E-01
     39 F   7 N     2.576600000000E-01  4.235600000000E-01 -1.546200000000E-01
     40 F   7 N    -4.218200000000E-01  4.122800000000E-01  1.546200000000E-01
     41 T   7 N    -4.903900000000E-01 -2.072300000000E-01  7.808000000000E-02
     42 F   7 N    -2.853100000000E-01  4.315300000000E-01 -7.808000000000E-02
     43 F   7 N     2.072300000000E-01  2.853100000000E-01 -2.831600000000E-01
     44 F   7 N    -4.315300000000E-01  4.903900000000E-01  2.831600000000E-01
     45 T   7 N    -7.014000000000E-02 -3.730000000000E-03 -2.657900000000E-01
     46 F   7 N     2.620600000000E-01  1.956500000000E-01  2.657900000000E-01
     47 F   7 N     3.730000000000E-03 -2.620600000000E-01 -6.641000000000E-02
     48 F   7 N    -1.956500000000E-01  7.014000000000E-02  6.641000000000E-02
     49 T  30 ZN   -2.500000000000E-01  2.500000000000E-01  5.000000000000E-01
     50 T  30 ZN   -5.000000000000E-01 -5.000000000000E-01  0.000000000000E+00
     51 T  35 BR   -3.230500000000E-01  3.455000000000E-02 -3.610800000000E-01
     52 F  35 BR    3.956300000000E-01  3.803000000000E-02  3.610800000000E-01
     53 F  35 BR   -3.455000000000E-02 -3.956300000000E-01 -3.576000000000E-01
     54 F  35 BR   -3.803000000000E-02  3.230500000000E-01  3.576000000000E-01
     55 T  35 BR    2.457000000000E-01 -2.358000000000E-02 -4.069800000000E-01
     56 F  35 BR    3.834000000000E-01 -3.473200000000E-01  4.069800000000E-01
     57 F  35 BR    2.358000000000E-02 -3.834000000000E-01  2.692800000000E-01
     58 F  35 BR    3.473200000000E-01 -2.457000000000E-01 -2.692800000000E-01
     59 T  35 BR    2.056500000000E-01  2.797000000000E-02 -7.530000000000E-02
     60 F  35 BR    1.032700000000E-01  2.809500000000E-01  7.530000000000E-02
     61 F  35 BR   -2.797000000000E-02 -1.032700000000E-01  1.776800000000E-01
     62 F  35 BR   -2.809500000000E-01 -2.056500000000E-01 -1.776800000000E-01

 TRANSFORMATION MATRIX PRIMITIVE-CRYSTALLOGRAPHIC CELL
  0.0000  1.0000  1.0000  1.0000  0.0000  1.0000  1.0000  1.0000  0.0000

 *******************************************************************************
 CRYSTALLOGRAPHIC CELL (VOLUME=       1764.54288631)
         A              B              C           ALPHA      BETA       GAMMA 
    12.11108741    12.11108741    12.03000868    90.000000  90.000000  90.000000

 COORDINATES IN THE CRYSTALLOGRAPHIC CELL
     ATOM                 X/A                 Y/B                 Z/C    
 *******************************************************************************
      1 T   1 H     1.213300000000E-01  2.243400000000E-01 -3.072900000000E-01
      2 F   1 H    -1.213300000000E-01 -2.243400000000E-01 -3.072900000000E-01
      3 F   1 H     2.243400000000E-01 -1.213300000000E-01  3.072900000000E-01
      4 F   1 H    -2.243400000000E-01  1.213300000000E-01  3.072900000000E-01
      5 T   6 C    -2.261900000000E-01 -3.175900000000E-01  1.119400000000E-01
      6 F   6 C     2.261900000000E-01  3.175900000000E-01  1.119400000000E-01
      7 F   6 C    -3.175900000000E-01  2.261900000000E-01 -1.119400000000E-01
      8 F   6 C     3.175900000000E-01 -2.261900000000E-01 -1.119400000000E-01
      9 T   6 C     2.517100000000E-01  6.355000000000E-02 -3.844300000000E-01
     10 F   6 C    -2.517100000000E-01 -6.355000000000E-02 -3.844300000000E-01
     11 F   6 C     6.355000000000E-02 -2.517100000000E-01  3.844300000000E-01
     12 F   6 C    -6.355000000000E-02  2.517100000000E-01  3.844300000000E-01
     13 T   6 C    -2.994400000000E-01 -2.446800000000E-01  1.644500000000E-01
     14 F   6 C     2.994400000000E-01  2.446800000000E-01  1.644500000000E-01
     15 F   6 C    -2.446800000000E-01  2.994400000000E-01 -1.644500000000E-01
     16 F   6 C     2.446800000000E-01 -2.994400000000E-01 -1.644500000000E-01
     17 T   6 C    -1.677800000000E-01 -9.862000000000E-02  1.486500000000E-01
     18 F   6 C     1.677800000000E-01  9.862000000000E-02  1.486500000000E-01
     19 F   6 C    -9.862000000000E-02  1.677800000000E-01 -1.486500000000E-01
     20 F   6 C     9.862000000000E-02 -1.677800000000E-01 -1.486500000000E-01
     21 T   6 C    -1.229200000000E-01 -2.721700000000E-01  8.457000000000E-02
     22 F   6 C     1.229200000000E-01  2.721700000000E-01  8.457000000000E-02
     23 F   6 C    -2.721700000000E-01  1.229200000000E-01 -8.457000000000E-02
     24 F   6 C     2.721700000000E-01 -1.229200000000E-01 -8.457000000000E-02
     25 T   6 C     2.664000000000E-01  1.388100000000E-01  1.951300000000E-01
     26 F   6 C    -2.664000000000E-01 -1.388100000000E-01  1.951300000000E-01
     27 F   6 C     1.388100000000E-01 -2.664000000000E-01 -1.951300000000E-01
     28 F   6 C    -1.388100000000E-01  2.664000000000E-01 -1.951300000000E-01
     29 T   7 N     3.245200000000E-01 -6.110000000000E-03 -3.331900000000E-01
     30 F   7 N    -3.245200000000E-01  6.110000000000E-03 -3.331900000000E-01
     31 F   7 N    -6.110000000000E-03 -3.245200000000E-01  3.331900000000E-01
     32 F   7 N     6.110000000000E-03  3.245200000000E-01  3.331900000000E-01
     33 T   7 N     2.776700000000E-01 -1.093800000000E-01 -3.380700000000E-01
     34 F   7 N    -2.776700000000E-01  1.093800000000E-01 -3.380700000000E-01
     35 F   7 N    -1.093800000000E-01 -2.776700000000E-01  3.380700000000E-01
     36 F   7 N     1.093800000000E-01  2.776700000000E-01  3.380700000000E-01
     37 T   7 N     1.602600000000E-01  5.640000000000E-03 -4.179200000000E-01
     38 F   7 N    -1.602600000000E-01 -5.640000000000E-03 -4.179200000000E-01
     39 F   7 N     5.640000000000E-03 -1.602600000000E-01  4.179200000000E-01
     40 F   7 N    -5.640000000000E-03  1.602600000000E-01  4.179200000000E-01
     41 T   7 N     1.806200000000E-01 -1.025400000000E-01 -3.878500000000E-01
     42 F   7 N    -1.806200000000E-01  1.025400000000E-01 -3.878500000000E-01
     43 F   7 N    -1.025400000000E-01 -1.806200000000E-01  3.878500000000E-01
     44 F   7 N     1.025400000000E-01  1.806200000000E-01  3.878500000000E-01
     45 T   7 N    -9.969000000000E-02 -1.661000000000E-01  9.596000000000E-02
     46 F   7 N     9.969000000000E-02  1.661000000000E-01  9.596000000000E-02
     47 F   7 N    -1.661000000000E-01  9.969000000000E-02 -9.596000000000E-02
     48 F   7 N     1.661000000000E-01 -9.969000000000E-02 -9.596000000000E-02
     49 T  30 ZN    0.000000000000E+00 -5.000000000000E-01  2.500000000000E-01
     50 T  30 ZN    0.000000000000E+00  0.000000000000E+00 -5.000000000000E-01
     51 T  35 BR   -1.740000000000E-03 -3.593400000000E-01  3.629000000000E-02
     52 F  35 BR    1.740000000000E-03  3.593400000000E-01  3.629000000000E-02
     53 F  35 BR   -3.593400000000E-01  1.740000000000E-03 -3.629000000000E-02
     54 F  35 BR    3.593400000000E-01 -1.740000000000E-03 -3.629000000000E-02
     55 T  35 BR   -3.381300000000E-01 -6.885000000000E-02  3.145500000000E-01
     56 F  35 BR    3.381300000000E-01  6.885000000000E-02  3.145500000000E-01
     57 F  35 BR   -6.885000000000E-02  3.381300000000E-01 -3.145500000000E-01
     58 F  35 BR    6.885000000000E-02 -3.381300000000E-01 -3.145500000000E-01
     59 T  35 BR   -1.264900000000E-01  5.119000000000E-02  1.544600000000E-01
     60 F  35 BR    1.264900000000E-01 -5.119000000000E-02  1.544600000000E-01
     61 F  35 BR    5.119000000000E-02  1.264900000000E-01 -1.544600000000E-01
     62 F  35 BR   -5.119000000000E-02 -1.264900000000E-01 -1.544600000000E-01

 T = ATOM BELONGING TO THE ASYMMETRIC UNIT

 ****    4 SYMMOPS - TRANSLATORS IN FRACTIONAL UNITS
 **** MATRICES AND TRANSLATORS IN THE CRYSTALLOGRAPHIC REFERENCE FRAME
   V INV                    ROTATION MATRICES                   TRANSLATORS
   1   1  1.00  0.00  0.00  0.00  1.00  0.00  0.00  0.00  1.00  0.00  0.00  0.00
   2   2  0.00  1.00 -1.00  1.00  0.00 -1.00  0.00  0.00 -1.00  0.00  0.00  0.00
   3   4 -0.00 -1.00  0.00 -0.00 -1.00  1.00  1.00 -1.00  0.00  0.00  0.00  0.00
   4   3 -1.00 -0.00  1.00 -1.00 -0.00  0.00 -1.00  1.00  0.00  0.00  0.00  0.00

 DIRECT LATTICE VECTORS CARTESIAN COMPONENTS (ANGSTROM)
          X                    Y                    Z
  -0.605554370635E+01   0.605554370635E+01   0.601500434060E+01
   0.605554370635E+01  -0.605554370635E+01   0.601500434060E+01
   0.605554370635E+01   0.605554370635E+01  -0.601500434060E+01


 CARTESIAN COORDINATES - PRIMITIVE CELL
 *******************************************************************************
 *      ATOM          X(ANGSTROM)         Y(ANGSTROM)         Z(ANGSTROM)
 *******************************************************************************
    1     1 H     1.469438235783E+00  2.717001350165E+00 -3.696701367646E+00
    2     1 H    -1.469438235783E+00 -2.717001350165E+00 -3.696701367646E+00
    3     1 H     2.717001350165E+00 -1.469438235783E+00  3.696701367646E+00
    4     1 H    -2.717001350165E+00  1.469438235783E+00  3.696701367646E+00
    5     6 C    -2.739406861879E+00 -3.846360251399E+00  1.346639171774E+00
    6     6 C     2.739406861879E+00  3.846360251399E+00  1.346639171774E+00
    7     6 C    -3.846360251399E+00  2.739406861879E+00 -1.346639171774E+00
    8     6 C     3.846360251399E+00 -2.739406861879E+00 -1.346639171774E+00
    9     6 C     3.048481812651E+00  7.696596050771E-01 -4.624696237314E+00
   10     6 C    -3.048481812651E+00 -7.696596050771E-01 -4.624696237314E+00
   11     6 C     7.696596050771E-01 -3.048481812651E+00  4.624696237314E+00
   12     6 C    -7.696596050771E-01  3.048481812651E+00  4.624696237314E+00
   13     6 C    -3.626544014859E+00 -2.963340868139E+00  1.978334927623E+00
   14     6 C     3.626544014859E+00  2.963340868139E+00  1.978334927623E+00
   15     6 C    -2.963340868139E+00  3.626544014859E+00 -1.978334927623E+00
   16     6 C     2.963340868139E+00 -3.626544014859E+00 -1.978334927623E+00
   17     6 C    -2.031998246103E+00 -1.194395440640E+00  1.788260790460E+00
   18     6 C     2.031998246103E+00  1.194395440640E+00  1.788260790460E+00
   19     6 C    -1.194395440640E+00  2.031998246103E+00 -1.788260790460E+00
   20     6 C     1.194395440640E+00 -2.031998246103E+00 -1.788260790460E+00
   21     6 C    -1.488694864769E+00 -3.296274661115E+00  1.017377834169E+00
   22     6 C     1.488694864769E+00  3.296274661115E+00  1.017377834169E+00
   23     6 C    -3.296274661115E+00  1.488694864769E+00 -1.017377834169E+00
   24     6 C     3.296274661115E+00 -1.488694864769E+00 -1.017377834169E+00
   25     6 C     3.226393686743E+00  1.681140043757E+00  2.347415593963E+00
   26     6 C    -3.226393686743E+00 -1.681140043757E+00  2.347415593963E+00
   27     6 C     1.681140043757E+00 -3.226393686743E+00 -2.347415593963E+00
   28     6 C    -1.681140043757E+00  3.226393686743E+00 -2.347415593963E+00
   29     7 N     3.930290087169E+00 -7.399874409160E-02 -4.008278592489E+00
   30     7 N    -3.930290087169E+00  7.399874409160E-02 -4.008278592489E+00
   31     7 N    -7.399874409160E-02 -3.930290087169E+00  4.008278592489E+00
   32     7 N     7.399874409160E-02  3.930290087169E+00  4.008278592489E+00
   33     7 N     3.362885641884E+00 -1.324710741201E+00 -4.066985034853E+00
   34     7 N    -3.362885641884E+00  1.324710741201E+00 -4.066985034853E+00
   35     7 N    -1.324710741201E+00 -3.362885641884E+00  4.066985034853E+00
   36     7 N     1.324710741201E+00  3.362885641884E+00  4.066985034853E+00
   37     7 N     1.940922868759E+00  6.830653300763E-02 -5.027581228047E+00
   38     7 N    -1.940922868759E+00 -6.830653300763E-02 -5.027581228047E+00
   39     7 N     6.830653300763E-02 -1.940922868759E+00  5.027581228047E+00
   40     7 N    -6.830653300763E-02  1.940922868759E+00  5.027581228047E+00
   41     7 N     2.187504608482E+00 -1.241870903298E+00 -4.665838867003E+00
   42     7 N    -2.187504608482E+00  1.241870903298E+00 -4.665838867003E+00
   43     7 N    -1.241870903298E+00 -2.187504608482E+00  4.665838867003E+00
   44     7 N     1.241870903298E+00  2.187504608482E+00  4.665838867003E+00
   45     7 N    -1.207354304172E+00 -2.011651619249E+00  1.154399633048E+00
   46     7 N     1.207354304172E+00  2.011651619249E+00  1.154399633048E+00
   47     7 N    -2.011651619249E+00  1.207354304172E+00 -1.154399633048E+00
   48     7 N     2.011651619249E+00 -1.207354304172E+00 -1.154399633048E+00
   49    30 ZN    0.000000000000E+00  6.055543706350E+00 -9.022506510900E+00
   50    30 ZN    0.000000000000E+00  0.000000000000E+00  6.015004340600E+00
   51    35 BR   -2.107329209810E-02 -4.351998150880E+00  4.365690150407E-01
   52    35 BR    2.107329209810E-02  4.351998150880E+00  4.365690150407E-01
   53    35 BR   -4.351998150880E+00  2.107329209810E-02 -4.365690150407E-01
   54    35 BR    4.351998150880E+00 -2.107329209810E-02 -4.365690150407E-01
   55    35 BR   -4.095121986856E+00 -8.338483683644E-01  3.784039230671E+00
   56    35 BR    4.095121986856E+00  8.338483683644E-01  3.784039230671E+00
   57    35 BR   -8.338483683644E-01  4.095121986856E+00 -3.784039230671E+00
   58    35 BR    8.338483683644E-01 -4.095121986856E+00 -3.784039230671E+00
   59    35 BR   -1.531931446832E+00  6.199665646561E-01  1.858155140898E+00
   60    35 BR    1.531931446832E+00 -6.199665646561E-01  1.858155140898E+00
   61    35 BR    6.199665646561E-01  1.531931446832E+00 -1.858155140898E+00
   62    35 BR   -6.199665646561E-01 -1.531931446832E+00 -1.858155140898E+00

 *******************************************************************************
 STARTING BASIS SET HANDLING 
 *******************************************************************************

 Loading internal basis set: POB-DZVPP           

 Please cite in your publication:
 Peintinger, M. F., Oliveira, D. V. and Bredow, T. (2013), Generally applicable 
 solid-state Gaussian basis sets, in preparation                                
                                                                                
                    

 *******************************************************************************
 LOCAL ATOMIC FUNCTIONS BASIS SET
 *******************************************************************************
   ATOM   X(AU)   Y(AU)   Z(AU)  N. TYPE  EXPONENT  S COEF   P COEF   D/F/G COEF
 *******************************************************************************
   1 H    2.777   5.134  -6.986
                                  1 S  
                                         2.263E+01 1.441E-02 0.000E+00 0.000E+00
                                         3.236E+00 1.072E-01 0.000E+00 0.000E+00
                                         7.304E-01 3.846E-01 0.000E+00 0.000E+00
                                  2 S  
                                         1.417E-01 1.000E+00 0.000E+00 0.000E+00
                           3-     5 P  
                                         3.944E-01 0.000E+00 1.000E+00 0.000E+00
                           6-     8 P  
                                         1.006E-01 0.000E+00 1.000E+00 0.000E+00
   2 H   -2.777  -5.134  -6.986
   3 H    5.134  -2.777   6.986
   4 H   -5.134   2.777   6.986
   5 C   -5.177  -7.269   2.545
                                 33 S  
                                         1.238E+03 5.457E-03 0.000E+00 0.000E+00
                                         1.863E+02 4.064E-02 0.000E+00 0.000E+00
                                         4.225E+01 1.803E-01 0.000E+00 0.000E+00
                                         1.168E+01 4.632E-01 0.000E+00 0.000E+00
                                         3.593E+00 4.409E-01 0.000E+00 0.000E+00
                                 34 S  
                                         5.281E+00 1.000E+00 0.000E+00 0.000E+00
                                 35 S  
                                         4.447E-01 1.000E+00 0.000E+00 0.000E+00
                          36-    38 P  
                                         9.468E+00 0.000E+00 3.839E-02 0.000E+00
                                         2.010E+00 0.000E+00 2.112E-01 0.000E+00
                                         5.477E-01 0.000E+00 5.133E-01 0.000E+00
                          39-    41 P  
                                         1.604E-01 0.000E+00 1.000E+00 0.000E+00
                          42-    46 D  
                                         6.070E-01 0.000E+00 0.000E+00 1.000E+00
                          47-    51 D  
                                         2.939E-01 0.000E+00 0.000E+00 1.000E+00
   6 C    5.177   7.269   2.545
   7 C   -7.269   5.177  -2.545
   8 C    7.269  -5.177  -2.545
   9 C    5.761   1.454  -8.739
  10 C   -5.761  -1.454  -8.739
  11 C    1.454  -5.761   8.739
  12 C   -1.454   5.761   8.739
  13 C   -6.853  -5.600   3.739
  14 C    6.853   5.600   3.739
  15 C   -5.600   6.853  -3.739
  16 C    5.600  -6.853  -3.739
  17 C   -3.840  -2.257   3.379
  18 C    3.840   2.257   3.379
  19 C   -2.257   3.840  -3.379
  20 C    2.257  -3.840  -3.379
  21 C   -2.813  -6.229   1.923
  22 C    2.813   6.229   1.923
  23 C   -6.229   2.813  -1.923
  24 C    6.229  -2.813  -1.923
  25 C    6.097   3.177   4.436
  26 C   -6.097  -3.177   4.436
  27 C    3.177  -6.097  -4.436
  28 C   -3.177   6.097  -4.436
  29 N    7.427  -0.140  -7.575
                                489 S  
                                         1.713E+03-5.393E-03 0.000E+00 0.000E+00
                                         2.576E+02-4.022E-02 0.000E+00 0.000E+00
                                         5.846E+01-1.793E-01 0.000E+00 0.000E+00
                                         1.620E+01-4.638E-01 0.000E+00 0.000E+00
                                         5.005E+00-4.417E-01 0.000E+00 0.000E+00
                                490 S  
                                         6.217E-01 1.000E+00 0.000E+00 0.000E+00
                                491 S  
                                         2.921E-01 1.000E+00 0.000E+00 0.000E+00
                         492-   494 P  
                                         1.357E+01 0.000E+00-4.007E-02 0.000E+00
                                         2.926E+00 0.000E+00-2.181E-01 0.000E+00
                                         7.993E-01 0.000E+00-5.129E-01 0.000E+00
                         495-   497 P  
                                         2.244E-01 0.000E+00 1.000E+00 0.000E+00
                         498-   502 D  
                                         3.118E-01 0.000E+00 0.000E+00 1.000E+00
  30 N   -7.427   0.140  -7.575
  31 N   -0.140  -7.427   7.575
  32 N    0.140   7.427   7.575
  33 N    6.355  -2.503  -7.685
  34 N   -6.355   2.503  -7.685
  35 N   -2.503  -6.355   7.685
  36 N    2.503   6.355   7.685
  37 N    3.668   0.129  -9.501
  38 N   -3.668  -0.129  -9.501
  39 N    0.129  -3.668   9.501
  40 N   -0.129   3.668   9.501
  41 N    4.134  -2.347  -8.817
  42 N   -4.134   2.347  -8.817
  43 N   -2.347  -4.134   8.817
  44 N    2.347   4.134   8.817
  45 N   -2.282  -3.801   2.181
  46 N    2.282   3.801   2.181
  47 N   -3.801   2.282  -2.181
  48 N    3.801  -2.282  -2.181
  49 ZN   0.000  11.443 -17.050
                                769 S  
                                         8.200E+04 1.421E-03 0.000E+00 0.000E+00
                                         1.231E+04 1.089E-02 0.000E+00 0.000E+00
                                         2.801E+03 5.406E-02 0.000E+00 0.000E+00
                                         7.910E+02 1.885E-01 0.000E+00 0.000E+00
                                         2.576E+02 3.835E-01 0.000E+00 0.000E+00
                                         8.881E+01 2.972E-01 0.000E+00 0.000E+00
                                770 S  
                                         1.719E+02-1.105E-01 0.000E+00 0.000E+00
                                         2.030E+01 6.461E-01 0.000E+00 0.000E+00
                                         8.346E+00 4.422E-01 0.000E+00 0.000E+00
                                771 S  
                                         1.485E+01-2.271E-01 0.000E+00 0.000E+00
                                         2.450E+00 7.243E-01 0.000E+00 0.000E+00
                                         9.985E-01 4.484E-01 0.000E+00 0.000E+00
                                772 S  
                                         1.493E+00 1.000E+00 0.000E+00 0.000E+00
                                773 S  
                                         1.830E-01 1.000E+00 0.000E+00 0.000E+00
                         774-   776 P  
                                         1.072E+03 0.000E+00 9.277E-03 0.000E+00
                                         2.527E+02 0.000E+00 6.954E-02 0.000E+00
                                         8.010E+01 0.000E+00 2.716E-01 0.000E+00
                                         2.890E+01 0.000E+00 5.340E-01 0.000E+00
                                         1.077E+01 0.000E+00 3.450E-01 0.000E+00
                         777-   779 P  
                                         5.645E+00 0.000E+00 3.413E-01 0.000E+00
                                         2.168E+00 0.000E+00 5.639E-01 0.000E+00
                                         8.054E-01 0.000E+00 2.368E-01 0.000E+00
                         780-   782 P  
                                         2.721E-01 0.000E+00 1.000E+00 0.000E+00
                         783-   787 D  
                                         5.609E+01 0.000E+00 0.000E+00 2.959E-02
                                         1.575E+01 0.000E+00 0.000E+00 1.587E-01
                                         5.312E+00 0.000E+00 0.000E+00 3.798E-01
                                         1.774E+00 0.000E+00 0.000E+00 4.690E-01
                         788-   792 D  
                                         5.073E-01 0.000E+00 0.000E+00 1.000E+00
                         793-   799 F  
                                         2.814E+00 0.000E+00 0.000E+00 1.000E+00
                         800-   806 F  
                                         1.300E+00 0.000E+00 0.000E+00 1.000E+00
  50 ZN   0.000   0.000  11.367
  51 BR  -0.040  -8.224   0.825
                                845 S  
                                         1.133E+05 1.428E-03 0.000E+00 0.000E+00
                                         1.701E+04 1.095E-02 0.000E+00 0.000E+00
                                         3.870E+03 5.442E-02 0.000E+00 0.000E+00
                                         1.093E+03 1.905E-01 0.000E+00 0.000E+00
                                         3.564E+02 3.902E-01 0.000E+00 0.000E+00
                                         1.231E+02 3.081E-01 0.000E+00 0.000E+00
                                846 S  
                                         2.367E+02-1.123E-01 0.000E+00 0.000E+00
                                         2.847E+01 6.478E-01 0.000E+00 0.000E+00
                                         1.188E+01 4.424E-01 0.000E+00 0.000E+00
                                847 S  
                                         2.127E+01-2.264E-01 0.000E+00 0.000E+00
                                         3.613E+00 7.382E-01 0.000E+00 0.000E+00
                                         1.663E+00 4.268E-01 0.000E+00 0.000E+00
                                848 S  
                                         3.641E-01 1.000E+00 0.000E+00 0.000E+00
                                849 S  
                                         1.243E-01 1.000E+00 0.000E+00 0.000E+00
                         850-   852 P  
                                         1.560E+03 0.000E+00 8.717E-03 0.000E+00
                                         3.685E+02 0.000E+00 6.624E-02 0.000E+00
                                         1.172E+02 0.000E+00 2.650E-01 0.000E+00
                                         4.265E+01 0.000E+00 5.384E-01 0.000E+00
                                         1.609E+01 0.000E+00 3.658E-01 0.000E+00
                         853-   855 P  
                                         8.635E+00 0.000E+00 3.425E-01 0.000E+00
                                         3.561E+00 0.000E+00 5.750E-01 0.000E+00
                                         1.529E+00 0.000E+00 2.433E-01 0.000E+00
                         856-   858 P  
                                         6.447E-01 0.000E+00 1.000E+00 0.000E+00
                         859-   861 P  
                                         2.103E-01 0.000E+00 1.000E+00 0.000E+00
                         862-   866 D  
                                         1.049E+02 0.000E+00 0.000E+00 2.265E-02
                                         3.028E+01 0.000E+00 0.000E+00 1.346E-01
                                         1.065E+01 0.000E+00 0.000E+00 3.647E-01
                                         3.870E+00 0.000E+00 0.000E+00 4.904E-01
                         867-   871 D  
                                         1.342E+00 0.000E+00 0.000E+00 1.000E+00
                         872-   876 D  
                                         4.101E-01 0.000E+00 0.000E+00 1.000E+00
                         877-   881 D  
                                         1.985E-01 0.000E+00 0.000E+00 1.000E+00
  52 BR   0.040   8.224   0.825
  53 BR  -8.224   0.040  -0.825
  54 BR   8.224  -0.040  -0.825
  55 BR  -7.739  -1.576   7.151
  56 BR   7.739   1.576   7.151
  57 BR  -1.576   7.739  -7.151
  58 BR   1.576  -7.739  -7.151
  59 BR  -2.895   1.172   3.511
  60 BR   2.895  -1.172   3.511
  61 BR   1.172   2.895  -3.511
  62 BR  -1.172  -2.895  -3.511

 *******************************************************************************
 FINISHED BASIS SET HANDLING 
 *******************************************************************************

 INFORMATION **** SET_MPP **** PCRYSTAL CALCULATION
 INFORMATION **** READM2 **** NEW DEFAULT: FOCK/KS MATRIX MIXING SET TO 30 %
 INFORMATION **** READM2 **** NEW DEFAULT: FULL DIRECT SCF MODE
 INFORMATION **** READM2 **** NEW DEFAULT: COULOMB BIPOLAR BUFFER SET TO 32 Mb
 INFORMATION **** READM2 **** NEW DEFAULT: EXCHANGE BIPOLAR BUFFER SET TO 32 Mb

 *******************************************************************************
 NEW DEFAULT: DFT INTEGRATION GRID INCREASED TO XLGRID
 NEW DEFAULT: DIIS ACCELERATOR ACTIVE
 USE KEYWORD NODIIS TO TURN IT OFF
 *******************************************************************************

 INFORMATION **** DFTD3_INPUT **** PERFORM DISPERSION CORRECTION DFT-D3(BJ) IN THE BECKE-JOHNSON DAMPING SCHEME

 PLEASE CITE:
 (1) DFT-D3 Reference
  S. Grimme, J. Antony, S. Ehrlich, and H. Krieg, J. Chem. Phys. 132 (2010), 154104
 (2) BJ-Damping Reference
  S. Grimme, S. Ehrlich, and L. Goerigk, J. Comput. Chem. 32 (2011), 1456-1465
 (3) General DFT-D Review
  S. Grimme, A. Hansen, J. G. Brandenburg, and C. Bannwarth,
  Chem. Rev. 116 (2016), 5105-5154

 INFORMATION **** TOLINTEG **** COULOMB AND EXCHANGE SERIES TOLERANCES MODIFIED
 INFORMATION **** BIPOSIZE **** COULOMB BIPOLAR BUFFER SET TO   100000000
 INFORMATION **** MAXCYCLE **** MAX NUMBER OF SCF CYCLES SET TO          50
 *******************************************************************************
 N. OF ATOMS PER CELL        62  COULOMB OVERLAP TOL         (T1) 10**  -12
 NUMBER OF SHELLS           484  COULOMB PENETRATION TOL     (T2) 10**  -12
 NUMBER OF AO              1288  EXCHANGE OVERLAP TOL        (T3) 10**   20
 N. OF ELECTRONS PER CELL   768  EXCHANGE PSEUDO OVP (F(G))  (T4) 10**   20
 CORE ELECTRONS PER CELL    460  EXCHANGE PSEUDO OVP (P(G))  (T5) 10**   20
 N. OF SYMMETRY OPERATORS     4  POLE ORDER IN MONO ZONE                  4
 *******************************************************************************
 TYPE OF CALCULATION :  RESTRICTED CLOSED SHELL
 KOHN-SHAM HAMILTONIAN

 (EXCHANGE)[CORRELATION] FUNCTIONAL:(PERDEW-BURKE-ERNZERHOF)[PERDEW-BURKE-ERNZERHOF]


 CAPPA:IS1  3;IS2  3;IS3  3; K PTS MONK NET   6; SYMMOPS:K SPACE   8;G SPACE   4

 *******************************************************************************
 MAX NUMBER OF SCF CYCLES      50  CONVERGENCE ON DELTAP        10**-16
 WEIGHT OF F(I) IN F(I+1)      30% CONVERGENCE ON ENERGY        10**- 6
 SHRINK. FACT.(MONKH.)    3  3  3  NUMBER OF K POINTS IN THE IBZ      6
 SHRINKING FACTOR(GILAT NET)    3  NUMBER OF K POINTS(GILAT NET)      6
 *******************************************************************************
 *** K POINTS COORDINATES (OBLIQUE COORDINATES IN UNITS OF IS =  3)
   1-R(  0  0  0)   2-C(  1  0  0)   3-C(  1  1  0)   4-C(  2  1  0)
   5-C(  2  1  1)   6-C(  2  2  1)

 DIRECT LATTICE VECTORS COMPON. (A.U.)     RECIP. LATTICE VECTORS COMPON. (A.U.) 
        X            Y            Z              X            Y            Z
  -11.4433192   11.4433192   11.3667109      0.0000000    0.2745351    0.2763854
   11.4433192  -11.4433192   11.3667109      0.2745351    0.0000000    0.2763854
   11.4433192   11.4433192  -11.3667109      0.2745351    0.2745351    0.0000000

 DISK SPACE FOR EIGENVECTORS (FTN 10)    18248384 REALS

 SYMMETRY ADAPTION OF THE BLOCH FUNCTIONS ENABLED
 TTTTTTTTTTTTTTTTTTTTTTTTTTTTTT gordsh1     TELAPSE        9.49 TCPU        0.09

 MATRIX SIZE: P(G) 2049424, F(G) 1025488, P(G) IRR  258837, F(G) IRR  258837
 MAX G-VECTOR INDEX FOR 1- AND 2-ELECTRON INTEGRALS  59

 TTTTTTTTTTTTTTTTTTTTTTTTTTTTTT INPUT       TELAPSE        9.56 TCPU        0.13

 NEIGHBORS OF THE NON-EQUIVALENT ATOMS

 N = NUMBER OF NEIGHBORS AT DISTANCE R
    ATOM  N     R/ANG      R/AU   NEIGHBORS (ATOM LABELS AND CELL INDICES)
   1 H    1     1.0849     2.0503   13 C    0 0 1
   1 H    1     2.1440     4.0515   26 C    0 0 1
   1 H    1     2.1476     4.0584    5 C    0 0 1
   1 H    1     2.3465     4.4343   61 BR   0 0 0
   1 H    1     2.6733     5.0519    9 C    0 0 0
   1 H    1     2.6855     5.0749   57 BR   0 0 0

   5 C    1     1.4021     2.6495   13 C    0 0 0
   5 C    1     1.4054     2.6559   21 C    0 0 0
   5 C    1     1.4648     2.7682    9 C    0 0-1
   5 C    1     2.1476     4.0584    1 H    0 0-1
   5 C    1     2.3980     4.5315   45 N    0 0 0
   5 C    1     2.4345     4.6006   26 C    0 0 0

   9 C    1     1.3672     2.5837   29 N    0 0 0
   9 C    1     1.3715     2.5917   37 N    0 0 0
   9 C    1     1.4648     2.7682    5 C    0 0 1
   9 C    1     2.1884     4.1355   41 N    0 0 0
   9 C    1     2.1900     4.1386   33 N    0 0 0
   9 C    1     2.4746     4.6764   13 C    0 0 1

  13 C    1     1.0849     2.0503    1 H    0 0-1
  13 C    1     1.3930     2.6323   26 C    0 0 0
  13 C    1     1.4021     2.6495    5 C    0 0 0
  13 C    1     2.3674     4.4738   21 C    0 0 0
  13 C    1     2.3891     4.5148   17 C    0 0 0
  13 C    1     2.4746     4.6764    9 C    0 0-1

  17 C    1     1.3228     2.4997   45 N    0 0 0
  17 C    1     1.4058     2.6565   26 C    0 0 0
  17 C    1     1.8833     3.5589   59 BR   0 0 0
  17 C    1     2.3038     4.3535   21 C    0 0 0
  17 C    1     2.3891     4.5148   13 C    0 0 0
  17 C    1     2.7800     5.2534    5 C    0 0 0

  21 C    1     1.3222     2.4986   45 N    0 0 0
  21 C    1     1.4054     2.6559    5 C    0 0 0
  21 C    1     1.8989     3.5884   51 BR   0 0 0
  21 C    1     2.3038     4.3535   17 C    0 0 0
  21 C    1     2.3674     4.4738   13 C    0 0 0
  21 C    1     2.5304     4.7818    9 C    0 0-1

  25 C    1     1.3930     2.6323   14 C    0 0 0
  25 C    1     1.4058     2.6565   18 C    0 0 0
  25 C    1     1.8806     3.5537   56 BR   0 0 0
  25 C    1     2.1440     4.0515    2 H    1 1 1
  25 C    1     2.3683     4.4755   46 N    0 0 0
  25 C    1     2.4345     4.6006    6 C    0 0 0

  29 N    1     1.3672     2.5837    9 C    0 0 0
  29 N    1     1.3747     2.5977   33 N    0 0 0
  29 N    1     2.1985     4.1547   41 N    0 0 0
  29 N    1     2.2398     4.2327   37 N    0 0 0
  29 N    1     2.3503     4.4414   49 ZN   0 1 0
  29 N    1     2.4548     4.6388    5 C    0 0 1

  33 N    1     1.3217     2.4977   41 N    0 0 0
  33 N    1     1.3747     2.5977   29 N    0 0 0
  33 N    1     2.1900     4.1386    9 C    0 0 0
  33 N    1     2.2103     4.1768   37 N    0 0 0
  33 N    1     3.0547     5.7726   24 C    0 0 0
  33 N    1     3.0662     5.7943   27 C    0 0 0

  37 N    1     1.3715     2.5917    9 C    0 0 0
  37 N    1     1.3814     2.6104   41 N    0 0 0
  37 N    1     2.1787     4.1172   50 ZN  -1-1 0
  37 N    1     2.2103     4.1768   33 N    0 0 0
  37 N    1     2.2398     4.2327   29 N    0 0 0
  37 N    1     2.5697     4.8561    5 C    0 0 1

  41 N    1     1.3217     2.4977   33 N    0 0 0
  41 N    1     1.3814     2.6104   37 N    0 0 0
  41 N    1     2.1884     4.1355    9 C    0 0 0
  41 N    1     2.1985     4.1547   29 N    0 0 0
  41 N    1     2.8544     5.3941   50 ZN  -1-1 0
  41 N    1     3.0935     5.8459   27 C    0 0 0

  45 N    1     1.3222     2.4986   21 C    0 0 0
  45 N    1     1.3228     2.4997   17 C    0 0 0
  45 N    1     2.3683     4.4755   26 C    0 0 0
  45 N    1     2.3980     4.5315    5 C    0 0 0
  45 N    1     2.7203     5.1405   51 BR   0 0 0
  45 N    1     2.7271     5.1535   13 C    0 0 0

  49 ZN   4     2.3503     4.4414   29 N    0-1 0   30 N    0 0 1   31 N    0-1 1
                                    32 N   -1-1 0
  49 ZN   4     3.0842     5.8283   51 BR   0-1 1   52 BR  -1-1 0   53 BR   0 0 1
                                    54 BR   0-1 0
  49 ZN   4     3.1824     6.0139   33 N    0-1 0   34 N    0 0 1   35 N    0-1 1
                                    36 N   -1-1 0
  49 ZN   4     3.5000     6.6141    9 C    0-1 0   10 C    0 0 1   11 C    0-1 1
                                    12 C   -1-1 0
  49 ZN   4     3.7135     7.0176   21 C    0-1 1   22 C   -1-1 0   23 C    0 0 1
                                    24 C    0-1 0
  49 ZN   4     3.8914     7.3538    5 C    0-1 1    6 C   -1-1 0    7 C    0 0 1
                                     8 C    0-1 0

  50 ZN   4     2.1787     4.1172   37 N    1 1 0   38 N    1 1 0   39 N    0 0 0
                                    40 N    0 0 0
  50 ZN   4     2.8544     5.3941   41 N    1 1 0   42 N    1 1 0   43 N    0 0 0
                                    44 N    0 0 0
  50 ZN   4     3.4378     6.4965    9 C    1 1 0   10 C    1 1 0   11 C    0 0 0
                                    12 C    0 0 0
  50 ZN   4     3.8621     7.2983    1 H    1 1 0    2 H    1 1 0    3 H    0 0 0
                                     4 H    0 0 0
  50 ZN   4     4.1059     7.7591   33 N    1 1 0   34 N    1 1 0   35 N    0 0 0
                                    36 N    0 0 0
  50 ZN   4     4.2060     7.9482    5 C    1 1 1    6 C    0 0-1    7 C    0 1 0
                                     8 C    1 0 0

  51 BR   1     1.8989     3.5884   21 C    0 0 0
  51 BR   1     2.7203     5.1405   45 N    0 0 0
  51 BR   1     2.9109     5.5008    5 C    0 0 0
  51 BR   1     3.0842     5.8283   49 ZN   0 1-1
  51 BR   1     3.1189     5.8939   30 N    0 1 0
  51 BR   1     3.1293     5.9135   34 N    0 1 0

  55 BR   1     1.8806     3.5537   26 C    0 0 0
  55 BR   1     2.6855     5.0749    4 H    0 0 0
  55 BR   1     2.8311     5.3499   13 C    0 0 0
  55 BR   1     2.8930     5.4670   17 C    0 0 0
  55 BR   1     2.9433     5.5620    1 H    0 0-1
  55 BR   1     3.2789     6.1962   43 N    0 0 0

  59 BR   1     1.8833     3.5589   17 C    0 0 0
  59 BR   1     2.3465     4.4343    4 H    0 0 0
  59 BR   1     2.7434     5.1842   45 N    0 0 0
  59 BR   1     2.8993     5.4788   26 C    0 0 0
  59 BR   1     3.1065     5.8705   47 N    0 0 0
  59 BR   1     3.1521     5.9566   46 N    0 0 0


 SYMMETRY ALLOWED INTERNAL DEGREE(S) OF FREEDOM:  45
 TTTTTTTTTTTTTTTTTTTTTTTTTTTTTT SYMM        TELAPSE        9.59 TCPU        0.15
 TTTTTTTTTTTTTTTTTTTTTTTTTTTTTT INT_SCREEN  TELAPSE        9.60 TCPU        0.16
 INFORMATION **** EXCBUF **** EXCH. BIPO BUFFER: WORDS USED =           0

 DFT PARAMETERS

     ATOM       ELECTRONS   NET CHARGE   R(ANGSTROM)
   1   1  H       1.0000      0.0000     1.11000000
   5   6  C       6.0000      0.0000     0.77000000
  29   7  N       7.0000      0.0000     0.74000000
  49  30  ZN     30.0000      0.0000     1.37000000
  51  35  BR     35.0000      0.0000     1.14000000

 SIZE OF GRID=     478948
 TTTTTTTTTTTTTTTTTTTTTTTTTTTTTT MAKE_GRID2  TELAPSE       10.27 TCPU        0.82
 BECKE WEIGHT FUNCTION
 RADSAFE =     2.00
 TOLERANCES - DENSITY:10**- 6; POTENTIAL:10**- 9; GRID WGT:10**-14

 RADIAL INTEGRATION  - INTERVALS (POINTS,UPPER LIMIT):            1( 75,  4.0*R)

 ANGULAR INTEGRATION - INTERVALS (ACCURACY LEVEL [N. POINTS] UPPER LIMIT):
  1(  4[  86]   0.2)  2(  8[ 194]   0.5)  3( 12[ 350]   0.9)  4( 16[ 974]   3.5)
  5( 12[ 350]9999.0)
 TTTTTTTTTTTTTTTTTTTTTTTTTTTTTT INT_CALC    TELAPSE       10.32 TCPU        0.87
 EEEEEEEEEE INT_CALC TERMINATION  DATE 08 03 2024 TIME 16:02:28.1

 *******************************************************************************
 Z:\home\sanoj\Downloads\tmp_p\newconn.mol                                       
 CRYSTAL - SCF - TYPE OF CALCULATION :  RESTRICTED CLOSED SHELL
 *******************************************************************************

 CAPPA:IS1  3;IS2  3;IS3  3; K PTS MONK NET   6; SYMMOPS:K SPACE   8;G SPACE   4

 TTTTTTTTTTTTTTTTTTTTTTTTTTTTTT SDIK        TELAPSE       10.50 TCPU        1.05

 AAAAAAAAAAAAAAAAAAAAAAAAAAAAAAAAAAAAAAAAAAAAAAAAAAAAAAAAAAAAAAAAAAAAAAAAAAAAAAA
         ATOMIC WAVEFUNCTION(S)


 NUCLEAR CHARGE  1.0  SYMMETRY SPECIES            S
 N. ELECTRONS    1.0  NUMBER OF PRIMITIVE GTOS    4
                      NUMBER OF CONTRACTED GTOS   2
                      NUMBER OF CLOSED SHELLS     0
                      OPEN SHELL OCCUPATION       1

  ZNUC SCFIT  TOTAL HF ENERGY   KINETIC ENERGY   VIRIAL THEOREM ACCURACY
   1.0   1   -4.946643675E-01  4.917913167E-01 -2.005842012E+00  9.4E-17

 NUCLEAR CHARGE  6.0  SYMMETRY SPECIES            S    P
 N. ELECTRONS    6.0  NUMBER OF PRIMITIVE GTOS    7    4
                      NUMBER OF CONTRACTED GTOS   3    2
                      NUMBER OF CLOSED SHELLS     2    0
                      OPEN SHELL OCCUPATION       0    2

  ZNUC SCFIT  TOTAL HF ENERGY   KINETIC ENERGY   VIRIAL THEOREM ACCURACY
   6.0   6   -3.750912652E+01  3.905246519E+01 -1.960480378E+00  3.7E-06

 NUCLEAR CHARGE  7.0  SYMMETRY SPECIES            S    P
 N. ELECTRONS    7.0  NUMBER OF PRIMITIVE GTOS    7    4
                      NUMBER OF CONTRACTED GTOS   3    2
                      NUMBER OF CLOSED SHELLS     2    0
                      OPEN SHELL OCCUPATION       0    3

  ZNUC SCFIT  TOTAL HF ENERGY   KINETIC ENERGY   VIRIAL THEOREM ACCURACY
   7.0   9   -5.432196661E+01  5.425066284E+01 -2.001314339E+00  1.2E-06

 NUCLEAR CHARGE 30.0  SYMMETRY SPECIES            S    P    D
 N. ELECTRONS   30.0  NUMBER OF PRIMITIVE GTOS   14    9    5
                      NUMBER OF CONTRACTED GTOS   5    3    2
                      NUMBER OF CLOSED SHELLS     4    2    1
                      OPEN SHELL OCCUPATION       0    0    0

  ZNUC SCFIT  TOTAL HF ENERGY   KINETIC ENERGY   VIRIAL THEOREM ACCURACY
  30.0  10   -1.777404290E+03  1.777325716E+03 -2.000044209E+00  2.5E-06

 NUCLEAR CHARGE 35.0  SYMMETRY SPECIES            S    P    D
 N. ELECTRONS   35.0  NUMBER OF PRIMITIVE GTOS   14   10    7
                      NUMBER OF CONTRACTED GTOS   5    4    4
                      NUMBER OF CLOSED SHELLS     4    2    1
                      OPEN SHELL OCCUPATION       0    5    0

  ZNUC SCFIT  TOTAL HF ENERGY   KINETIC ENERGY   VIRIAL THEOREM ACCURACY
  35.0  13   -2.572060514E+03  2.572021521E+03 -2.000015161E+00  3.6E-06

 AAAAAAAAAAAAAAAAAAAAAAAAAAAAAAAAAAAAAAAAAAAAAAAAAAAAAAAAAAAAAAAAAAAAAAAAAAAAAAA

 TOTAL ATOMIC CHARGES:
   1.0000000   1.0000000   1.0000000   1.0000000   6.0000000   6.0000000
   6.0000000   6.0000000   6.0000000   6.0000000   6.0000000   6.0000000
   6.0000000   6.0000000   6.0000000   6.0000000   6.0000000   6.0000000
   6.0000000   6.0000000   6.0000000   6.0000000   6.0000000   6.0000000
   6.0000000   6.0000000   6.0000000   6.0000000   7.0000000   7.0000000
   7.0000000   7.0000000   7.0000000   7.0000000   7.0000000   7.0000000
   7.0000000   7.0000000   7.0000000   7.0000000   7.0000000   7.0000000
   7.0000000   7.0000000   7.0000000   7.0000000   7.0000000   7.0000000
  30.0000000  30.0000000  35.0000000  35.0000000  35.0000000  35.0000000
  35.0000000  35.0000000  35.0000000  35.0000000  35.0000000  35.0000000
  35.0000000  35.0000000
 TTTTTTTTTTTTTTTTTTTTTTTTTTTTTT MOQGAD      TELAPSE       11.94 TCPU        2.49
 TTTTTTTTTTTTTTTTTTTTTTTTTTTTTT SHELLXN     TELAPSE       48.50 TCPU       24.40
 TTTTTTTTTTTTTTTTTTTTTTTTTTTTTT MONMO3      TELAPSE       52.96 TCPU       28.84
 NUMERICALLY INTEGRATED DENSITY    768.0000677682
 TTTTTTTTTTTTTTTTTTTTTTTTTTTTTT NUMDFT      TELAPSE       53.55 TCPU       29.43
 CYC   0 ETOT(AU) -3.645177086974E+04 DETOT -3.65E+04 tst  0.00E+00 PX  1.00E+00
 TTTTTTTTTTTTTTTTTTTTTTTTTTTTTT DIIS        TELAPSE       53.62 TCPU       29.50
 TTTTTTTTTTTTTTTTTTTTTTTTTTTTTT FDIK        TELAPSE       97.35 TCPU       63.43
 INSULATING STATE
 TOP OF VALENCE BANDS -    BAND    384; K    1; EIG -1.3212578E-01 AU
 BOTTOM OF VIRTUAL BANDS - BAND    385; K    1; EIG -8.9925991E-02 AU
 DIRECT ENERGY BAND GAP:   1.1483 eV
 TTTTTTTTTTTTTTTTTTTTTTTTTTTTTT PDIG        TELAPSE       98.43 TCPU       64.51
 TOTAL ATOMIC CHARGES:
   1.4451516   1.4451516   1.4451516   1.4451516   6.2134379   6.2134379
   6.2134379   6.2134379   5.4636959   5.4636959   5.4636959   5.4636959
   6.4273900   6.4273900   6.4273900   6.4273900   5.4111856   5.4111856
   5.4111856   5.4111856   5.3931349   5.3931349   5.3931349   5.3931349
   5.7062762   5.7062762   5.7062762   5.7062762   7.4635928   7.4635928
   7.4635928   7.4635928   7.2023371   7.2023371   7.2023371   7.2023371
   7.4342810   7.4342810   7.4342810   7.4342810   7.1683780   7.1683780
   7.1683780   7.1683780   7.6084566   7.6084566   7.6084566   7.6084566
  28.0644300  28.0513494  35.0870645  35.0870645  35.0870645  35.0870645
  34.9952485  34.9952485  34.9952485  34.9952485  34.9514247  34.9514247
  34.9514247  34.9514247
 TTTTTTTTTTTTTTTTTTTTTTTTTTTTTT MOQGAD      TELAPSE       98.45 TCPU       64.53
 TTTTTTTTTTTTTTTTTTTTTTTTTTTTTT SHELLXN     TELAPSE      126.87 TCPU       90.61
 TTTTTTTTTTTTTTTTTTTTTTTTTTTTTT MONMO3      TELAPSE      131.53 TCPU       95.24
 NUMERICALLY INTEGRATED DENSITY    768.0001726455
 TTTTTTTTTTTTTTTTTTTTTTTTTTTTTT NUMDFT      TELAPSE      133.15 TCPU       96.86
 CYC   1 ETOT(AU) -3.644638595832E+04 DETOT  5.38E+00 tst  0.00E+00 PX  1.00E+00
 TTTTTTTTTTTTTTTTTTTTTTTTTTTTTT DIIS        TELAPSE      133.33 TCPU       97.04
 DIIS TEST: 0.73251E+01 AT SCF   CYCLE   1 - MIX   30 %
 TTTTTTTTTTTTTTTTTTTTTTTTTTTTTT FDIK        TELAPSE      148.61 TCPU      107.90
 INSULATING STATE
 TOP OF VALENCE BANDS -    BAND    384; K    6; EIG -1.8089278E-01 AU
 TOP OF VALENCE BANDS -    BAND    384; K    1; EIG -1.8180435E-01 AU
 BOTTOM OF VIRTUAL BANDS - BAND    385; K    1; EIG -1.3230399E-01 AU
 INDIRECT ENERGY BAND GAP:   1.3222 eV
 TTTTTTTTTTTTTTTTTTTTTTTTTTTTTT PDIG        TELAPSE      149.69 TCPU      108.98
 TOTAL ATOMIC CHARGES:
   1.4058595   1.4058595   1.4058595   1.4058595   6.1124859   6.1124859
   6.1124859   6.1124859   6.3736913   6.3736913   6.3736913   6.3736913
   6.1886980   6.1886980   6.1886980   6.1886980   6.3814111   6.3814111
   6.3814111   6.3814111   6.3387230   6.3387230   6.3387230   6.3387230
   6.0295771   6.0295771   6.0295771   6.0295771   6.8261145   6.8261145
   6.8261145   6.8261145   7.0045209   7.0045209   7.0045209   7.0045209
   6.8822753   6.8822753   6.8822753   6.8822753   6.9646169   6.9646169
   6.9646169   6.9646169   6.0982180   6.0982180   6.0982180   6.0982180
  29.4010577  29.3263360  35.0401729  35.0401729  35.0401729  35.0401729
  34.8819505  34.8819505  34.8819505  34.8819505  34.7898367  34.7898367
  34.7898367  34.7898367
 TTTTTTTTTTTTTTTTTTTTTTTTTTTTTT MOQGAD      TELAPSE      149.72 TCPU      109.01
 TTTTTTTTTTTTTTTTTTTTTTTTTTTTTT SHELLXN     TELAPSE      178.22 TCPU      135.25
 TTTTTTTTTTTTTTTTTTTTTTTTTTTTTT MONMO3      TELAPSE      181.79 TCPU      138.81
 NUMERICALLY INTEGRATED DENSITY    768.0002283770
 TTTTTTTTTTTTTTTTTTTTTTTTTTTTTT NUMDFT      TELAPSE      183.37 TCPU      140.39
 CYC   2 ETOT(AU) -3.644553073639E+04 DETOT  8.55E-01 tst  1.29E-02 PX  6.96E-01
 TTTTTTTTTTTTTTTTTTTTTTTTTTTTTT DIIS        TELAPSE      183.57 TCPU      140.58
 DIIS TEST: 0.13444E+02 AT SCF   CYCLE   2 - DIIS ACTIVE - HISTORY:     2 CYCLES
 TTTTTTTTTTTTTTTTTTTTTTTTTTTTTT FDIK        TELAPSE      193.50 TCPU      149.31
 INSULATING STATE
 TOP OF VALENCE BANDS -    BAND    384; K    1; EIG -2.0929221E-01 AU
 BOTTOM OF VIRTUAL BANDS - BAND    385; K    1; EIG -1.2472066E-01 AU
 DIRECT ENERGY BAND GAP:   2.3013 eV
 TTTTTTTTTTTTTTTTTTTTTTTTTTTTTT PDIG        TELAPSE      194.59 TCPU      150.39
 TOTAL ATOMIC CHARGES:
   1.3903725   1.3903725   1.3903725   1.3903725   6.0250765   6.0250765
   6.0250765   6.0250765   5.8416616   5.8416616   5.8416616   5.8416616
   6.1987915   6.1987915   6.1987915   6.1987915   5.9011596   5.9011596
   5.9011596   5.9011596   5.8481082   5.8481082   5.8481082   5.8481082
   5.8019168   5.8019168   5.8019168   5.8019168   7.1594726   7.1594726
   7.1594726   7.1594726   7.1211429   7.1211429   7.1211429   7.1211429
   7.1448094   7.1448094   7.1448094   7.1448094   7.0586127   7.0586127
   7.0586127   7.0586127   7.3420721   7.3420721   7.3420721   7.3420721
  28.9403246  28.9928082  34.9524182  34.9524182  34.9524182  34.9524182
  34.8437730  34.8437730  34.8437730  34.8437730  34.8873293  34.8873293
  34.8873293  34.8873293
 TTTTTTTTTTTTTTTTTTTTTTTTTTTTTT MOQGAD      TELAPSE      194.61 TCPU      150.41
 TTTTTTTTTTTTTTTTTTTTTTTTTTTTTT SHELLXN     TELAPSE      223.26 TCPU      176.65
 TTTTTTTTTTTTTTTTTTTTTTTTTTTTTT MONMO3      TELAPSE      226.48 TCPU      179.86
 NUMERICALLY INTEGRATED DENSITY    768.0001881667
 TTTTTTTTTTTTTTTTTTTTTTTTTTTTTT NUMDFT      TELAPSE      228.06 TCPU      181.42
 CYC   3 ETOT(AU) -3.644762097333E+04 DETOT -2.09E+00 tst  4.40E-03 PX  3.73E-01
 TTTTTTTTTTTTTTTTTTTTTTTTTTTTTT DIIS        TELAPSE      228.25 TCPU      181.62
 DIIS TEST: 0.15795E+01 AT SCF   CYCLE   3 - DIIS ACTIVE - HISTORY:     3 CYCLES
 TTTTTTTTTTTTTTTTTTTTTTTTTTTTTT FDIK        TELAPSE      239.56 TCPU      188.47
 INSULATING STATE
 TOP OF VALENCE BANDS -    BAND    384; K    1; EIG -2.1914646E-01 AU
 BOTTOM OF VIRTUAL BANDS - BAND    385; K    5; EIG -1.1710934E-01 AU
 INDIRECT ENERGY BAND GAP:   2.7766 eV
 BOTTOM OF VIRTUAL BANDS - BAND    385; K    1; EIG -1.1384313E-01 AU
 TTTTTTTTTTTTTTTTTTTTTTTTTTTTTT PDIG        TELAPSE      240.64 TCPU      189.55
 TOTAL ATOMIC CHARGES:
   1.3887514   1.3887514   1.3887514   1.3887514   6.1873611   6.1873611
   6.1873611   6.1873611   5.8288467   5.8288467   5.8288467   5.8288467
   6.3928894   6.3928894   6.3928894   6.3928894   5.7620827   5.7620827
   5.7620827   5.7620827   5.7432578   5.7432578   5.7432578   5.7432578
   5.8979112   5.8979112   5.8979112   5.8979112   7.2006297   7.2006297
   7.2006297   7.2006297   7.1153364   7.1153364   7.1153364   7.1153364
   7.2034554   7.2034554   7.2034554   7.2034554   7.0858987   7.0858987
   7.0858987   7.0858987   6.9981061   6.9981061   6.9981061   6.9981061
  28.7417138  28.7736481  35.0301471  35.0301471  35.0301471  35.0301471
  34.9342865  34.9342865  34.9342865  34.9342865  34.8521992  34.8521992
  34.8521992  34.8521992
 TTTTTTTTTTTTTTTTTTTTTTTTTTTTTT MOQGAD      TELAPSE      240.67 TCPU      189.57
 TTTTTTTTTTTTTTTTTTTTTTTTTTTTTT SHELLXN     TELAPSE      267.11 TCPU      215.81
 TTTTTTTTTTTTTTTTTTTTTTTTTTTTTT MONMO3      TELAPSE      270.80 TCPU      219.49
 NUMERICALLY INTEGRATED DENSITY    768.0001922074
 TTTTTTTTTTTTTTTTTTTTTTTTTTTTTT NUMDFT      TELAPSE      272.38 TCPU      221.06
 CYC   4 ETOT(AU) -3.644779060151E+04 DETOT -1.70E-01 tst  1.44E-03 PX  1.28E-01
 TTTTTTTTTTTTTTTTTTTTTTTTTTTTTT DIIS        TELAPSE      272.56 TCPU      221.24
 DIIS TEST: 0.53825E+00 AT SCF   CYCLE   4 - DIIS ACTIVE - HISTORY:     4 CYCLES
 TTTTTTTTTTTTTTTTTTTTTTTTTTTTTT FDIK        TELAPSE      283.98 TCPU      232.43
 INSULATING STATE
 TOP OF VALENCE BANDS -    BAND    384; K    1; EIG -2.1927850E-01 AU
 BOTTOM OF VIRTUAL BANDS - BAND    385; K    5; EIG -1.1970642E-01 AU
 INDIRECT ENERGY BAND GAP:   2.7095 eV
 BOTTOM OF VIRTUAL BANDS - BAND    385; K    1; EIG -1.1565715E-01 AU
 TTTTTTTTTTTTTTTTTTTTTTTTTTTTTT PDIG        TELAPSE      285.07 TCPU      233.51
 TOTAL ATOMIC CHARGES:
   1.3922375   1.3922375   1.3922375   1.3922375   6.1380815   6.1380815
   6.1380815   6.1380815   5.8503718   5.8503718   5.8503718   5.8503718
   6.3051206   6.3051206   6.3051206   6.3051206   5.8807503   5.8807503
   5.8807503   5.8807503   5.8441217   5.8441217   5.8441217   5.8441217
   5.8466684   5.8466684   5.8466684   5.8466684   7.1758592   7.1758592
   7.1758592   7.1758592   7.1472967   7.1472967   7.1472967   7.1472967
   7.1510467   7.1510467   7.1510467   7.1510467   7.0817703   7.0817703
   7.0817703   7.0817703   7.0855294   7.0855294   7.0855294   7.0855294
  28.7358391  28.7452700  34.9947966  34.9947966  34.9947966  34.9947966
  34.8922642  34.8922642  34.8922642  34.8922642  34.8438078  34.8438078
  34.8438078  34.8438078
 TTTTTTTTTTTTTTTTTTTTTTTTTTTTTT MOQGAD      TELAPSE      285.09 TCPU      233.54
 TTTTTTTTTTTTTTTTTTTTTTTTTTTTTT SHELLXN     TELAPSE      313.60 TCPU      259.77
 TTTTTTTTTTTTTTTTTTTTTTTTTTTTTT MONMO3      TELAPSE      317.16 TCPU      263.32
 NUMERICALLY INTEGRATED DENSITY    768.0001908217
 TTTTTTTTTTTTTTTTTTTTTTTTTTTTTT NUMDFT      TELAPSE      318.78 TCPU      264.93
 CYC   5 ETOT(AU) -3.644785906594E+04 DETOT -6.85E-02 tst  2.36E-04 PX  3.18E-02
 TTTTTTTTTTTTTTTTTTTTTTTTTTTTTT DIIS        TELAPSE      318.99 TCPU      265.14
 DIIS TEST: 0.53076E-01 AT SCF   CYCLE   5 - DIIS ACTIVE - HISTORY:     5 CYCLES
 TTTTTTTTTTTTTTTTTTTTTTTTTTTTTT FDIK        TELAPSE      329.85 TCPU      273.76
 INSULATING STATE
 TOP OF VALENCE BANDS -    BAND    384; K    1; EIG -2.1852015E-01 AU
 BOTTOM OF VIRTUAL BANDS - BAND    385; K    5; EIG -1.1806189E-01 AU
 INDIRECT ENERGY BAND GAP:   2.7336 eV
 BOTTOM OF VIRTUAL BANDS - BAND    385; K    1; EIG -1.1435178E-01 AU
 TTTTTTTTTTTTTTTTTTTTTTTTTTTTTT PDIG        TELAPSE      330.94 TCPU      274.84
 TOTAL ATOMIC CHARGES:
   1.3954385   1.3954385   1.3954385   1.3954385   6.1315031   6.1315031
   6.1315031   6.1315031   5.8471993   5.8471993   5.8471993   5.8471993
   6.3145083   6.3145083   6.3145083   6.3145083   5.8363555   5.8363555
   5.8363555   5.8363555   5.7951640   5.7951640   5.7951640   5.7951640
   5.8526734   5.8526734   5.8526734   5.8526734   7.1699141   7.1699141
   7.1699141   7.1699141   7.1063706   7.1063706   7.1063706   7.1063706
   7.1918354   7.1918354   7.1918354   7.1918354   7.0883005   7.0883005
   7.0883005   7.0883005   7.0981603   7.0981603   7.0981603   7.0981603
  28.7639540  28.7788551  35.0116369  35.0116369  35.0116369  35.0116369
  34.9073169  34.9073169  34.9073169  34.9073169  34.8679211  34.8679211
  34.8679211  34.8679211
 TTTTTTTTTTTTTTTTTTTTTTTTTTTTTT MOQGAD      TELAPSE      330.96 TCPU      274.86
 TTTTTTTTTTTTTTTTTTTTTTTTTTTTTT SHELLXN     TELAPSE      357.52 TCPU      301.13
 TTTTTTTTTTTTTTTTTTTTTTTTTTTTTT MONMO3      TELAPSE      361.09 TCPU      304.68
 NUMERICALLY INTEGRATED DENSITY    768.0001930407
 TTTTTTTTTTTTTTTTTTTTTTTTTTTTTT NUMDFT      TELAPSE      362.68 TCPU      306.27
 CYC   6 ETOT(AU) -3.644786619722E+04 DETOT -7.13E-03 tst  1.73E-05 PX  4.07E-02
 TTTTTTTTTTTTTTTTTTTTTTTTTTTTTT DIIS        TELAPSE      362.88 TCPU      306.46
 DIIS TEST: 0.14618E-01 AT SCF   CYCLE   6 - DIIS ACTIVE - HISTORY:     6 CYCLES
 TTTTTTTTTTTTTTTTTTTTTTTTTTTTTT FDIK        TELAPSE      374.05 TCPU      315.42
 INSULATING STATE
 TOP OF VALENCE BANDS -    BAND    384; K    1; EIG -2.1850684E-01 AU
 BOTTOM OF VIRTUAL BANDS - BAND    385; K    5; EIG -1.1857089E-01 AU
 INDIRECT ENERGY BAND GAP:   2.7194 eV
 BOTTOM OF VIRTUAL BANDS - BAND    385; K    1; EIG -1.1508543E-01 AU
 TTTTTTTTTTTTTTTTTTTTTTTTTTTTTT PDIG        TELAPSE      375.14 TCPU      316.50
 TOTAL ATOMIC CHARGES:
   1.3906222   1.3906222   1.3906222   1.3906222   6.1327432   6.1327432
   6.1327432   6.1327432   5.8480782   5.8480782   5.8480782   5.8480782
   6.3160701   6.3160701   6.3160701   6.3160701   5.8348927   5.8348927
   5.8348927   5.8348927   5.8125979   5.8125979   5.8125979   5.8125979
   5.8552505   5.8552505   5.8552505   5.8552505   7.1941053   7.1941053
   7.1941053   7.1941053   7.1448061   7.1448061   7.1448061   7.1448061
   7.1509284   7.1509284   7.1509284   7.1509284   7.0656805   7.0656805
   7.0656805   7.0656805   7.0942963   7.0942963   7.0942963   7.0942963
  28.7660097  28.7810853  35.0081046  35.0081046  35.0081046  35.0081046
  34.9013356  34.9013356  34.9013356  34.9013356  34.8637147  34.8637147
  34.8637147  34.8637147
 TTTTTTTTTTTTTTTTTTTTTTTTTTTTTT MOQGAD      TELAPSE      375.16 TCPU      316.52
 TTTTTTTTTTTTTTTTTTTTTTTTTTTTTT SHELLXN     TELAPSE      403.77 TCPU      342.77
 TTTTTTTTTTTTTTTTTTTTTTTTTTTTTT MONMO3      TELAPSE      407.45 TCPU      346.41
 NUMERICALLY INTEGRATED DENSITY    768.0001919927
 TTTTTTTTTTTTTTTTTTTTTTTTTTTTTT NUMDFT      TELAPSE      409.04 TCPU      347.98
 CYC   7 ETOT(AU) -3.644786618263E+04 DETOT  1.46E-05 tst  1.64E-05 PX  1.20E-02
 TTTTTTTTTTTTTTTTTTTTTTTTTTTTTT DIIS        TELAPSE      409.23 TCPU      348.17
 DIIS TEST: 0.16399E-01 AT SCF   CYCLE   7 - DIIS ACTIVE - HISTORY:     7 CYCLES
 TTTTTTTTTTTTTTTTTTTTTTTTTTTTTT FDIK        TELAPSE      421.57 TCPU      356.12
 INSULATING STATE
 TOP OF VALENCE BANDS -    BAND    384; K    1; EIG -2.1880571E-01 AU
 BOTTOM OF VIRTUAL BANDS - BAND    385; K    5; EIG -1.1889789E-01 AU
 INDIRECT ENERGY BAND GAP:   2.7186 eV
 BOTTOM OF VIRTUAL BANDS - BAND    385; K    1; EIG -1.1514084E-01 AU
 TTTTTTTTTTTTTTTTTTTTTTTTTTTTTT PDIG        TELAPSE      422.65 TCPU      357.21
 TOTAL ATOMIC CHARGES:
   1.3917959   1.3917959   1.3917959   1.3917959   6.1313086   6.1313086
   6.1313086   6.1313086   5.8485022   5.8485022   5.8485022   5.8485022
   6.3123957   6.3123957   6.3123957   6.3123957   5.8497013   5.8497013
   5.8497013   5.8497013   5.8138919   5.8138919   5.8138919   5.8138919
   5.8548718   5.8548718   5.8548718   5.8548718   7.1704572   7.1704572
   7.1704572   7.1704572   7.1242675   7.1242675   7.1242675   7.1242675
   7.1742579   7.1742579   7.1742579   7.1742579   7.0862415   7.0862415
   7.0862415   7.0862415   7.0935604   7.0935604   7.0935604   7.0935604
  28.7598529  28.7777739  35.0035674  35.0035674  35.0035674  35.0035674
  34.9005687  34.9005687  34.9005687  34.9005687  34.8602054  34.8602054
  34.8602054  34.8602054
 TTTTTTTTTTTTTTTTTTTTTTTTTTTTTT MOQGAD      TELAPSE      422.68 TCPU      357.23
 TTTTTTTTTTTTTTTTTTTTTTTTTTTTTT SHELLXN     TELAPSE      449.22 TCPU      383.46
 TTTTTTTTTTTTTTTTTTTTTTTTTTTTTT MONMO3      TELAPSE      452.75 TCPU      386.96
 NUMERICALLY INTEGRATED DENSITY    768.0001919374
 TTTTTTTTTTTTTTTTTTTTTTTTTTTTTT NUMDFT      TELAPSE      454.37 TCPU      388.58
 CYC   8 ETOT(AU) -3.644786848029E+04 DETOT -2.30E-03 tst  1.15E-05 PX  6.68E-03
 TTTTTTTTTTTTTTTTTTTTTTTTTTTTTT DIIS        TELAPSE      454.58 TCPU      388.78
 DIIS TEST: 0.15228E-02 AT SCF   CYCLE   8 - DIIS ACTIVE - HISTORY:     8 CYCLES
 TTTTTTTTTTTTTTTTTTTTTTTTTTTTTT FDIK        TELAPSE      466.15 TCPU      400.15
 INSULATING STATE
 TOP OF VALENCE BANDS -    BAND    384; K    1; EIG -2.1875699E-01 AU
 BOTTOM OF VIRTUAL BANDS - BAND    385; K    5; EIG -1.1881337E-01 AU
 INDIRECT ENERGY BAND GAP:   2.7196 eV
 BOTTOM OF VIRTUAL BANDS - BAND    385; K    1; EIG -1.1512190E-01 AU
 TTTTTTTTTTTTTTTTTTTTTTTTTTTTTT PDIG        TELAPSE      467.24 TCPU      401.23
 TOTAL ATOMIC CHARGES:
   1.3924057   1.3924057   1.3924057   1.3924057   6.1335106   6.1335106
   6.1335106   6.1335106   5.8468994   5.8468994   5.8468994   5.8468994
   6.3106235   6.3106235   6.3106235   6.3106235   5.8479545   5.8479545
   5.8479545   5.8479545   5.8113275   5.8113275   5.8113275   5.8113275
   5.8495812   5.8495812   5.8495812   5.8495812   7.1814741   7.1814741
   7.1814741   7.1814741   7.1224831   7.1224831   7.1224831   7.1224831
   7.1755857   7.1755857   7.1755857   7.1755857   7.0774276   7.0774276
   7.0774276   7.0774276   7.0958411   7.0958411   7.0958411   7.0958411
  28.7615728  28.7766764  35.0068162  35.0068162  35.0068162  35.0068162
  34.9028441  34.9028441  34.9028441  34.9028441  34.8606635  34.8606635
  34.8606635  34.8606635
 TTTTTTTTTTTTTTTTTTTTTTTTTTTTTT MOQGAD      TELAPSE      467.26 TCPU      401.26
 TTTTTTTTTTTTTTTTTTTTTTTTTTTTTT SHELLXN     TELAPSE      496.97 TCPU      427.46
 TTTTTTTTTTTTTTTTTTTTTTTTTTTTTT MONMO3      TELAPSE      500.46 TCPU      430.94
 NUMERICALLY INTEGRATED DENSITY    768.0001923960
 TTTTTTTTTTTTTTTTTTTTTTTTTTTTTT NUMDFT      TELAPSE      502.08 TCPU      432.55
 CYC   9 ETOT(AU) -3.644786862105E+04 DETOT -1.41E-04 tst  1.02E-06 PX  2.69E-03
 TTTTTTTTTTTTTTTTTTTTTTTTTTTTTT DIIS        TELAPSE      502.28 TCPU      432.75
 DIIS TEST: 0.59889E-03 AT SCF   CYCLE   9 - DIIS ACTIVE - HISTORY:     9 CYCLES
 TTTTTTTTTTTTTTTTTTTTTTTTTTTTTT FDIK        TELAPSE      515.12 TCPU      444.29
 INSULATING STATE
 TOP OF VALENCE BANDS -    BAND    384; K    1; EIG -2.1876135E-01 AU
 BOTTOM OF VIRTUAL BANDS - BAND    385; K    5; EIG -1.1873793E-01 AU
 INDIRECT ENERGY BAND GAP:   2.7218 eV
 BOTTOM OF VIRTUAL BANDS - BAND    385; K    1; EIG -1.1501893E-01 AU
 TTTTTTTTTTTTTTTTTTTTTTTTTTTTTT PDIG        TELAPSE      516.20 TCPU      445.37
 TOTAL ATOMIC CHARGES:
   1.3920366   1.3920366   1.3920366   1.3920366   6.1315257   6.1315257
   6.1315257   6.1315257   5.8469247   5.8469247   5.8469247   5.8469247
   6.3134287   6.3134287   6.3134287   6.3134287   5.8459671   5.8459671
   5.8459671   5.8459671   5.8099211   5.8099211   5.8099211   5.8099211
   5.8552052   5.8552052   5.8552052   5.8552052   7.1748185   7.1748185
   7.1748185   7.1748185   7.1278458   7.1278458   7.1278458   7.1278458
   7.1703439   7.1703439   7.1703439   7.1703439   7.0826013   7.0826013
   7.0826013   7.0826013   7.0959692   7.0959692   7.0959692   7.0959692
  28.7625502  28.7791236  35.0056927  35.0056927  35.0056927  35.0056927
  34.9008548  34.9008548  34.9008548  34.9008548  34.8614461  34.8614461
  34.8614461  34.8614461
 TTTTTTTTTTTTTTTTTTTTTTTTTTTTTT MOQGAD      TELAPSE      516.23 TCPU      445.40
 TTTTTTTTTTTTTTTTTTTTTTTTTTTTTT SHELLXN     TELAPSE      545.20 TCPU      471.61
 TTTTTTTTTTTTTTTTTTTTTTTTTTTTTT MONMO3      TELAPSE      548.04 TCPU      474.44
 NUMERICALLY INTEGRATED DENSITY    768.0001919940
 TTTTTTTTTTTTTTTTTTTTTTTTTTTTTT NUMDFT      TELAPSE      549.67 TCPU      476.06
 CYC  10 ETOT(AU) -3.644786866888E+04 DETOT -4.78E-05 tst  6.11E-07 PX  1.65E-03
 TTTTTTTTTTTTTTTTTTTTTTTTTTTTTT DIIS        TELAPSE      549.88 TCPU      476.27
 DIIS TEST: 0.25862E-03 AT SCF   CYCLE  10 - DIIS ACTIVE - HISTORY:    10 CYCLES
 TTTTTTTTTTTTTTTTTTTTTTTTTTTTTT FDIK        TELAPSE      559.95 TCPU      484.83
 INSULATING STATE
 TOP OF VALENCE BANDS -    BAND    384; K    1; EIG -2.1867812E-01 AU
 BOTTOM OF VIRTUAL BANDS - BAND    385; K    5; EIG -1.1879591E-01 AU
 INDIRECT ENERGY BAND GAP:   2.7179 eV
 BOTTOM OF VIRTUAL BANDS - BAND    385; K    1; EIG -1.1509411E-01 AU
 TTTTTTTTTTTTTTTTTTTTTTTTTTTTTT PDIG        TELAPSE      561.04 TCPU      485.91
 TOTAL ATOMIC CHARGES:
   1.3920809   1.3920809   1.3920809   1.3920809   6.1325531   6.1325531
   6.1325531   6.1325531   5.8479242   5.8479242   5.8479242   5.8479242
   6.3125818   6.3125818   6.3125818   6.3125818   5.8455776   5.8455776
   5.8455776   5.8455776   5.8125497   5.8125497   5.8125497   5.8125497
   5.8526186   5.8526186   5.8526186   5.8526186   7.1775052   7.1775052
   7.1775052   7.1775052   7.1247393   7.1247393   7.1247393   7.1247393
   7.1733177   7.1733177   7.1733177   7.1733177   7.0806519   7.0806519
   7.0806519   7.0806519   7.0950869   7.0950869   7.0950869   7.0950869
  28.7614373  28.7776783  35.0050075  35.0050075  35.0050075  35.0050075
  34.9013517  34.9013517  34.9013517  34.9013517  34.8616749  34.8616749
  34.8616749  34.8616749
 TTTTTTTTTTTTTTTTTTTTTTTTTTTTTT MOQGAD      TELAPSE      561.06 TCPU      485.93
 TTTTTTTTTTTTTTTTTTTTTTTTTTTTTT SHELLXN     TELAPSE      587.65 TCPU      512.20
 TTTTTTTTTTTTTTTTTTTTTTTTTTTTTT MONMO3      TELAPSE      591.11 TCPU      515.65
 NUMERICALLY INTEGRATED DENSITY    768.0001921775
 TTTTTTTTTTTTTTTTTTTTTTTTTTTTTT NUMDFT      TELAPSE      592.72 TCPU      517.25
 CYC  11 ETOT(AU) -3.644786870108E+04 DETOT -3.22E-05 tst  1.55E-07 PX  1.02E-03
 TTTTTTTTTTTTTTTTTTTTTTTTTTTTTT DIIS        TELAPSE      592.93 TCPU      517.46
 DIIS TEST: 0.62520E-04 AT SCF   CYCLE  11 - DIIS ACTIVE - HISTORY:    11 CYCLES
 TTTTTTTTTTTTTTTTTTTTTTTTTTTTTT FDIK        TELAPSE      600.95 TCPU      525.29
 INSULATING STATE
 TOP OF VALENCE BANDS -    BAND    384; K    1; EIG -2.1878836E-01 AU
 BOTTOM OF VIRTUAL BANDS - BAND    385; K    5; EIG -1.1876562E-01 AU
 INDIRECT ENERGY BAND GAP:   2.7218 eV
 BOTTOM OF VIRTUAL BANDS - BAND    385; K    1; EIG -1.1504714E-01 AU
 TTTTTTTTTTTTTTTTTTTTTTTTTTTTTT PDIG        TELAPSE      602.03 TCPU      526.37
 TOTAL ATOMIC CHARGES:
   1.3920768   1.3920768   1.3920768   1.3920768   6.1318051   6.1318051
   6.1318051   6.1318051   5.8471125   5.8471125   5.8471125   5.8471125
   6.3120693   6.3120693   6.3120693   6.3120693   5.8472794   5.8472794
   5.8472794   5.8472794   5.8103036   5.8103036   5.8103036   5.8103036
   5.8532162   5.8532162   5.8532162   5.8532162   7.1777582   7.1777582
   7.1777582   7.1777582   7.1257332   7.1257332   7.1257332   7.1257332
   7.1725729   7.1725729   7.1725729   7.1725729   7.0802770   7.0802770
   7.0802770   7.0802770   7.0954331   7.0954331   7.0954331   7.0954331
  28.7617139  28.7780406  35.0062961  35.0062961  35.0062961  35.0062961
  34.9020829  34.9020829  34.9020829  34.9020829  34.8610450  34.8610450
  34.8610450  34.8610450
 TTTTTTTTTTTTTTTTTTTTTTTTTTTTTT MOQGAD      TELAPSE      602.05 TCPU      526.39
 TTTTTTTTTTTTTTTTTTTTTTTTTTTTTT SHELLXN     TELAPSE      630.80 TCPU      552.65
 TTTTTTTTTTTTTTTTTTTTTTTTTTTTTT MONMO3      TELAPSE      634.10 TCPU      555.95
 NUMERICALLY INTEGRATED DENSITY    768.0001921615
 TTTTTTTTTTTTTTTTTTTTTTTTTTTTTT NUMDFT      TELAPSE      635.69 TCPU      557.52
 CYC  12 ETOT(AU) -3.644786870500E+04 DETOT -3.91E-06 tst  4.02E-08 PX  5.32E-04
 TTTTTTTTTTTTTTTTTTTTTTTTTTTTTT DIIS        TELAPSE      635.89 TCPU      557.72
 DIIS TEST: 0.31795E-04 AT SCF   CYCLE  12 - DIIS ACTIVE - HISTORY:    12 CYCLES
 TTTTTTTTTTTTTTTTTTTTTTTTTTTTTT FDIK        TELAPSE      646.86 TCPU      566.48
 INSULATING STATE
 TOP OF VALENCE BANDS -    BAND    384; K    1; EIG -2.1874252E-01 AU
 BOTTOM OF VIRTUAL BANDS - BAND    385; K    5; EIG -1.1877406E-01 AU
 INDIRECT ENERGY BAND GAP:   2.7203 eV
 BOTTOM OF VIRTUAL BANDS - BAND    385; K    1; EIG -1.1506659E-01 AU
 TTTTTTTTTTTTTTTTTTTTTTTTTTTTTT PDIG        TELAPSE      647.94 TCPU      567.56
 TOTAL ATOMIC CHARGES:
   1.3920767   1.3920767   1.3920767   1.3920767   6.1325302   6.1325302
   6.1325302   6.1325302   5.8472849   5.8472849   5.8472849   5.8472849
   6.3125509   6.3125509   6.3125509   6.3125509   5.8461314   5.8461314
   5.8461314   5.8461314   5.8112280   5.8112280   5.8112280   5.8112280
   5.8527160   5.8527160   5.8527160   5.8527160   7.1770243   7.1770243
   7.1770243   7.1770243   7.1255910   7.1255910   7.1255910   7.1255910
   7.1724829   7.1724829   7.1724829   7.1724829   7.0808380   7.0808380
   7.0808380   7.0808380   7.0957810   7.0957810   7.0957810   7.0957810
  28.7619786  28.7782041  35.0057604  35.0057604  35.0057604  35.0057604
  34.9016389  34.9016389  34.9016389  34.9016389  34.8613197  34.8613197
  34.8613197  34.8613197
 TTTTTTTTTTTTTTTTTTTTTTTTTTTTTT MOQGAD      TELAPSE      647.97 TCPU      567.58
 TTTTTTTTTTTTTTTTTTTTTTTTTTTTTT SHELLXN     TELAPSE      676.53 TCPU      593.79
 TTTTTTTTTTTTTTTTTTTTTTTTTTTTTT MONMO3      TELAPSE      680.29 TCPU      597.54
 NUMERICALLY INTEGRATED DENSITY    768.0001921620
 TTTTTTTTTTTTTTTTTTTTTTTTTTTTTT NUMDFT      TELAPSE      681.87 TCPU      599.12
 CYC  13 ETOT(AU) -3.644786870932E+04 DETOT -4.32E-06 tst  1.67E-08 PX  2.89E-04
 TTTTTTTTTTTTTTTTTTTTTTTTTTTTTT DIIS        TELAPSE      682.10 TCPU      599.34
 DIIS TEST: 0.66610E-05 AT SCF   CYCLE  13 - DIIS ACTIVE - HISTORY:    13 CYCLES
 TTTTTTTTTTTTTTTTTTTTTTTTTTTTTT FDIK        TELAPSE      693.64 TCPU      608.55
 INSULATING STATE
 TOP OF VALENCE BANDS -    BAND    384; K    1; EIG -2.1873055E-01 AU
[...]
  29   7  N       7.0000      0.0000     0.74000000
  49  30  ZN     30.0000      0.0000     1.37000000
  51  35  BR     35.0000      0.0000     1.14000000

 SIZE OF GRID=     957896
 TTTTTTTTTTTTTTTTTTTTTTTTTTTTTT MAKE_GRID2  TELAPSE   110571.26 TCPU   109399.82
 BECKE WEIGHT FUNCTION
 RADSAFE =     2.00
 TOLERANCES - DENSITY:10**- 6; POTENTIAL:10**- 9; GRID WGT:10**-14

 RADIAL INTEGRATION  - INTERVALS (POINTS,UPPER LIMIT):            1( 75,  4.0*R)

 ANGULAR INTEGRATION - INTERVALS (ACCURACY LEVEL [N. POINTS] UPPER LIMIT):
  1(  4[  86]   0.2)  2(  8[ 194]   0.5)  3( 12[ 350]   0.9)  4( 16[ 974]   3.5)
  5( 12[ 350]9999.0)
 TTTTTTTTTTTTTTTTTTTTTTTTTTTTTT INT_CALC    TELAPSE   110571.30 TCPU   109399.87
 CYCLE   0   ALPHA 1287.182286  EPSILON    3.716759  DELTA    1.2872E+03
 TTTTTTTTTTTTTTTTTTTTTTTTTTTTTT MOQGAD      TELAPSE   110795.76 TCPU   109623.07
 TTTTTTTTTTTTTTTTTTTTTTTTTTTTTT CP_MONMON   TELAPSE   110800.44 TCPU   109627.73
 DIIS TEST: 0.16563E+03 AT CPHF  CYCLE   1 - MIX    0 %
 CYCLE   1   ALPHA  567.314497  EPSILON    2.197388  DELTA   -7.1987E+02
 TTTTTTTTTTTTTTTTTTTTTTTTTTTTTT MOQGAD      TELAPSE   111029.22 TCPU   109854.89
 TTTTTTTTTTTTTTTTTTTTTTTTTTTTTT CP_MONMON   TELAPSE   111033.90 TCPU   109859.55
 DIIS TEST: 0.12406E+04 AT CPHF  CYCLE   2 - DIIS ACTIVE - HISTORY:     2 CYCLES
 CYCLE   2   ALPHA  911.884365  EPSILON    2.924646  DELTA    3.4457E+02
 TTTTTTTTTTTTTTTTTTTTTTTTTTTTTT MOQGAD      TELAPSE   111262.73 TCPU   110086.41
 TTTTTTTTTTTTTTTTTTTTTTTTTTTTTT CP_MONMON   TELAPSE   111267.41 TCPU   110091.07
 DIIS TEST: 0.58661E+02 AT CPHF  CYCLE   3 - DIIS ACTIVE - HISTORY:     3 CYCLES
 CYCLE   3   ALPHA  985.795843  EPSILON    3.080645  DELTA    7.3911E+01
 TTTTTTTTTTTTTTTTTTTTTTTTTTTTTT MOQGAD      TELAPSE   111496.10 TCPU   110318.11
 TTTTTTTTTTTTTTTTTTTTTTTTTTTTTT CP_MONMON   TELAPSE   111500.77 TCPU   110322.77
 DIIS TEST: 0.62297E+01 AT CPHF  CYCLE   4 - DIIS ACTIVE - HISTORY:     4 CYCLES
 CYCLE   4   ALPHA  992.159106  EPSILON    3.094076  DELTA    6.3633E+00
 TTTTTTTTTTTTTTTTTTTTTTTTTTTTTT MOQGAD      TELAPSE   111729.39 TCPU   110549.56
 TTTTTTTTTTTTTTTTTTTTTTTTTTTTTT CP_MONMON   TELAPSE   111734.07 TCPU   110554.22
 DIIS TEST: 0.14393E+01 AT CPHF  CYCLE   5 - DIIS ACTIVE - HISTORY:     5 CYCLES
 CYCLE   5   ALPHA  993.693836  EPSILON    3.097315  DELTA    1.5347E+00
 TTTTTTTTTTTTTTTTTTTTTTTTTTTTTT MOQGAD      TELAPSE   111962.72 TCPU   110781.14
 TTTTTTTTTTTTTTTTTTTTTTTTTTTTTT CP_MONMON   TELAPSE   111967.42 TCPU   110785.82
 DIIS TEST: 0.97150E-01 AT CPHF  CYCLE   6 - DIIS ACTIVE - HISTORY:     6 CYCLES
 CYCLE   6   ALPHA  994.105450  EPSILON    3.098184  DELTA    4.1161E-01
 TTTTTTTTTTTTTTTTTTTTTTTTTTTTTT MOQGAD      TELAPSE   112196.18 TCPU   111012.82
 TTTTTTTTTTTTTTTTTTTTTTTTTTTTTT CP_MONMON   TELAPSE   112200.86 TCPU   111017.48
 DIIS TEST: 0.11398E+00 AT CPHF  CYCLE   7 - DIIS ACTIVE - HISTORY:     7 CYCLES
 CYCLE   7   ALPHA  994.410881  EPSILON    3.098828  DELTA    3.0543E-01
 TTTTTTTTTTTTTTTTTTTTTTTTTTTTTT MOQGAD      TELAPSE   112429.35 TCPU   111244.30
 TTTTTTTTTTTTTTTTTTTTTTTTTTTTTT CP_MONMON   TELAPSE   112434.03 TCPU   111248.96
 DIIS TEST: 0.14331E-01 AT CPHF  CYCLE   8 - DIIS ACTIVE - HISTORY:     8 CYCLES
 CYCLE   8   ALPHA  994.409535  EPSILON    3.098825  DELTA   -1.3460E-03
 TTTTTTTTTTTTTTTTTTTTTTTTTTTTTT MOQGAD      TELAPSE   112662.58 TCPU   111475.79
 TTTTTTTTTTTTTTTTTTTTTTTTTTTTTT CP_MONMON   TELAPSE   112667.26 TCPU   111480.46
 DIIS TEST: 0.70733E-03 AT CPHF  CYCLE   9 - DIIS ACTIVE - HISTORY:     9 CYCLES
 CYCLE   9   ALPHA  994.370062  EPSILON    3.098742  DELTA   -3.9473E-02
 TTTTTTTTTTTTTTTTTTTTTTTTTTTTTT MOQGAD      TELAPSE   112895.93 TCPU   111707.48
 TTTTTTTTTTTTTTTTTTTTTTTTTTTTTT CP_MONMON   TELAPSE   112900.61 TCPU   111712.15
 DIIS TEST: 0.12245E-03 AT CPHF  CYCLE  10 - DIIS ACTIVE - HISTORY:    10 CYCLES
 CYCLE  10   ALPHA  994.353920  EPSILON    3.098708  DELTA   -1.6142E-02
 TTTTTTTTTTTTTTTTTTTTTTTTTTTTTT MOQGAD      TELAPSE   113129.32 TCPU   111939.11
 TTTTTTTTTTTTTTTTTTTTTTTTTTTTTT CP_MONMON   TELAPSE   113134.01 TCPU   111943.79
 DIIS TEST: 0.10276E-04 AT CPHF  CYCLE  11 - DIIS ACTIVE - HISTORY:    11 CYCLES
 CYCLE  11   ALPHA  994.348944  EPSILON    3.098698  DELTA   -4.9765E-03
 TTTTTTTTTTTTTTTTTTTTTTTTTTTTTT MOQGAD      TELAPSE   113362.67 TCPU   112170.64
 TTTTTTTTTTTTTTTTTTTTTTTTTTTTTT CP_MONMON   TELAPSE   113367.36 TCPU   112175.31
 DIIS TEST: 0.30452E-05 AT CPHF  CYCLE  12 - DIIS ACTIVE - HISTORY:    12 CYCLES
 CYCLE  12   ALPHA  994.348628  EPSILON    3.098697  DELTA   -3.1553E-04
 TTTTTTTTTTTTTTTTTTTTTTTTTTTTTT CP_SC       TELAPSE   113388.24 TCPU   112194.85

 *******************************************************************************

 POLARIZABILITY (ALPHA), DIELECTRIC (EPSILON) AND FIRST-ORDER ELECTRIC
 SUSCEPTIBILITY (CHI(1)) TENSORS (INDEPENDENT COMPONENTS)

  FR.(eV) COMP.   ALPHA(Re,Im)           EPSILON(Re,Im)                CHI(1)
  1.435   XX    1551.2498       0.0000       4.2741       0.0000       3.2741
  1.435   ZZ     994.3486       0.0000       3.0987       0.0000       2.0987

 DIELECTRIC TENSOR

 TENSOR IN PRINCIPAL AXES SYSTEM
 AA  4.274106E+00 BB  4.274106E+00 CC  3.098697E+00

 REFRACTIVE INDICES 
 AA  1.760312E+00 BB  2.067391E+00 CC  2.067391E+00

 OPTICALLY ANISOTROPIC - UNIAXIAL CRYSTAL

 BIREFRINGENCE =  0.3071 (NEGATIVE) - OBLATE OPTICAL ELLIPSOID

 EPSILON=N**2=1+CHI(1)=1+ALPHA*4*PI/V,   4*PI/V=   0.00211 BOHR**(-3)
 ALPHA IN BOHR**3; EPSILON AND CHI(1) ARE DIMENSIONLESS.
 *******************************************************************************

 DYNAMIC FIELD: RUN 10/ 10 - RADIATION WAVELENGTH: 1064.0000 NM

 *******************************************************************************

 ELECTRIC FIELD APPLIED ALONG CARTESIAN DIRECTION X

 *******************************************************************************
 THE NUMBER OF SYMMETRY OPERATORS HAS BEEN REDUCED FROM  4 TO  1

 NEW GRID IN RECIPROCAL SPACE
 *******************************************************************************
 POINTS IN THE IBZ                  14 SHRINKING FACTORS               3  3  3
 *******************************************************************************
 *** K POINTS COORDINATES (OBLIQUE COORDINATES IN UNITS OF SHRINK FAC. )
   1-R(  0  0  0)   2-C(  1  0  0)   3-C(  0  1  2)   4-C(  2  0  1)
   5-C(  0  2  0)   6-C(  1  1  0)   7-C(  1  1  1)   8-C(  1  0  1)
   9-C(  0  1  1)  10-C(  2  1  0)  11-C(  0  0  2)  12-C(  2  1  1)
  13-C(  2  1  2)  14-C(  2  2  1)

 GCALCO - MAX INDICES DIRECT LATTICE VECTOR    15    15    14
 NO.OF VECTORS CREATED 6999 STARS  490 RMAX   215.32861 BOHR
 TTTTTTTTTTTTTTTTTTTTTTTTTTTTTT gordsh1     TELAPSE   113388.25 TCPU   112194.86

 MATRIX SIZE: P(G) 2049424, F(G) 1025488, P(G) IRR 1027390, F(G) IRR 1027390
 MAX G-VECTOR INDEX FOR 1- AND 2-ELECTRON INTEGRALS  59

 TTTTTTTTTTTTTTTTTTTTTTTTTTTTTT INPUT       TELAPSE   113388.39 TCPU   112194.99
 TTTTTTTTTTTTTTTTTTTTTTTTTTTTTT SYMM        TELAPSE   113388.39 TCPU   112194.99

 ***** NEW REFERENCE GEOMETRY *****
 TTTTTTTTTTTTTTTTTTTTTTTTTTTTTT INT_SCREEN  TELAPSE   113388.40 TCPU   112195.01
 INFORMATION **** EXCBUF **** EXCH. BIPO BUFFER: WORDS USED =           0

 DFT PARAMETERS

     ATOM       ELECTRONS   NET CHARGE   R(ANGSTROM)
   1   1  H       1.0000      0.0000     1.11000000
   5   6  C       6.0000      0.0000     0.77000000
  29   7  N       7.0000      0.0000     0.74000000
  49  30  ZN     30.0000      0.0000     1.37000000
  51  35  BR     35.0000      0.0000     1.14000000

 SIZE OF GRID=    1915558
 TTTTTTTTTTTTTTTTTTTTTTTTTTTTTT MAKE_GRID2  TELAPSE   113389.62 TCPU   112196.21
 BECKE WEIGHT FUNCTION
 RADSAFE =     2.00
 TOLERANCES - DENSITY:10**- 6; POTENTIAL:10**- 9; GRID WGT:10**-14

 RADIAL INTEGRATION  - INTERVALS (POINTS,UPPER LIMIT):            1( 75,  4.0*R)

 ANGULAR INTEGRATION - INTERVALS (ACCURACY LEVEL [N. POINTS] UPPER LIMIT):
  1(  4[  86]   0.2)  2(  8[ 194]   0.5)  3( 12[ 350]   0.9)  4( 16[ 974]   3.5)
  5( 12[ 350]9999.0)
 TTTTTTTTTTTTTTTTTTTTTTTTTTTTTT INT_CALC    TELAPSE   113389.68 TCPU   112196.27
 CYCLE   0   ALPHA 1975.283057  EPSILON    5.169081  DELTA    1.9753E+03
 TTTTTTTTTTTTTTTTTTTTTTTTTTTTTT MOQGAD      TELAPSE   113837.25 TCPU   112641.19
 TTTTTTTTTTTTTTTTTTTTTTTTTTTTTT CP_MONMON   TELAPSE   113845.98 TCPU   112649.89
 DIIS TEST: 0.33719E+03 AT CPHF  CYCLE   1 - MIX    0 %
 CYCLE   1   ALPHA  679.084393  EPSILON    2.433292  DELTA   -1.2962E+03
 TTTTTTTTTTTTTTTTTTTTTTTTTTTTTT MOQGAD      TELAPSE   114297.23 TCPU   113096.79
 TTTTTTTTTTTTTTTTTTTTTTTTTTTTTT CP_MONMON   TELAPSE   114305.95 TCPU   113105.49
 DIIS TEST: 0.28029E+04 AT CPHF  CYCLE   2 - DIIS ACTIVE - HISTORY:     2 CYCLES
 CYCLE   2   ALPHA 1406.485414  EPSILON    3.968563  DELTA    7.2740E+02
 TTTTTTTTTTTTTTTTTTTTTTTTTTTTTT MOQGAD      TELAPSE   114759.29 TCPU   113553.29
 TTTTTTTTTTTTTTTTTTTTTTTTTTTTTT CP_MONMON   TELAPSE   114768.02 TCPU   113561.99
 DIIS TEST: 0.92962E+02 AT CPHF  CYCLE   3 - DIIS ACTIVE - HISTORY:     3 CYCLES
 CYCLE   3   ALPHA 1493.865775  EPSILON    4.152990  DELTA    8.7380E+01
 TTTTTTTTTTTTTTTTTTTTTTTTTTTTTT MOQGAD      TELAPSE   115218.80 TCPU   114009.46
 TTTTTTTTTTTTTTTTTTTTTTTTTTTTTT CP_MONMON   TELAPSE   115227.53 TCPU   114018.16
 DIIS TEST: 0.91075E+01 AT CPHF  CYCLE   4 - DIIS ACTIVE - HISTORY:     4 CYCLES
 CYCLE   4   ALPHA 1512.806703  EPSILON    4.192967  DELTA    1.8941E+01
 TTTTTTTTTTTTTTTTTTTTTTTTTTTTTT MOQGAD      TELAPSE   115684.74 TCPU   114468.95
 TTTTTTTTTTTTTTTTTTTTTTTTTTTTTT CP_MONMON   TELAPSE   115693.48 TCPU   114477.65
 DIIS TEST: 0.22587E+01 AT CPHF  CYCLE   5 - DIIS ACTIVE - HISTORY:     5 CYCLES
 CYCLE   5   ALPHA 1516.846632  EPSILON    4.201494  DELTA    4.0399E+00
 TTTTTTTTTTTTTTTTTTTTTTTTTTTTTT MOQGAD      TELAPSE   116148.67 TCPU   114928.13
 TTTTTTTTTTTTTTTTTTTTTTTTTTTTTT CP_MONMON   TELAPSE   116157.40 TCPU   114936.83
 DIIS TEST: 0.19411E+00 AT CPHF  CYCLE   6 - DIIS ACTIVE - HISTORY:     6 CYCLES
 CYCLE   6   ALPHA 1518.188613  EPSILON    4.204327  DELTA    1.3420E+00
 TTTTTTTTTTTTTTTTTTTTTTTTTTTTTT MOQGAD      TELAPSE   116612.76 TCPU   115388.51
 TTTTTTTTTTTTTTTTTTTTTTTTTTTTTT CP_MONMON   TELAPSE   116621.48 TCPU   115397.20
 DIIS TEST: 0.27404E-01 AT CPHF  CYCLE   7 - DIIS ACTIVE - HISTORY:     7 CYCLES
 CYCLE   7   ALPHA 1518.789446  EPSILON    4.205595  DELTA    6.0083E-01
 TTTTTTTTTTTTTTTTTTTTTTTTTTTTTT MOQGAD      TELAPSE   117077.48 TCPU   115849.75
 TTTTTTTTTTTTTTTTTTTTTTTTTTTTTT CP_MONMON   TELAPSE   117086.21 TCPU   115858.44
 DIIS TEST: 0.70589E-02 AT CPHF  CYCLE   8 - DIIS ACTIVE - HISTORY:     8 CYCLES
 CYCLE   8   ALPHA 1518.854234  EPSILON    4.205731  DELTA    6.4788E-02
 TTTTTTTTTTTTTTTTTTTTTTTTTTTTTT MOQGAD      TELAPSE   117545.27 TCPU   116311.05
 TTTTTTTTTTTTTTTTTTTTTTTTTTTTTT CP_MONMON   TELAPSE   117554.20 TCPU   116319.83
 DIIS TEST: 0.47138E-03 AT CPHF  CYCLE   9 - DIIS ACTIVE - HISTORY:     9 CYCLES
 CYCLE   9   ALPHA 1518.809362  EPSILON    4.205637  DELTA   -4.4872E-02
 TTTTTTTTTTTTTTTTTTTTTTTTTTTTTT MOQGAD      TELAPSE   118008.36 TCPU   116770.31
 TTTTTTTTTTTTTTTTTTTTTTTTTTTTTT CP_MONMON   TELAPSE   118017.09 TCPU   116779.00
 DIIS TEST: 0.10277E-03 AT CPHF  CYCLE  10 - DIIS ACTIVE - HISTORY:    10 CYCLES
 CYCLE  10   ALPHA 1518.786438  EPSILON    4.205588  DELTA   -2.2924E-02
 TTTTTTTTTTTTTTTTTTTTTTTTTTTTTT MOQGAD      TELAPSE   118479.08 TCPU   117228.07
 TTTTTTTTTTTTTTTTTTTTTTTTTTTTTT CP_MONMON   TELAPSE   118487.83 TCPU   117236.78
 DIIS TEST: 0.14740E-04 AT CPHF  CYCLE  11 - DIIS ACTIVE - HISTORY:    11 CYCLES
 CYCLE  11   ALPHA 1518.773594  EPSILON    4.205561  DELTA   -1.2844E-02
 TTTTTTTTTTTTTTTTTTTTTTTTTTTTTT MOQGAD      TELAPSE   118947.92 TCPU   117689.13
 TTTTTTTTTTTTTTTTTTTTTTTTTTTTTT CP_MONMON   TELAPSE   118956.66 TCPU   117697.84
 DIIS TEST: 0.16971E-05 AT CPHF  CYCLE  12 - DIIS ACTIVE - HISTORY:    12 CYCLES
 CYCLE  12   ALPHA 1518.771745  EPSILON    4.205557  DELTA   -1.8485E-03
 TTTTTTTTTTTTTTTTTTTTTTTTTTTTTT MOQGAD      TELAPSE   119416.78 TCPU   118153.57
 TTTTTTTTTTTTTTTTTTTTTTTTTTTTTT CP_MONMON   TELAPSE   119425.52 TCPU   118162.28
 DIIS TEST: 0.34306E-06 AT CPHF  CYCLE  13 - DIIS ACTIVE - HISTORY:    13 CYCLES
 CYCLE  13   ALPHA 1518.771094  EPSILON    4.205556  DELTA   -6.5118E-04
 TTTTTTTTTTTTTTTTTTTTTTTTTTTTTT CP_SC       TELAPSE   119453.40 TCPU   118186.17

 *******************************************************************************

 ELECTRIC FIELD APPLIED ALONG CARTESIAN DIRECTION Z

 *******************************************************************************
 THE NUMBER OF SYMMETRY OPERATORS HAS BEEN REDUCED FROM  4 TO  2

 NEW GRID IN RECIPROCAL SPACE
 *******************************************************************************
 POINTS IN THE IBZ                  10 SHRINKING FACTORS               3  3  3
 *******************************************************************************
 *** K POINTS COORDINATES (OBLIQUE COORDINATES IN UNITS OF SHRINK FAC. )
   1-R(  0  0  0)   2-C(  1  0  0)   3-C(  2  0  1)   4-C(  1  1  0)
   5-C(  1  0  1)   6-C(  2  1  0)   7-C(  0  0  2)   8-C(  2  1  1)
   9-C(  2  1  2)  10-C(  2  2  1)

 GCALCO - MAX INDICES DIRECT LATTICE VECTOR    15    15    14
 NO.OF VECTORS CREATED 6999 STARS  490 RMAX   215.32861 BOHR
 TTTTTTTTTTTTTTTTTTTTTTTTTTTTTT gordsh1     TELAPSE   119453.41 TCPU   118186.18

 MATRIX SIZE: P(G) 2049424, F(G) 1025488, P(G) IRR  516050, F(G) IRR  516050
 MAX G-VECTOR INDEX FOR 1- AND 2-ELECTRON INTEGRALS  59

 TTTTTTTTTTTTTTTTTTTTTTTTTTTTTT INPUT       TELAPSE   119453.45 TCPU   118186.21
 TTTTTTTTTTTTTTTTTTTTTTTTTTTTTT SYMM        TELAPSE   119453.45 TCPU   118186.21

 ***** NEW REFERENCE GEOMETRY *****
 TTTTTTTTTTTTTTTTTTTTTTTTTTTTTT INT_SCREEN  TELAPSE   119453.45 TCPU   118186.22
 INFORMATION **** EXCBUF **** EXCH. BIPO BUFFER: WORDS USED =           0

 DFT PARAMETERS

     ATOM       ELECTRONS   NET CHARGE   R(ANGSTROM)
   1   1  H       1.0000      0.0000     1.11000000
   5   6  C       6.0000      0.0000     0.77000000
  29   7  N       7.0000      0.0000     0.74000000
  49  30  ZN     30.0000      0.0000     1.37000000
  51  35  BR     35.0000      0.0000     1.14000000

 SIZE OF GRID=     957896
 TTTTTTTTTTTTTTTTTTTTTTTTTTTTTT MAKE_GRID2  TELAPSE   119454.24 TCPU   118187.00
 BECKE WEIGHT FUNCTION
 RADSAFE =     2.00
 TOLERANCES - DENSITY:10**- 6; POTENTIAL:10**- 9; GRID WGT:10**-14

 RADIAL INTEGRATION  - INTERVALS (POINTS,UPPER LIMIT):            1( 75,  4.0*R)

 ANGULAR INTEGRATION - INTERVALS (ACCURACY LEVEL [N. POINTS] UPPER LIMIT):
  1(  4[  86]   0.2)  2(  8[ 194]   0.5)  3( 12[ 350]   0.9)  4( 16[ 974]   3.5)
  5( 12[ 350]9999.0)
 TTTTTTTTTTTTTTTTTTTTTTTTTTTTTT INT_CALC    TELAPSE   119454.28 TCPU   118187.04
 CYCLE   0   ALPHA 1262.243535  EPSILON    3.664122  DELTA    1.2622E+03
 TTTTTTTTTTTTTTTTTTTTTTTTTTTTTT MOQGAD      TELAPSE   119686.83 TCPU   118418.39
 TTTTTTTTTTTTTTTTTTTTTTTTTTTTTT CP_MONMON   TELAPSE   119691.51 TCPU   118423.06
 DIIS TEST: 0.15739E+03 AT CPHF  CYCLE   1 - MIX    0 %
 CYCLE   1   ALPHA  576.078499  EPSILON    2.215886  DELTA   -6.8617E+02
 TTTTTTTTTTTTTTTTTTTTTTTTTTTTTT MOQGAD      TELAPSE   119930.11 TCPU   118659.98
 TTTTTTTTTTTTTTTTTTTTTTTTTTTTTT CP_MONMON   TELAPSE   119934.80 TCPU   118664.65
 DIIS TEST: 0.11237E+04 AT CPHF  CYCLE   2 - DIIS ACTIVE - HISTORY:     2 CYCLES
 CYCLE   2   ALPHA  900.572703  EPSILON    2.900771  DELTA    3.2449E+02
 TTTTTTTTTTTTTTTTTTTTTTTTTTTTTT MOQGAD      TELAPSE   120174.65 TCPU   118902.55
 TTTTTTTTTTTTTTTTTTTTTTTTTTTTTT CP_MONMON   TELAPSE   120179.33 TCPU   118907.20
 DIIS TEST: 0.56176E+02 AT CPHF  CYCLE   3 - DIIS ACTIVE - HISTORY:     3 CYCLES
 CYCLE   3   ALPHA  970.787371  EPSILON    3.048968  DELTA    7.0215E+01
 TTTTTTTTTTTTTTTTTTTTTTTTTTTTTT MOQGAD      TELAPSE   120418.12 TCPU   119144.07
 TTTTTTTTTTTTTTTTTTTTTTTTTTTTTT CP_MONMON   TELAPSE   120422.80 TCPU   119148.74
 DIIS TEST: 0.56458E+01 AT CPHF  CYCLE   4 - DIIS ACTIVE - HISTORY:     4 CYCLES
 CYCLE   4   ALPHA  976.798885  EPSILON    3.061656  DELTA    6.0115E+00
 TTTTTTTTTTTTTTTTTTTTTTTTTTTTTT MOQGAD      TELAPSE   120664.95 TCPU   119389.09
 TTTTTTTTTTTTTTTTTTTTTTTTTTTTTT CP_MONMON   TELAPSE   120669.63 TCPU   119393.76
 DIIS TEST: 0.12446E+01 AT CPHF  CYCLE   5 - DIIS ACTIVE - HISTORY:     5 CYCLES
 CYCLE   5   ALPHA  978.212133  EPSILON    3.064639  DELTA    1.4132E+00
 TTTTTTTTTTTTTTTTTTTTTTTTTTTTTT MOQGAD      TELAPSE   120910.48 TCPU   119632.87
 TTTTTTTTTTTTTTTTTTTTTTTTTTTTTT CP_MONMON   TELAPSE   120915.16 TCPU   119637.54
 DIIS TEST: 0.65237E-01 AT CPHF  CYCLE   6 - DIIS ACTIVE - HISTORY:     6 CYCLES
 CYCLE   6   ALPHA  978.631066  EPSILON    3.065523  DELTA    4.1893E-01
 TTTTTTTTTTTTTTTTTTTTTTTTTTTTTT MOQGAD      TELAPSE   121157.21 TCPU   119877.82
 TTTTTTTTTTTTTTTTTTTTTTTTTTTTTT CP_MONMON   TELAPSE   121161.90 TCPU   119882.49
 DIIS TEST: 0.11005E+00 AT CPHF  CYCLE   7 - DIIS ACTIVE - HISTORY:     7 CYCLES
 CYCLE   7   ALPHA  978.865441  EPSILON    3.066018  DELTA    2.3437E-01
 TTTTTTTTTTTTTTTTTTTTTTTTTTTTTT MOQGAD      TELAPSE   121401.75 TCPU   120120.40
 TTTTTTTTTTTTTTTTTTTTTTTTTTTTTT CP_MONMON   TELAPSE   121406.43 TCPU   120125.06
 DIIS TEST: 0.13837E-01 AT CPHF  CYCLE   8 - DIIS ACTIVE - HISTORY:     8 CYCLES
 CYCLE   8   ALPHA  978.862133  EPSILON    3.066011  DELTA   -3.3086E-03
 TTTTTTTTTTTTTTTTTTTTTTTTTTTTTT MOQGAD      TELAPSE   121666.31 TCPU   120382.99
 TTTTTTTTTTTTTTTTTTTTTTTTTTTTTT CP_MONMON   TELAPSE   121670.99 TCPU   120387.65
 DIIS TEST: 0.58816E-03 AT CPHF  CYCLE   9 - DIIS ACTIVE - HISTORY:     9 CYCLES
 CYCLE   9   ALPHA  978.826576  EPSILON    3.065936  DELTA   -3.5556E-02
 TTTTTTTTTTTTTTTTTTTTTTTTTTTTTT MOQGAD      TELAPSE   121914.94 TCPU   120629.61
 TTTTTTTTTTTTTTTTTTTTTTTTTTTTTT CP_MONMON   TELAPSE   121919.63 TCPU   120634.28
 DIIS TEST: 0.96072E-04 AT CPHF  CYCLE  10 - DIIS ACTIVE - HISTORY:    10 CYCLES
 CYCLE  10   ALPHA  978.811087  EPSILON    3.065903  DELTA   -1.5489E-02
 TTTTTTTTTTTTTTTTTTTTTTTTTTTTTT MOQGAD      TELAPSE   122159.31 TCPU   120872.03
 TTTTTTTTTTTTTTTTTTTTTTTTTTTTTT CP_MONMON   TELAPSE   122163.99 TCPU   120876.69
 DIIS TEST: 0.76758E-05 AT CPHF  CYCLE  11 - DIIS ACTIVE - HISTORY:    11 CYCLES
 CYCLE  11   ALPHA  978.807222  EPSILON    3.065895  DELTA   -3.8644E-03
 TTTTTTTTTTTTTTTTTTTTTTTTTTTTTT MOQGAD      TELAPSE   126002.49 TCPU   121113.32
 TTTTTTTTTTTTTTTTTTTTTTTTTTTTTT CP_MONMON   TELAPSE   126007.17 TCPU   121117.98
 DIIS TEST: 0.17821E-05 AT CPHF  CYCLE  12 - DIIS ACTIVE - HISTORY:    12 CYCLES
 CYCLE  12   ALPHA  978.806479  EPSILON    3.065893  DELTA   -7.4327E-04
 TTTTTTTTTTTTTTTTTTTTTTTTTTTTTT CP_SC       TELAPSE   126030.68 TCPU   121139.86

 *******************************************************************************

 POLARIZABILITY (ALPHA), DIELECTRIC (EPSILON) AND FIRST-ORDER ELECTRIC
 SUSCEPTIBILITY (CHI(1)) TENSORS (INDEPENDENT COMPONENTS)

  FR.(eV) COMP.   ALPHA(Re,Im)           EPSILON(Re,Im)                CHI(1)
  1.165   XX    1518.7711       0.0000       4.2056       0.0000       3.2056
  1.165   ZZ     978.8065       0.0000       3.0659       0.0000       2.0659

 DIELECTRIC TENSOR

 TENSOR IN PRINCIPAL AXES SYSTEM
 AA  4.205556E+00 BB  4.205556E+00 CC  3.065893E+00

 REFRACTIVE INDICES 
 AA  1.750969E+00 BB  2.050745E+00 CC  2.050745E+00

 OPTICALLY ANISOTROPIC - UNIAXIAL CRYSTAL

 BIREFRINGENCE =  0.2998 (NEGATIVE) - OBLATE OPTICAL ELLIPSOID

 EPSILON=N**2=1+CHI(1)=1+ALPHA*4*PI/V,   4*PI/V=   0.00211 BOHR**(-3)
 ALPHA IN BOHR**3; EPSILON AND CHI(1) ARE DIMENSIONLESS.
 *******************************************************************************


 GCALCO - MAX INDICES DIRECT LATTICE VECTOR    15    15    14
 NO.OF VECTORS CREATED 6999 STARS  490 RMAX   215.32861 BOHR

 CAPPA:IS1  3;IS2  3;IS3  3; K PTS MONK NET   6; SYMMOPS:K SPACE   8;G SPACE   4

 TTTTTTTTTTTTTTTTTTTTTTTTTTTTTT END         TELAPSE   126030.73 TCPU   121139.86
 EEEEEEEEEE TERMINATION  DATE 10 03 2024 TIME 03:02:48.5
NODE    0 CPU TIME =    121139.865
    TOTAL CPU TIME =   7757913.457
