Loading crystal17/1.0.2/intel/19.0
  Loading requirement: intel/19.0 ompi/4.0.1/intel/19.0
          64 PROCESSORS WORKING

         
 *******************************************************************************
 *                                                                             *
 *                               CRYSTAL17                                     *
 *                      public : 1.0.2 - March 1st, 2018                       *
 *                       HTTP://WWW.CRYSTAL.UNITO.IT                           *
 *                                                                             *
 *                              MAIN AUTHORS                                   *
 *                                                                             *
 *  R. DOVESI(1,11), V.R. SAUNDERS(2), C. ROETTI(1,11), R. ORLANDO(1,11),      *
 *  C.M. ZICOVICH-WILSON(1,3), F. PASCALE(4), B. CIVALLERI(1,11),              *
 *  K. DOLL(5), N.M. HARRISON(2,6), I.J. BUSH(7), Ph. D'ARCO(8),               *
 *  M. LLUNELL(9), M. CAUSA'(10), Y. NOEL(8), L. MASCHIO(1,11), A. ERBA(1,11)  *
 *  M. RE'RAT(14), S. CASASSA(1,11)                                            *
 *                                                                             *
 *        CONTRIBUTIONS TO THE CODE HAVE ALSO BEEN GIVEN BY                    *
 *                                                                             *
 *  M. FERRABONE(1,11), M. DE LA PIERRE(1,11), M. FERRERO(1,11),               *
 *  J. BAIMA(1,11), E. ALBANESE(1,11), M.F. PEINTINGER(12), R. BAST(13),       *
 *  B. KIRTMAN(15), V. LACIVITA(1,11), R. DEMICHELIS(1,16)                     *
 *  G. BRANDEBURG(17), S. SALUSTRO(1,11), G. SANSONE(1,11)                     *
 *  M.T. RUGGIERO(18)                                                          *
 *                                                                             *
 * (1) THEORETICAL CHEMISTRY GROUP - UNIVERSITA' DI TORINO - TORINO (ITALY)    *
 * (2) COMPUTATIONAL SCIENCE & ENGINEERING DEPARTMENT - STFC DARESBURY (UK)    *
 * (3) UNIVERSIDAD AUTONOMA DEL ESTADO DE MORELOS - CUERNAVACA (MEXICO)        *
 * (4) UNIVERSITE' DE LORRAINE - NANCY (FRANCE)                                *
 * (5) UNIVERSITAET STUTTGART- STUTTGART (GERMANY)                             *
 * (6) IMPERIAL COLLEGE - LONDON (UK)                                          *
 * (7) OXFORD E-RESEARCH CENTRE - OXFORD (UK)                                  *
 * (8) UPMC - SORBONNE UNIVERSITES - PARIS (FRANCE)                            *
 * (9) UNIVERSIDAD DE BARCELONA - BARCELONA (SPAIN)                            *
 *(10) UNIVERSITA' DI NAPOLI "FEDERICO II" - NAPOLI (ITALY)                    *
 *(11) NIS - NANOSTRUCTURED INTERFACES AND SURFACES - TORINO (ITALY)           *
 *(12) MPI FUER CHEMISCHE ENERGIEKONVERSION - MUELHEIM AN DER RUHR (GERMANY)   *
 *(13) UNIVERSITY OF TROMSO - TROMSO (NORWAY)                                  *
 *(14) UNIVERSITE' DE PAU ET DES PAYS DE L'ADOUR - PAU (FRANCE)                *
 *(15) UNIVERSITY OF CALIFORNIA SANTA BARBARA - SANTA BARBARA (USA)            *
 *(16) CURTIN UNIVERSITY - PERTH (AUSTRALIA)                                   *
 *(17) UNIVERSITY COLLEGE LONDON - LONDON (UK)                                 *
 *(18) CAMBRIDGE UNIVERSITY - CAMBRIDGE (UK)                                   *
 *                                                                             *
 *******************************************************************************
 EEEEEEEEEE STARTING  DATE 26 03 2024 TIME 17:14:51.8
 Z:\home\sanoj\Downloads\tmp_p\newconn.mol                                       

 CRYSTAL CALCULATION
 (INPUT ACCORDING TO THE INTERNATIONAL TABLES FOR X-RAY CRYSTALLOGRAPHY)
 CRYSTAL FAMILY                       :  TETRAGONAL  
 CRYSTAL CLASS  (GROTH - 1921)        :  TETRAGONAL DISPHENOIDAL              

 SPACE GROUP (NONCENTROSYMMETRIC)     :  I -4            

 LATTICE PARAMETERS  (ANGSTROMS AND DEGREES) - CONVENTIONAL CELL
        A           B           C        ALPHA        BETA       GAMMA
    11.32400    11.32400    13.78200    90.00000    90.00000    90.00000


 NUMBER OF IRREDUCIBLE ATOMS IN THE CONVENTIONAL CELL:   17

 INPUT COORDINATES

 ATOM AT. N.              COORDINATES
   1   1     6.110100000000E-01 -2.579000000000E-02  1.499500000000E-01
   2   6     7.521400000000E-01  7.068600000000E-01  1.237200000000E-01
   3   6     7.396200000000E-01  5.782900000000E-01  1.318200000000E-01
   4   6     6.594900000000E-01  7.900200000000E-01  1.339300000000E-01
   5   6     7.990700000000E-01 -5.197000000000E-02  1.315700000000E-01
   6   6     8.638300000000E-01  7.591300000000E-01  1.090500000000E-01
   7   6     3.177900000000E-01  8.953000000000E-02  1.413300000000E-01
   8   7     8.181500000000E-01  5.093000000000E-01  1.824500000000E-01
   9   7     7.798100000000E-01  3.954900000000E-01  1.726300000000E-01
  10   7     6.547800000000E-01  5.074300000000E-01  9.168000000000E-02
  11   7     6.849700000000E-01  3.941200000000E-01  1.175200000000E-01
  12   7     8.868600000000E-01  8.735100000000E-01  1.128700000000E-01
  13  30     0.000000000000E+00  5.000000000000E-01  2.500000000000E-01
  14  30     0.000000000000E+00  0.000000000000E+00  5.000000000000E-01
  15  35     5.005800000000E-01  7.426300000000E-01  1.310300000000E-01
  16  35    -6.220000000000E-03  6.604900000000E-01  7.264000000000E-02
  17  35     8.296200000000E-01  1.120100000000E-01  1.373600000000E-01

 *******************************************************************************

 << INFORMATION >>: FROM NOW ON, ALL COORDINATES REFER TO THE PRIMITIVE CELL

 *******************************************************************************

 LATTICE PARAMETERS  (ANGSTROMS AND DEGREES) - PRIMITIVE CELL
       A          B          C        ALPHA      BETA     GAMMA        VOLUME
   10.56420   10.56420   10.56420   115.18179 115.18179  98.56994    883.653438

 COORDINATES OF THE EQUIVALENT ATOMS (FRACTIONAL UNITS)

 N. ATOM EQUIV AT. N.          X                  Y                  Z

   1   1   1    1 H     1.24160000000E-01 -2.39040000000E-01 -4.14780000000E-01
   2   1   2    1 H     1.75740000000E-01 -4.61060000000E-01  4.14780000000E-01
   3   1   3    1 H     2.39040000000E-01 -1.75740000000E-01  3.63200000000E-01
   4   1   4    1 H     4.61060000000E-01 -1.24160000000E-01 -3.63200000000E-01

   5   2   1    6 C    -1.69420000000E-01 -1.24140000000E-01  4.59000000000E-01
   6   2   2    6 C     4.16860000000E-01  3.71580000000E-01 -4.59000000000E-01
   7   2   3    6 C     1.24140000000E-01 -4.16860000000E-01 -4.52800000000E-02
   8   2   4    6 C    -3.71580000000E-01  1.69420000000E-01  4.52800000000E-02

   9   3   1    6 C    -2.89890000000E-01 -1.28560000000E-01  3.17910000000E-01
  10   3   2    6 C    -4.46470000000E-01  3.92200000000E-01 -3.17910000000E-01
  11   3   3    6 C     1.28560000000E-01  4.46470000000E-01 -1.61330000000E-01
  12   3   4    6 C    -3.92200000000E-01  2.89890000000E-01  1.61330000000E-01

  13   4   1    6 C    -7.60500000000E-02 -2.06580000000E-01  4.49510000000E-01
  14   4   2    6 C     3.43910000000E-01  4.74440000000E-01 -4.49510000000E-01
  15   4   3    6 C     2.06580000000E-01 -3.43910000000E-01  1.30530000000E-01
  16   4   4    6 C    -4.74440000000E-01  7.60500000000E-02 -1.30530000000E-01

  17   5   1    6 C     7.96000000000E-02 -6.93600000000E-02 -2.52900000000E-01
  18   5   2    6 C     1.83540000000E-01  3.32500000000E-01  2.52900000000E-01
  19   5   3    6 C     6.93600000000E-02 -1.83540000000E-01  1.48960000000E-01
  20   5   4    6 C    -3.32500000000E-01 -7.96000000000E-02 -1.48960000000E-01

  21   6   1    6 C    -1.31820000000E-01 -2.71200000000E-02 -3.77040000000E-01
  22   6   2    6 C     3.49920000000E-01  2.45220000000E-01  3.77040000000E-01
  23   6   3    6 C     2.71200000000E-02 -3.49920000000E-01 -1.04700000000E-01
  24   6   4    6 C    -2.45220000000E-01  1.31820000000E-01  1.04700000000E-01

  25   7   1    6 C     2.30860000000E-01  4.59120000000E-01  4.07320000000E-01
  26   7   2    6 C     5.18000000000E-02 -1.76460000000E-01 -4.07320000000E-01
  27   7   3    6 C    -4.59120000000E-01 -5.18000000000E-02 -2.28260000000E-01
  28   7   4    6 C     1.76460000000E-01 -2.30860000000E-01  2.28260000000E-01

  29   8   1    7 N    -3.08250000000E-01  6.00000000000E-04  3.27450000000E-01
  30   8   2    7 N    -3.26850000000E-01  3.64300000000E-01 -3.27450000000E-01
  31   8   3    7 N    -6.00000000000E-04  3.26850000000E-01 -3.08850000000E-01
  32   8   4    7 N    -3.64300000000E-01  3.08250000000E-01  3.08850000000E-01

  33   9   1    7 N    -4.31880000000E-01 -4.75600000000E-02  1.75300000000E-01
  34   9   2    7 N    -2.22860000000E-01  3.92820000000E-01 -1.75300000000E-01
  35   9   3    7 N     4.75600000000E-02  2.22860000000E-01 -3.84320000000E-01
  36   9   4    7 N    -3.92820000000E-01  4.31880000000E-01  3.84320000000E-01

  37  10   1    7 N    -4.00890000000E-01 -2.53540000000E-01  1.62210000000E-01
  38  10   2    7 N    -4.15750000000E-01  4.36900000000E-01 -1.62210000000E-01
  39  10   3    7 N     2.53540000000E-01  4.15750000000E-01 -1.47350000000E-01
  40  10   4    7 N    -4.36900000000E-01  4.00890000000E-01  1.47350000000E-01

  41  11   1    7 N    -4.88360000000E-01 -1.97510000000E-01  7.90900000000E-02
  42  11   2    7 N    -2.76600000000E-01  4.32550000000E-01 -7.90900000000E-02
  43  11   3    7 N     1.97510000000E-01  2.76600000000E-01 -2.90850000000E-01
  44  11   4    7 N    -4.32550000000E-01  4.88360000000E-01  2.90850000000E-01

  45  12   1    7 N    -1.36200000000E-02 -2.70000000000E-04 -2.39630000000E-01
  46  12   2    7 N     2.39360000000E-01  2.26010000000E-01  2.39630000000E-01
  47  12   3    7 N     2.70000000000E-04 -2.39360000000E-01 -1.33500000000E-02
  48  12   4    7 N    -2.26010000000E-01  1.36200000000E-02  1.33500000000E-02

  49  13   1   30 ZN   -2.50000000000E-01  2.50000000000E-01 -5.00000000000E-01

  50  14   1   30 ZN   -5.00000000000E-01 -5.00000000000E-01  0.00000000000E+00

  51  15   1   35 BR   -1.26340000000E-01 -3.68390000000E-01  2.43210000000E-01
  52  15   2   35 BR    3.88400000000E-01 -3.69550000000E-01 -2.43210000000E-01
  53  15   3   35 BR    3.68390000000E-01 -3.88400000000E-01  2.42050000000E-01
  54  15   4   35 BR    3.69550000000E-01  1.26340000000E-01 -2.42050000000E-01

  55  16   1   35 BR   -2.66870000000E-01  6.64200000000E-02 -3.45730000000E-01
  56  16   2   35 BR    4.12150000000E-01  7.88600000000E-02  3.45730000000E-01
  57  16   3   35 BR   -6.64200000000E-02 -4.12150000000E-01 -3.33290000000E-01
  58  16   4   35 BR   -7.88600000000E-02  2.66870000000E-01  3.33290000000E-01

  59  17   1   35 BR    2.49370000000E-01 -3.30200000000E-02 -5.83700000000E-02
  60  17   2   35 BR    2.53500000000E-02  3.07740000000E-01  5.83700000000E-02
  61  17   3   35 BR    3.30200000000E-02 -2.53500000000E-02  2.82390000000E-01
  62  17   4   35 BR   -3.07740000000E-01 -2.49370000000E-01 -2.82390000000E-01

 NUMBER OF SYMMETRY OPERATORS         :    4
 *******************************************************************************
 * GEOMETRY EDITING - INPUT COORDINATES ARE GIVEN IN ANGSTROM         
 *******************************************************************************

 GEOMETRY NOW FULLY CONSISTENT WITH THE GROUP

 GCALCO - MAX INDICES DIRECT LATTICE VECTOR    14    14    16
 NO.OF VECTORS CREATED 6999 STARS  484 RMAX   215.93074 BOHR

 GEOMETRY FOR WAVE FUNCTION - DIMENSIONALITY OF THE SYSTEM    3
 (NON PERIODIC DIRECTION: LATTICE PARAMETER FORMALLY SET TO 500)
 *******************************************************************************
 LATTICE PARAMETERS (ANGSTROMS AND DEGREES) - BOHR = 0.5291772083 ANGSTROM
 PRIMITIVE CELL - CENTRING CODE 6/0 VOLUME=   883.653438 - DENSITY  3.095 g/cm^3
         A              B              C           ALPHA      BETA       GAMMA 
    10.56420224    10.56420224    10.56420224   115.181790 115.181790  98.569942
 *******************************************************************************
 ATOMS IN THE ASYMMETRIC UNIT   17 - ATOMS IN THE UNIT CELL:   62
     ATOM                 X/A                 Y/B                 Z/C    
 *******************************************************************************
      1 T   1 H     1.241600000000E-01 -2.390400000000E-01 -4.147800000000E-01
      2 F   1 H     1.757400000000E-01 -4.610600000000E-01  4.147800000000E-01
      3 F   1 H     2.390400000000E-01 -1.757400000000E-01  3.632000000000E-01
      4 F   1 H     4.610600000000E-01 -1.241600000000E-01 -3.632000000000E-01
      5 T   6 C    -1.694200000000E-01 -1.241400000000E-01  4.590000000000E-01
      6 F   6 C     4.168600000000E-01  3.715800000000E-01 -4.590000000000E-01
      7 F   6 C     1.241400000000E-01 -4.168600000000E-01 -4.528000000000E-02
      8 F   6 C    -3.715800000000E-01  1.694200000000E-01  4.528000000000E-02
      9 T   6 C    -2.898900000000E-01 -1.285600000000E-01  3.179100000000E-01
     10 F   6 C    -4.464700000000E-01  3.922000000000E-01 -3.179100000000E-01
     11 F   6 C     1.285600000000E-01  4.464700000000E-01 -1.613300000000E-01
     12 F   6 C    -3.922000000000E-01  2.898900000000E-01  1.613300000000E-01
     13 T   6 C    -7.605000000000E-02 -2.065800000000E-01  4.495100000000E-01
     14 F   6 C     3.439100000000E-01  4.744400000000E-01 -4.495100000000E-01
     15 F   6 C     2.065800000000E-01 -3.439100000000E-01  1.305300000000E-01
     16 F   6 C    -4.744400000000E-01  7.605000000000E-02 -1.305300000000E-01
     17 T   6 C     7.960000000000E-02 -6.936000000000E-02 -2.529000000000E-01
     18 F   6 C     1.835400000000E-01  3.325000000000E-01  2.529000000000E-01
     19 F   6 C     6.936000000000E-02 -1.835400000000E-01  1.489600000000E-01
     20 F   6 C    -3.325000000000E-01 -7.960000000000E-02 -1.489600000000E-01
     21 T   6 C    -1.318200000000E-01 -2.712000000000E-02 -3.770400000000E-01
     22 F   6 C     3.499200000000E-01  2.452200000000E-01  3.770400000000E-01
     23 F   6 C     2.712000000000E-02 -3.499200000000E-01 -1.047000000000E-01
     24 F   6 C    -2.452200000000E-01  1.318200000000E-01  1.047000000000E-01
     25 T   6 C     2.308600000000E-01  4.591200000000E-01  4.073200000000E-01
     26 F   6 C     5.180000000000E-02 -1.764600000000E-01 -4.073200000000E-01
     27 F   6 C    -4.591200000000E-01 -5.180000000000E-02 -2.282600000000E-01
     28 F   6 C     1.764600000000E-01 -2.308600000000E-01  2.282600000000E-01
     29 T   7 N    -3.082500000000E-01  6.000000000000E-04  3.274500000000E-01
     30 F   7 N    -3.268500000000E-01  3.643000000000E-01 -3.274500000000E-01
     31 F   7 N    -5.999999999999E-04  3.268500000000E-01 -3.088500000000E-01
     32 F   7 N    -3.643000000000E-01  3.082500000000E-01  3.088500000000E-01
     33 T   7 N    -4.318800000000E-01 -4.756000000000E-02  1.753000000000E-01
     34 F   7 N    -2.228600000000E-01  3.928200000000E-01 -1.753000000000E-01
     35 F   7 N     4.756000000000E-02  2.228600000000E-01 -3.843200000000E-01
     36 F   7 N    -3.928200000000E-01  4.318800000000E-01  3.843200000000E-01
     37 T   7 N    -4.008900000000E-01 -2.535400000000E-01  1.622100000000E-01
     38 F   7 N    -4.157500000000E-01  4.369000000000E-01 -1.622100000000E-01
     39 F   7 N     2.535400000000E-01  4.157500000000E-01 -1.473500000000E-01
     40 F   7 N    -4.369000000000E-01  4.008900000000E-01  1.473500000000E-01
     41 T   7 N    -4.883600000000E-01 -1.975100000000E-01  7.909000000000E-02
     42 F   7 N    -2.766000000000E-01  4.325500000000E-01 -7.909000000000E-02
     43 F   7 N     1.975100000000E-01  2.766000000000E-01 -2.908500000000E-01
     44 F   7 N    -4.325500000000E-01  4.883600000000E-01  2.908500000000E-01
     45 T   7 N    -1.362000000000E-02 -2.700000000000E-04 -2.396300000000E-01
     46 F   7 N     2.393600000000E-01  2.260100000000E-01  2.396300000000E-01
     47 F   7 N     2.699999999999E-04 -2.393600000000E-01 -1.335000000000E-02
     48 F   7 N    -2.260100000000E-01  1.362000000000E-02  1.335000000000E-02
     49 T  30 ZN   -2.500000000000E-01  2.500000000000E-01  5.000000000000E-01
     50 T  30 ZN   -5.000000000000E-01  5.000000000000E-01  0.000000000000E+00
     51 T  35 BR   -1.263400000000E-01 -3.683900000000E-01  2.432100000000E-01
     52 F  35 BR    3.884000000000E-01 -3.695500000000E-01 -2.432100000000E-01
     53 F  35 BR    3.683900000000E-01 -3.884000000000E-01  2.420500000000E-01
     54 F  35 BR    3.695500000000E-01  1.263400000000E-01 -2.420500000000E-01
     55 T  35 BR   -2.668700000000E-01  6.642000000000E-02 -3.457300000000E-01
     56 F  35 BR    4.121500000000E-01  7.886000000000E-02  3.457300000000E-01
     57 F  35 BR   -6.642000000000E-02 -4.121500000000E-01 -3.332900000000E-01
     58 F  35 BR   -7.886000000000E-02  2.668700000000E-01  3.332900000000E-01
     59 T  35 BR    2.493700000000E-01 -3.302000000000E-02 -5.837000000000E-02
     60 F  35 BR    2.535000000000E-02  3.077400000000E-01  5.837000000000E-02
     61 F  35 BR    3.302000000000E-02 -2.535000000000E-02  2.823900000000E-01
     62 F  35 BR   -3.077400000000E-01 -2.493700000000E-01 -2.823900000000E-01

 TRANSFORMATION MATRIX PRIMITIVE-CRYSTALLOGRAPHIC CELL
  0.0000  1.0000  1.0000  1.0000  0.0000  1.0000  1.0000  1.0000  0.0000

 *******************************************************************************
 CRYSTALLOGRAPHIC CELL (VOLUME=       1767.30687523)
         A              B              C           ALPHA      BETA       GAMMA 
    11.32400000    11.32400000    13.78200000    90.000000  90.000000  90.000000

 COORDINATES IN THE CRYSTALLOGRAPHIC CELL
     ATOM                 X/A                 Y/B                 Z/C    
 *******************************************************************************
      1 T   1 H    -3.889900000000E-01 -2.579000000000E-02  1.499500000000E-01
      2 F   1 H     3.889900000000E-01  2.579000000000E-02  1.499500000000E-01
      3 F   1 H    -2.579000000000E-02  3.889900000000E-01 -1.499500000000E-01
      4 F   1 H     2.579000000000E-02 -3.889900000000E-01 -1.499500000000E-01
      5 T   6 C    -2.478600000000E-01 -2.931400000000E-01  1.237200000000E-01
      6 F   6 C     2.478600000000E-01  2.931400000000E-01  1.237200000000E-01
      7 F   6 C    -2.931400000000E-01  2.478600000000E-01 -1.237200000000E-01
      8 F   6 C     2.931400000000E-01 -2.478600000000E-01 -1.237200000000E-01
      9 T   6 C     2.396200000000E-01  7.829000000000E-02 -3.681800000000E-01
     10 F   6 C    -2.396200000000E-01 -7.829000000000E-02 -3.681800000000E-01
     11 F   6 C     7.829000000000E-02 -2.396200000000E-01  3.681800000000E-01
     12 F   6 C    -7.829000000000E-02  2.396200000000E-01  3.681800000000E-01
     13 T   6 C    -3.405100000000E-01 -2.099800000000E-01  1.339300000000E-01
     14 F   6 C     3.405100000000E-01  2.099800000000E-01  1.339300000000E-01
     15 F   6 C    -2.099800000000E-01  3.405100000000E-01 -1.339300000000E-01
     16 F   6 C     2.099800000000E-01 -3.405100000000E-01 -1.339300000000E-01
     17 T   6 C    -2.009300000000E-01 -5.197000000000E-02  1.315700000000E-01
     18 F   6 C     2.009300000000E-01  5.197000000000E-02  1.315700000000E-01
     19 F   6 C    -5.197000000000E-02  2.009300000000E-01 -1.315700000000E-01
     20 F   6 C     5.197000000000E-02 -2.009300000000E-01 -1.315700000000E-01
     21 T   6 C    -1.361700000000E-01 -2.408700000000E-01  1.090500000000E-01
     22 F   6 C     1.361700000000E-01  2.408700000000E-01  1.090500000000E-01
     23 F   6 C    -2.408700000000E-01  1.361700000000E-01 -1.090500000000E-01
     24 F   6 C     2.408700000000E-01 -1.361700000000E-01 -1.090500000000E-01
     25 T   6 C     3.177900000000E-01  8.953000000000E-02  1.413300000000E-01
     26 F   6 C    -3.177900000000E-01 -8.953000000000E-02  1.413300000000E-01
     27 F   6 C     8.953000000000E-02 -3.177900000000E-01 -1.413300000000E-01
     28 F   6 C    -8.953000000000E-02  3.177900000000E-01 -1.413300000000E-01
     29 T   7 N     3.181500000000E-01  9.300000000000E-03 -3.175500000000E-01
     30 F   7 N    -3.181500000000E-01 -9.300000000000E-03 -3.175500000000E-01
     31 F   7 N     9.300000000000E-03 -3.181500000000E-01  3.175500000000E-01
     32 F   7 N    -9.300000000000E-03  3.181500000000E-01  3.175500000000E-01
     33 T   7 N     2.798100000000E-01 -1.045100000000E-01 -3.273700000000E-01
     34 F   7 N    -2.798100000000E-01  1.045100000000E-01 -3.273700000000E-01
     35 F   7 N    -1.045100000000E-01 -2.798100000000E-01  3.273700000000E-01
     36 F   7 N     1.045100000000E-01  2.798100000000E-01  3.273700000000E-01
     37 T   7 N     1.547800000000E-01  7.430000000000E-03 -4.083200000000E-01
     38 F   7 N    -1.547800000000E-01 -7.430000000000E-03 -4.083200000000E-01
     39 F   7 N     7.430000000000E-03 -1.547800000000E-01  4.083200000000E-01
     40 F   7 N    -7.430000000000E-03  1.547800000000E-01  4.083200000000E-01
     41 T   7 N     1.849700000000E-01 -1.058800000000E-01 -3.824800000000E-01
     42 F   7 N    -1.849700000000E-01  1.058800000000E-01 -3.824800000000E-01
     43 F   7 N    -1.058800000000E-01 -1.849700000000E-01  3.824800000000E-01
     44 F   7 N     1.058800000000E-01  1.849700000000E-01  3.824800000000E-01
     45 T   7 N    -1.131400000000E-01 -1.264900000000E-01  1.128700000000E-01
     46 F   7 N     1.131400000000E-01  1.264900000000E-01  1.128700000000E-01
     47 F   7 N    -1.264900000000E-01  1.131400000000E-01 -1.128700000000E-01
     48 F   7 N     1.264900000000E-01 -1.131400000000E-01 -1.128700000000E-01
     49 T  30 ZN   -4.150510213787E-17 -5.000000000000E-01  2.500000000000E-01
     50 T  30 ZN    0.000000000000E+00  0.000000000000E+00  5.000000000000E-01
     51 T  35 BR    5.800000000000E-04  2.426300000000E-01 -3.689700000000E-01
     52 F  35 BR   -5.799999999999E-04 -2.426300000000E-01 -3.689700000000E-01
     53 F  35 BR    2.426300000000E-01 -5.799999999999E-04  3.689700000000E-01
     54 F  35 BR   -2.426300000000E-01  5.800000000001E-04  3.689700000000E-01
     55 T  35 BR   -6.220000000000E-03 -3.395100000000E-01  7.264000000000E-02
     56 F  35 BR    6.220000000000E-03  3.395100000000E-01  7.264000000000E-02
     57 F  35 BR   -3.395100000000E-01  6.220000000000E-03 -7.264000000000E-02
     58 F  35 BR    3.395100000000E-01 -6.220000000000E-03 -7.264000000000E-02
     59 T  35 BR   -1.703800000000E-01  1.120100000000E-01  1.373600000000E-01
     60 F  35 BR    1.703800000000E-01 -1.120100000000E-01  1.373600000000E-01
     61 F  35 BR    1.120100000000E-01  1.703800000000E-01 -1.373600000000E-01
     62 F  35 BR   -1.120100000000E-01 -1.703800000000E-01 -1.373600000000E-01

 T = ATOM BELONGING TO THE ASYMMETRIC UNIT

 ****    4 SYMMOPS - TRANSLATORS IN FRACTIONAL UNITS
 **** MATRICES AND TRANSLATORS IN THE CRYSTALLOGRAPHIC REFERENCE FRAME
   V INV                    ROTATION MATRICES                   TRANSLATORS
   1   1  1.00  0.00  0.00  0.00  1.00  0.00  0.00  0.00  1.00  0.00  0.00  0.00
   2   2  0.00  1.00 -1.00  1.00  0.00 -1.00 -0.00  0.00 -1.00  0.00  0.00  0.00
   3   4 -0.00 -1.00  0.00  0.00 -1.00  1.00  1.00 -1.00  0.00  0.00  0.00  0.00
   4   3 -1.00 -0.00  1.00 -1.00  0.00  0.00 -1.00  1.00 -0.00  0.00  0.00  0.00

 DIRECT LATTICE VECTORS CARTESIAN COMPONENTS (ANGSTROM)
          X                    Y                    Z
  -0.566200000000E+01   0.566200000000E+01   0.689100000000E+01
   0.566200000000E+01  -0.566200000000E+01   0.689100000000E+01
   0.566200000000E+01   0.566200000000E+01  -0.689100000000E+01


 CARTESIAN COORDINATES - PRIMITIVE CELL
 *******************************************************************************
 *      ATOM          X(ANGSTROM)         Y(ANGSTROM)         Z(ANGSTROM)
 *******************************************************************************
    1     1 H    -4.404922760000E+00 -2.920459600000E-01  2.066610900000E+00
    2     1 H     4.404922760000E+00  2.920459600000E-01  2.066610900000E+00
    3     1 H    -2.920459600000E-01  4.404922760000E+00 -2.066610900000E+00
    4     1 H     2.920459600000E-01 -4.404922760000E+00 -2.066610900000E+00
    5     6 C    -2.806766640000E+00 -3.319517360000E+00  1.705109040000E+00
    6     6 C     2.806766640000E+00  3.319517360000E+00  1.705109040000E+00
    7     6 C    -3.319517360000E+00  2.806766640000E+00 -1.705109040000E+00
    8     6 C     3.319517360000E+00 -2.806766640000E+00 -1.705109040000E+00
    9     6 C     2.713456880000E+00  8.865559600000E-01 -5.074256760000E+00
   10     6 C    -2.713456880000E+00 -8.865559600000E-01 -5.074256760000E+00
   11     6 C     8.865559600000E-01 -2.713456880000E+00  5.074256760000E+00
   12     6 C    -8.865559600000E-01  2.713456880000E+00  5.074256760000E+00
   13     6 C    -3.855935240000E+00 -2.377813520000E+00  1.845823260000E+00
   14     6 C     3.855935240000E+00  2.377813520000E+00  1.845823260000E+00
   15     6 C    -2.377813520000E+00  3.855935240000E+00 -1.845823260000E+00
   16     6 C     2.377813520000E+00 -3.855935240000E+00 -1.845823260000E+00
   17     6 C    -2.275331320000E+00 -5.885082800000E-01  1.813297740000E+00
   18     6 C     2.275331320000E+00  5.885082800000E-01  1.813297740000E+00
   19     6 C    -5.885082800000E-01  2.275331320000E+00 -1.813297740000E+00
   20     6 C     5.885082800000E-01 -2.275331320000E+00 -1.813297740000E+00
   21     6 C    -1.541989080000E+00 -2.727611880000E+00  1.502927100000E+00
   22     6 C     1.541989080000E+00  2.727611880000E+00  1.502927100000E+00
   23     6 C    -2.727611880000E+00  1.541989080000E+00 -1.502927100000E+00
   24     6 C     2.727611880000E+00 -1.541989080000E+00 -1.502927100000E+00
   25     6 C     3.598653960000E+00  1.013837720000E+00  1.947810060000E+00
   26     6 C    -3.598653960000E+00 -1.013837720000E+00  1.947810060000E+00
   27     6 C     1.013837720000E+00 -3.598653960000E+00 -1.947810060000E+00
   28     6 C    -1.013837720000E+00  3.598653960000E+00 -1.947810060000E+00
   29     7 N     3.602730600000E+00  1.053132000000E-01 -4.376474100000E+00
   30     7 N    -3.602730600000E+00 -1.053132000000E-01 -4.376474100000E+00
   31     7 N     1.053132000000E-01 -3.602730600000E+00  4.376474100000E+00
   32     7 N    -1.053132000000E-01  3.602730600000E+00  4.376474100000E+00
   33     7 N     3.168568440000E+00 -1.183471240000E+00 -4.511813340000E+00
   34     7 N    -3.168568440000E+00  1.183471240000E+00 -4.511813340000E+00
   35     7 N    -1.183471240000E+00 -3.168568440000E+00  4.511813340000E+00
   36     7 N     1.183471240000E+00  3.168568440000E+00  4.511813340000E+00
   37     7 N     1.752728720000E+00  8.413732000000E-02 -5.627466240000E+00
   38     7 N    -1.752728720000E+00 -8.413732000000E-02 -5.627466240000E+00
   39     7 N     8.413732000000E-02 -1.752728720000E+00  5.627466240000E+00
   40     7 N    -8.413732000000E-02  1.752728720000E+00  5.627466240000E+00
   41     7 N     2.094600280000E+00 -1.198985120000E+00 -5.271339360000E+00
   42     7 N    -2.094600280000E+00  1.198985120000E+00 -5.271339360000E+00
   43     7 N    -1.198985120000E+00 -2.094600280000E+00  5.271339360000E+00
   44     7 N     1.198985120000E+00  2.094600280000E+00  5.271339360000E+00
   45     7 N    -1.281197360000E+00 -1.432372760000E+00  1.555574340000E+00
   46     7 N     1.281197360000E+00  1.432372760000E+00  1.555574340000E+00
   47     7 N    -1.432372760000E+00  1.281197360000E+00 -1.555574340000E+00
   48     7 N     1.432372760000E+00 -1.281197360000E+00 -1.555574340000E+00
   49    30 ZN   -4.700037766092E-16  5.662000000000E+00 -1.033650000000E+01
   50    30 ZN    0.000000000000E+00  0.000000000000E+00  6.891000000000E+00
   51    35 BR    6.567920000000E-03  2.747542120000E+00 -5.085144540000E+00
   52    35 BR   -6.567919999998E-03 -2.747542120000E+00 -5.085144540000E+00
   53    35 BR    2.747542120000E+00 -6.567919999999E-03  5.085144540000E+00
   54    35 BR   -2.747542120000E+00  6.567920000001E-03  5.085144540000E+00
   55    35 BR   -7.043528000000E-02 -3.844611240000E+00  1.001124480000E+00
   56    35 BR    7.043528000000E-02  3.844611240000E+00  1.001124480000E+00
   57    35 BR   -3.844611240000E+00  7.043528000000E-02 -1.001124480000E+00
   58    35 BR    3.844611240000E+00 -7.043528000000E-02 -1.001124480000E+00
   59    35 BR   -1.929383120000E+00  1.268401240000E+00  1.893095520000E+00
   60    35 BR    1.929383120000E+00 -1.268401240000E+00  1.893095520000E+00
   61    35 BR    1.268401240000E+00  1.929383120000E+00 -1.893095520000E+00
   62    35 BR   -1.268401240000E+00 -1.929383120000E+00 -1.893095520000E+00

 *******************************************************************************
 STARTING BASIS SET HANDLING 
 *******************************************************************************

 Loading internal basis set: POB-DZVPP           

 Please cite in your publication:
 Peintinger, M. F., Oliveira, D. V. and Bredow, T. (2013), Generally applicable 
 solid-state Gaussian basis sets, in preparation                                
                                                                                
                    

 *******************************************************************************
 LOCAL ATOMIC FUNCTIONS BASIS SET
 *******************************************************************************
   ATOM   X(AU)   Y(AU)   Z(AU)  N. TYPE  EXPONENT  S COEF   P COEF   D/F/G COEF
 *******************************************************************************
   1 H   -8.324  -0.552   3.905
                                  1 S  
                                         2.263E+01 1.441E-02 0.000E+00 0.000E+00
                                         3.236E+00 1.072E-01 0.000E+00 0.000E+00
                                         7.304E-01 3.846E-01 0.000E+00 0.000E+00
                                  2 S  
                                         1.417E-01 1.000E+00 0.000E+00 0.000E+00
                           3-     5 P  
                                         3.944E-01 0.000E+00 1.000E+00 0.000E+00
                           6-     8 P  
                                         1.006E-01 0.000E+00 1.000E+00 0.000E+00
   2 H    8.324   0.552   3.905
   3 H   -0.552   8.324  -3.905
   4 H    0.552  -8.324  -3.905
   5 C   -5.304  -6.273   3.222
                                 33 S  
                                         1.238E+03 5.457E-03 0.000E+00 0.000E+00
                                         1.863E+02 4.064E-02 0.000E+00 0.000E+00
                                         4.225E+01 1.803E-01 0.000E+00 0.000E+00
                                         1.168E+01 4.632E-01 0.000E+00 0.000E+00
                                         3.593E+00 4.409E-01 0.000E+00 0.000E+00
                                 34 S  
                                         5.281E+00 1.000E+00 0.000E+00 0.000E+00
                                 35 S  
                                         4.447E-01 1.000E+00 0.000E+00 0.000E+00
                          36-    38 P  
                                         9.468E+00 0.000E+00 3.839E-02 0.000E+00
                                         2.010E+00 0.000E+00 2.112E-01 0.000E+00
                                         5.477E-01 0.000E+00 5.133E-01 0.000E+00
                          39-    41 P  
                                         1.604E-01 0.000E+00 1.000E+00 0.000E+00
                          42-    46 D  
                                         6.070E-01 0.000E+00 0.000E+00 1.000E+00
                          47-    51 D  
                                         2.939E-01 0.000E+00 0.000E+00 1.000E+00
   6 C    5.304   6.273   3.222
   7 C   -6.273   5.304  -3.222
   8 C    6.273  -5.304  -3.222
   9 C    5.128   1.675  -9.589
  10 C   -5.128  -1.675  -9.589
  11 C    1.675  -5.128   9.589
  12 C   -1.675   5.128   9.589
  13 C   -7.287  -4.493   3.488
  14 C    7.287   4.493   3.488
  15 C   -4.493   7.287  -3.488
  16 C    4.493  -7.287  -3.488
  17 C   -4.300  -1.112   3.427
  18 C    4.300   1.112   3.427
  19 C   -1.112   4.300  -3.427
  20 C    1.112  -4.300  -3.427
  21 C   -2.914  -5.154   2.840
  22 C    2.914   5.154   2.840
  23 C   -5.154   2.914  -2.840
  24 C    5.154  -2.914  -2.840
  25 C    6.800   1.916   3.681
  26 C   -6.800  -1.916   3.681
  27 C    1.916  -6.800  -3.681
  28 C   -1.916   6.800  -3.681
  29 N    6.808   0.199  -8.270
                                489 S  
                                         1.713E+03-5.393E-03 0.000E+00 0.000E+00
                                         2.576E+02-4.022E-02 0.000E+00 0.000E+00
                                         5.846E+01-1.793E-01 0.000E+00 0.000E+00
                                         1.620E+01-4.638E-01 0.000E+00 0.000E+00
                                         5.005E+00-4.417E-01 0.000E+00 0.000E+00
                                490 S  
                                         6.217E-01 1.000E+00 0.000E+00 0.000E+00
                                491 S  
                                         2.921E-01 1.000E+00 0.000E+00 0.000E+00
                         492-   494 P  
                                         1.357E+01 0.000E+00-4.007E-02 0.000E+00
                                         2.926E+00 0.000E+00-2.181E-01 0.000E+00
                                         7.993E-01 0.000E+00-5.129E-01 0.000E+00
                         495-   497 P  
                                         2.244E-01 0.000E+00 1.000E+00 0.000E+00
                         498-   502 D  
                                         3.118E-01 0.000E+00 0.000E+00 1.000E+00
  30 N   -6.808  -0.199  -8.270
  31 N    0.199  -6.808   8.270
  32 N   -0.199   6.808   8.270
  33 N    5.988  -2.236  -8.526
  34 N   -5.988   2.236  -8.526
  35 N   -2.236  -5.988   8.526
  36 N    2.236   5.988   8.526
  37 N    3.312   0.159 -10.634
  38 N   -3.312  -0.159 -10.634
  39 N    0.159  -3.312  10.634
  40 N   -0.159   3.312  10.634
  41 N    3.958  -2.266  -9.961
  42 N   -3.958   2.266  -9.961
  43 N   -2.266  -3.958   9.961
  44 N    2.266   3.958   9.961
  45 N   -2.421  -2.707   2.940
  46 N    2.421   2.707   2.940
  47 N   -2.707   2.421  -2.940
  48 N    2.707  -2.421  -2.940
  49 ZN  -0.000  10.700 -19.533
                                769 S  
                                         8.200E+04 1.421E-03 0.000E+00 0.000E+00
                                         1.231E+04 1.089E-02 0.000E+00 0.000E+00
                                         2.801E+03 5.406E-02 0.000E+00 0.000E+00
                                         7.910E+02 1.885E-01 0.000E+00 0.000E+00
                                         2.576E+02 3.835E-01 0.000E+00 0.000E+00
                                         8.881E+01 2.972E-01 0.000E+00 0.000E+00
                                770 S  
                                         1.719E+02-1.105E-01 0.000E+00 0.000E+00
                                         2.030E+01 6.461E-01 0.000E+00 0.000E+00
                                         8.346E+00 4.422E-01 0.000E+00 0.000E+00
                                771 S  
                                         1.485E+01-2.271E-01 0.000E+00 0.000E+00
                                         2.450E+00 7.243E-01 0.000E+00 0.000E+00
                                         9.985E-01 4.484E-01 0.000E+00 0.000E+00
                                772 S  
                                         1.493E+00 1.000E+00 0.000E+00 0.000E+00
                                773 S  
                                         1.830E-01 1.000E+00 0.000E+00 0.000E+00
                         774-   776 P  
                                         1.072E+03 0.000E+00 9.277E-03 0.000E+00
                                         2.527E+02 0.000E+00 6.954E-02 0.000E+00
                                         8.010E+01 0.000E+00 2.716E-01 0.000E+00
                                         2.890E+01 0.000E+00 5.340E-01 0.000E+00
                                         1.077E+01 0.000E+00 3.450E-01 0.000E+00
                         777-   779 P  
                                         5.645E+00 0.000E+00 3.413E-01 0.000E+00
                                         2.168E+00 0.000E+00 5.639E-01 0.000E+00
                                         8.054E-01 0.000E+00 2.368E-01 0.000E+00
                         780-   782 P  
                                         2.721E-01 0.000E+00 1.000E+00 0.000E+00
                         783-   787 D  
                                         5.609E+01 0.000E+00 0.000E+00 2.959E-02
                                         1.575E+01 0.000E+00 0.000E+00 1.587E-01
                                         5.312E+00 0.000E+00 0.000E+00 3.798E-01
                                         1.774E+00 0.000E+00 0.000E+00 4.690E-01
                         788-   792 D  
                                         5.073E-01 0.000E+00 0.000E+00 1.000E+00
                         793-   799 F  
                                         2.814E+00 0.000E+00 0.000E+00 1.000E+00
                         800-   806 F  
                                         1.300E+00 0.000E+00 0.000E+00 1.000E+00
  50 ZN   0.000   0.000  13.022
  51 BR   0.012   5.192  -9.610
                                845 S  
                                         1.133E+05 1.428E-03 0.000E+00 0.000E+00
                                         1.701E+04 1.095E-02 0.000E+00 0.000E+00
                                         3.870E+03 5.442E-02 0.000E+00 0.000E+00
                                         1.093E+03 1.905E-01 0.000E+00 0.000E+00
                                         3.564E+02 3.902E-01 0.000E+00 0.000E+00
                                         1.231E+02 3.081E-01 0.000E+00 0.000E+00
                                846 S  
                                         2.367E+02-1.123E-01 0.000E+00 0.000E+00
                                         2.847E+01 6.478E-01 0.000E+00 0.000E+00
                                         1.188E+01 4.424E-01 0.000E+00 0.000E+00
                                847 S  
                                         2.127E+01-2.264E-01 0.000E+00 0.000E+00
                                         3.613E+00 7.382E-01 0.000E+00 0.000E+00
                                         1.663E+00 4.268E-01 0.000E+00 0.000E+00
                                848 S  
                                         3.641E-01 1.000E+00 0.000E+00 0.000E+00
                                849 S  
                                         1.243E-01 1.000E+00 0.000E+00 0.000E+00
                         850-   852 P  
                                         1.560E+03 0.000E+00 8.717E-03 0.000E+00
                                         3.685E+02 0.000E+00 6.624E-02 0.000E+00
                                         1.172E+02 0.000E+00 2.650E-01 0.000E+00
                                         4.265E+01 0.000E+00 5.384E-01 0.000E+00
                                         1.609E+01 0.000E+00 3.658E-01 0.000E+00
                         853-   855 P  
                                         8.635E+00 0.000E+00 3.425E-01 0.000E+00
                                         3.561E+00 0.000E+00 5.750E-01 0.000E+00
                                         1.529E+00 0.000E+00 2.433E-01 0.000E+00
                         856-   858 P  
                                         6.447E-01 0.000E+00 1.000E+00 0.000E+00
                         859-   861 P  
                                         2.103E-01 0.000E+00 1.000E+00 0.000E+00
                         862-   866 D  
                                         1.049E+02 0.000E+00 0.000E+00 2.265E-02
                                         3.028E+01 0.000E+00 0.000E+00 1.346E-01
                                         1.065E+01 0.000E+00 0.000E+00 3.647E-01
                                         3.870E+00 0.000E+00 0.000E+00 4.904E-01
                         867-   871 D  
                                         1.342E+00 0.000E+00 0.000E+00 1.000E+00
                         872-   876 D  
                                         4.101E-01 0.000E+00 0.000E+00 1.000E+00
                         877-   881 D  
                                         1.985E-01 0.000E+00 0.000E+00 1.000E+00
  52 BR  -0.012  -5.192  -9.610
  53 BR   5.192  -0.012   9.610
  54 BR  -5.192   0.012   9.610
  55 BR  -0.133  -7.265   1.892
  56 BR   0.133   7.265   1.892
  57 BR  -7.265   0.133  -1.892
  58 BR   7.265  -0.133  -1.892
  59 BR  -3.646   2.397   3.577
  60 BR   3.646  -2.397   3.577
  61 BR   2.397   3.646  -3.577
  62 BR  -2.397  -3.646  -3.577

 *******************************************************************************
 FINISHED BASIS SET HANDLING 
 *******************************************************************************

 INFORMATION **** SET_MPP **** PCRYSTAL CALCULATION
 INFORMATION **** READM2 **** NEW DEFAULT: FOCK/KS MATRIX MIXING SET TO 30 %
 INFORMATION **** READM2 **** NEW DEFAULT: FULL DIRECT SCF MODE
 INFORMATION **** READM2 **** NEW DEFAULT: COULOMB BIPOLAR BUFFER SET TO 32 Mb
 INFORMATION **** READM2 **** NEW DEFAULT: EXCHANGE BIPOLAR BUFFER SET TO 32 Mb

 *******************************************************************************
 NEW DEFAULT: DFT INTEGRATION GRID INCREASED TO XLGRID
 NEW DEFAULT: DIIS ACCELERATOR ACTIVE
 USE KEYWORD NODIIS TO TURN IT OFF
 *******************************************************************************

 INFORMATION **** DFTD3_INPUT **** PERFORM DISPERSION CORRECTION DFT-D3(BJ) IN THE BECKE-JOHNSON DAMPING SCHEME

 PLEASE CITE:
 (1) DFT-D3 Reference
  S. Grimme, J. Antony, S. Ehrlich, and H. Krieg, J. Chem. Phys. 132 (2010), 154104
 (2) BJ-Damping Reference
  S. Grimme, S. Ehrlich, and L. Goerigk, J. Comput. Chem. 32 (2011), 1456-1465
 (3) General DFT-D Review
  S. Grimme, A. Hansen, J. G. Brandenburg, and C. Bannwarth,
  Chem. Rev. 116 (2016), 5105-5154

 INFORMATION **** TOLINTEG **** COULOMB AND EXCHANGE SERIES TOLERANCES MODIFIED
 INFORMATION **** BIPOSIZE **** COULOMB BIPOLAR BUFFER SET TO   100000000
 INFORMATION **** MAXCYCLE **** MAX NUMBER OF SCF CYCLES SET TO         500
 *******************************************************************************
 N. OF ATOMS PER CELL        62  COULOMB OVERLAP TOL         (T1) 10**  -12
 NUMBER OF SHELLS           484  COULOMB PENETRATION TOL     (T2) 10**  -12
 NUMBER OF AO              1288  EXCHANGE OVERLAP TOL        (T3) 10**   20
 N. OF ELECTRONS PER CELL   768  EXCHANGE PSEUDO OVP (F(G))  (T4) 10**   20
 CORE ELECTRONS PER CELL    460  EXCHANGE PSEUDO OVP (P(G))  (T5) 10**   20
 N. OF SYMMETRY OPERATORS     4  POLE ORDER IN MONO ZONE                  4
 *******************************************************************************
 TYPE OF CALCULATION :  RESTRICTED CLOSED SHELL
 KOHN-SHAM HAMILTONIAN

 (EXCHANGE)[CORRELATION] FUNCTIONAL:(PERDEW-BURKE-ERNZERHOF)[PERDEW-BURKE-ERNZERHOF]


 CAPPA:IS1  3;IS2  3;IS3  3; K PTS MONK NET   6; SYMMOPS:K SPACE   8;G SPACE   4

 *******************************************************************************
 MAX NUMBER OF SCF CYCLES     500  CONVERGENCE ON DELTAP        10**-16
 WEIGHT OF F(I) IN F(I+1)      30% CONVERGENCE ON ENERGY        10**- 6
 SHRINK. FACT.(MONKH.)    3  3  3  NUMBER OF K POINTS IN THE IBZ      6
 SHRINKING FACTOR(GILAT NET)    3  NUMBER OF K POINTS(GILAT NET)      6
 *******************************************************************************
 *** K POINTS COORDINATES (OBLIQUE COORDINATES IN UNITS OF IS =  3)
   1-R(  0  0  0)   2-C(  1  0  0)   3-C(  1  1  0)   4-C(  2  1  0)
   5-C(  2  1  1)   6-C(  2  2  1)

 DIRECT LATTICE VECTORS COMPON. (A.U.)     RECIP. LATTICE VECTORS COMPON. (A.U.) 
        X            Y            Z              X            Y            Z
  -10.6996294   10.6996294   13.0221028      0.0000000    0.2936170    0.2412508
   10.6996294  -10.6996294   13.0221028      0.2936170    0.0000000    0.2412508
   10.6996294   10.6996294  -13.0221028      0.2936170    0.2936170    0.0000000

 DISK SPACE FOR EIGENVECTORS (FTN 10)    18248384 REALS

 SYMMETRY ADAPTION OF THE BLOCH FUNCTIONS ENABLED
 TTTTTTTTTTTTTTTTTTTTTTTTTTTTTT gordsh1     TELAPSE        7.36 TCPU        0.08

 MATRIX SIZE: P(G) 2058540, F(G) 1030034, P(G) IRR  259942, F(G) IRR  259942
 MAX G-VECTOR INDEX FOR 1- AND 2-ELECTRON INTEGRALS  59

 TTTTTTTTTTTTTTTTTTTTTTTTTTTTTT INPUT       TELAPSE        7.54 TCPU        0.26

 NEIGHBORS OF THE NON-EQUIVALENT ATOMS

 N = NUMBER OF NEIGHBORS AT DISTANCE R
    ATOM  N     R/ANG      R/AU   NEIGHBORS (ATOM LABELS AND CELL INDICES)
   1 H    1     1.0887     2.0573   26 C    0 0 0
   1 H    1     2.1650     4.0913   17 C    0 0 0
   1 H    1     2.1681     4.0971   13 C    0 0 0
   1 H    1     2.5811     4.8776    2 H    0-1-1
   1 H    1     2.9170     5.5123   51 BR   0 0-1
   1 H    1     2.9315     5.5396   59 BR   0 0 0

   5 C    1     1.4110     2.6664   21 C    0 0 0
   5 C    1     1.4168     2.6774   13 C    0 0 0
   5 C    1     1.4671     2.7724    9 C    0 0-1
   5 C    1     2.4313     4.5944   45 N    0 0 0
   5 C    1     2.4499     4.6297   26 C    0 0 0
   5 C    1     2.4938     4.7125   29 N    0 0-1

   9 C    1     1.3685     2.5862   37 N    0 0 0
   9 C    1     1.3741     2.5966   29 N    0 0 0
   9 C    1     1.4671     2.7724    5 C    0 0 1
   9 C    1     2.1843     4.1278   41 N    0 0 0
   9 C    1     2.1928     4.1438   33 N    0 0 0
   9 C    1     2.5041     4.7321   21 C    0 0 1

  13 C    1     1.3918     2.6301   26 C    0 0 0
  13 C    1     1.4168     2.6774    5 C    0 0 0
  13 C    1     1.8782     3.5494   51 BR   0 0-1
  13 C    1     2.1681     4.0971    1 H    0 0 0
  13 C    1     2.3652     4.4696   21 C    0 0 0
  13 C    1     2.3877     4.5120   17 C    0 0 0

  17 C    1     1.3292     2.5119   45 N    0 0 0
  17 C    1     1.3965     2.6390   26 C    0 0 0
  17 C    1     1.8905     3.5726   59 BR   0 0 0
  17 C    1     2.1650     4.0913    1 H    0 0 0
  17 C    1     2.2825     4.3133   21 C    0 0 0
  17 C    1     2.3877     4.5120   13 C    0 0 0

  21 C    1     1.3223     2.4987   45 N    0 0 0
  21 C    1     1.4110     2.6664    5 C    0 0 0
  21 C    1     1.9144     3.6177   55 BR   0 0 0
  21 C    1     2.2825     4.3133   17 C    0 0 0
  21 C    1     2.3652     4.4696   13 C    0 0 0
  21 C    1     2.5041     4.7321    9 C    0 0-1

  25 C    1     1.0887     2.0573    2 H    0 0 0
  25 C    1     1.3918     2.6301   14 C    0 0 0
  25 C    1     1.3965     2.6390   18 C    0 0 0
  25 C    1     2.3874     4.5115   46 N    0 0 0
  25 C    1     2.4499     4.6297    6 C    0 0 0
  25 C    1     2.7138     5.1284   22 C    0 0 0

  29 N    1     1.3667     2.5826   33 N    0 0 0
  29 N    1     1.3741     2.5966    9 C    0 0 0
  29 N    1     2.1855     4.1300   41 N    0 0 0
  29 N    1     2.2334     4.2205   37 N    0 0 0
  29 N    1     2.2624     4.2753   49 ZN   0 1 0
  29 N    1     2.4938     4.7125    5 C    0 0 1

  33 N    1     1.3155     2.4859   41 N    0 0 0
  33 N    1     1.3667     2.5826   29 N    0 0 0
  33 N    1     2.1928     4.1438    9 C    0 0 0
  33 N    1     2.2037     4.1643   37 N    0 0 0
  33 N    1     2.9589     5.5914   49 ZN   0 1 0
  33 N    1     2.9790     5.6295   56 BR  -1 0 0

  37 N    1     1.3685     2.5862    9 C    0 0 0
  37 N    1     1.3748     2.5980   41 N    0 0 0
  37 N    1     2.1623     4.0862   50 ZN  -1-1 0
  37 N    1     2.2037     4.1643   33 N    0 0 0
  37 N    1     2.2334     4.2205   29 N    0 0 0
  37 N    1     2.5516     4.8218    5 C    0 0 1

  41 N    1     1.3155     2.4859   33 N    0 0 0
  41 N    1     1.3748     2.5980   37 N    0 0 0
  41 N    1     2.1843     4.1278    9 C    0 0 0
  41 N    1     2.1855     4.1300   29 N    0 0 0
  41 N    1     2.6168     4.9450   52 BR   0 0 0
  41 N    1     2.9066     5.4926   50 ZN  -1-1 0

  45 N    1     1.3223     2.4987   21 C    0 0 0
  45 N    1     1.3292     2.5119   17 C    0 0 0
  45 N    1     2.3874     4.5115   26 C    0 0 0
  45 N    1     2.4313     4.5944    5 C    0 0 0
  45 N    1     2.7554     5.2070   55 BR   0 0 0
  45 N    1     2.7581     5.2121   13 C    0 0 0

  49 ZN   4     2.2624     4.2753   29 N    0-1 0   30 N    0 0 1   31 N    0-1 1
                                    32 N   -1-1 0
  49 ZN   4     2.9589     5.5914   33 N    0-1 0   34 N    0 0 1   35 N    0-1 1
                                    36 N   -1-1 0
  49 ZN   4     3.0468     5.7576   55 BR   0-1 1   56 BR  -1-1 0   57 BR   0 0 1
                                    58 BR   0-1 0
  49 ZN   4     3.4832     6.5823    9 C    0-1 0   10 C    0 0 1   11 C    0-1 1
                                    12 C   -1-1 0
  49 ZN   4     3.8421     7.2606   21 C    0-1 1   22 C   -1-1 0   23 C    0 0 1
                                    24 C    0-1 0
  49 ZN   4     4.0490     7.6514    5 C    0-1 1    6 C   -1-1 0    7 C    0 0 1
                                     8 C    0-1 0

  50 ZN   4     2.1623     4.0862   37 N    1 1 0   38 N    1 1 0   39 N    0 0 0
                                    40 N    0 0 0
  50 ZN   4     2.9066     5.4926   41 N    1 1 0   42 N    1 1 0   43 N    0 0 0
                                    44 N    0 0 0
  50 ZN   4     3.2879     6.2132   51 BR   1 1 0   52 BR   1 1 0   53 BR   0 0 0
                                    54 BR   0 0 0
  50 ZN   4     3.3837     6.3943    9 C    1 1 0   10 C    1 1 0   11 C    0 0 0
                                    12 C    0 0 0
  50 ZN   4     4.0678     7.6870    5 C    1 1 1    6 C    0 0-1    7 C    0 1 0
                                     8 C    1 0 0
  50 ZN   4     4.1353     7.8146   33 N    1 1 0   34 N    1 1 0   35 N    0 0 0
                                    36 N    0 0 0

  51 BR   1     1.8782     3.5494   13 C    0 0 1
  51 BR   1     2.6168     4.9450   42 N    0 0 0
  51 BR   1     2.8041     5.2989   26 C    0 0 1
  51 BR   1     2.8791     5.4407    5 C    0 0 1
  51 BR   1     2.9170     5.5123    1 H    0 0 1
  51 BR   1     3.2279     6.0998   40 N   -1-1 0

  55 BR   1     1.9144     3.6177   21 C    0 0 0
  55 BR   1     2.7554     5.2070   45 N    0 0 0
  55 BR   1     2.8738     5.4307    5 C    0 0 0
  55 BR   1     2.9790     5.6295   34 N    0 1 0
  55 BR   1     3.0294     5.7247   29 N    0 0-1
  55 BR   1     3.0468     5.7576   49 ZN   0 1-1

  59 BR   1     1.8905     3.5726   17 C    0 0 0
  59 BR   1     2.7979     5.2873   45 N    0 0 0
  59 BR   1     2.8281     5.3443   26 C    0 0 0
  59 BR   1     2.9315     5.5396    1 H    0 0 0
  59 BR   1     3.2324     6.1084   46 N    0 0 0
  59 BR   1     3.2954     6.2273   33 N    1 0 0


 SYMMETRY ALLOWED INTERNAL DEGREE(S) OF FREEDOM:  45
 TTTTTTTTTTTTTTTTTTTTTTTTTTTTTT SYMM        TELAPSE        7.57 TCPU        0.28
 TTTTTTTTTTTTTTTTTTTTTTTTTTTTTT INT_SCREEN  TELAPSE        7.58 TCPU        0.29
 INFORMATION **** EXCBUF **** EXCH. BIPO BUFFER: WORDS USED =           0

 DFT PARAMETERS

     ATOM       ELECTRONS   NET CHARGE   R(ANGSTROM)
   1   1  H       1.0000      0.0000     1.11000000
   5   6  C       6.0000      0.0000     0.77000000
  29   7  N       7.0000      0.0000     0.74000000
  49  30  ZN     30.0000      0.0000     1.37000000
  51  35  BR     35.0000      0.0000     1.14000000

 SIZE OF GRID=     478855
 TTTTTTTTTTTTTTTTTTTTTTTTTTTTTT MAKE_GRID2  TELAPSE        8.14 TCPU        0.85
 BECKE WEIGHT FUNCTION
 RADSAFE =     2.00
 TOLERANCES - DENSITY:10**- 6; POTENTIAL:10**- 9; GRID WGT:10**-14

 RADIAL INTEGRATION  - INTERVALS (POINTS,UPPER LIMIT):            1( 75,  4.0*R)

 ANGULAR INTEGRATION - INTERVALS (ACCURACY LEVEL [N. POINTS] UPPER LIMIT):
  1(  4[  86]   0.2)  2(  8[ 194]   0.5)  3( 12[ 350]   0.9)  4( 16[ 974]   3.5)
  5( 12[ 350]9999.0)
 TTTTTTTTTTTTTTTTTTTTTTTTTTTTTT INT_CALC    TELAPSE        8.17 TCPU        0.88
 EEEEEEEEEE INT_CALC TERMINATION  DATE 26 03 2024 TIME 17:14:59.8

 *******************************************************************************
 Z:\home\sanoj\Downloads\tmp_p\newconn.mol                                       
 CRYSTAL - SCF - TYPE OF CALCULATION :  RESTRICTED CLOSED SHELL
 *******************************************************************************

 CAPPA:IS1  3;IS2  3;IS3  3; K PTS MONK NET   6; SYMMOPS:K SPACE   8;G SPACE   4

 TTTTTTTTTTTTTTTTTTTTTTTTTTTTTT SDIK        TELAPSE        8.32 TCPU        1.02

 AAAAAAAAAAAAAAAAAAAAAAAAAAAAAAAAAAAAAAAAAAAAAAAAAAAAAAAAAAAAAAAAAAAAAAAAAAAAAAA
         ATOMIC WAVEFUNCTION(S)


 NUCLEAR CHARGE  1.0  SYMMETRY SPECIES            S
 N. ELECTRONS    1.0  NUMBER OF PRIMITIVE GTOS    4
                      NUMBER OF CONTRACTED GTOS   2
                      NUMBER OF CLOSED SHELLS     0
                      OPEN SHELL OCCUPATION       1

  ZNUC SCFIT  TOTAL HF ENERGY   KINETIC ENERGY   VIRIAL THEOREM ACCURACY
   1.0   1   -4.946643675E-01  4.917913167E-01 -2.005842012E+00  9.4E-17

 NUCLEAR CHARGE  6.0  SYMMETRY SPECIES            S    P
 N. ELECTRONS    6.0  NUMBER OF PRIMITIVE GTOS    7    4
                      NUMBER OF CONTRACTED GTOS   3    2
                      NUMBER OF CLOSED SHELLS     2    0
                      OPEN SHELL OCCUPATION       0    2

  ZNUC SCFIT  TOTAL HF ENERGY   KINETIC ENERGY   VIRIAL THEOREM ACCURACY
   6.0   6   -3.750912652E+01  3.905246519E+01 -1.960480378E+00  3.7E-06

 NUCLEAR CHARGE  7.0  SYMMETRY SPECIES            S    P
 N. ELECTRONS    7.0  NUMBER OF PRIMITIVE GTOS    7    4
                      NUMBER OF CONTRACTED GTOS   3    2
                      NUMBER OF CLOSED SHELLS     2    0
                      OPEN SHELL OCCUPATION       0    3

  ZNUC SCFIT  TOTAL HF ENERGY   KINETIC ENERGY   VIRIAL THEOREM ACCURACY
   7.0   9   -5.432196661E+01  5.425066284E+01 -2.001314339E+00  1.2E-06

 NUCLEAR CHARGE 30.0  SYMMETRY SPECIES            S    P    D
 N. ELECTRONS   30.0  NUMBER OF PRIMITIVE GTOS   14    9    5
                      NUMBER OF CONTRACTED GTOS   5    3    2
                      NUMBER OF CLOSED SHELLS     4    2    1
                      OPEN SHELL OCCUPATION       0    0    0

  ZNUC SCFIT  TOTAL HF ENERGY   KINETIC ENERGY   VIRIAL THEOREM ACCURACY
  30.0  10   -1.777404290E+03  1.777325716E+03 -2.000044209E+00  2.5E-06

 NUCLEAR CHARGE 35.0  SYMMETRY SPECIES            S    P    D
 N. ELECTRONS   35.0  NUMBER OF PRIMITIVE GTOS   14   10    7
                      NUMBER OF CONTRACTED GTOS   5    4    4
                      NUMBER OF CLOSED SHELLS     4    2    1
                      OPEN SHELL OCCUPATION       0    5    0

  ZNUC SCFIT  TOTAL HF ENERGY   KINETIC ENERGY   VIRIAL THEOREM ACCURACY
  35.0  13   -2.572060514E+03  2.572021521E+03 -2.000015161E+00  3.6E-06

 AAAAAAAAAAAAAAAAAAAAAAAAAAAAAAAAAAAAAAAAAAAAAAAAAAAAAAAAAAAAAAAAAAAAAAAAAAAAAAA

 TOTAL ATOMIC CHARGES:
   1.0000000   1.0000000   1.0000000   1.0000000   6.0000000   6.0000000
   6.0000000   6.0000000   6.0000000   6.0000000   6.0000000   6.0000000
   6.0000000   6.0000000   6.0000000   6.0000000   6.0000000   6.0000000
   6.0000000   6.0000000   6.0000000   6.0000000   6.0000000   6.0000000
   6.0000000   6.0000000   6.0000000   6.0000000   7.0000000   7.0000000
   7.0000000   7.0000000   7.0000000   7.0000000   7.0000000   7.0000000
   7.0000000   7.0000000   7.0000000   7.0000000   7.0000000   7.0000000
   7.0000000   7.0000000   7.0000000   7.0000000   7.0000000   7.0000000
  30.0000000  30.0000000  35.0000000  35.0000000  35.0000000  35.0000000
  35.0000000  35.0000000  35.0000000  35.0000000  35.0000000  35.0000000
  35.0000000  35.0000000
 TTTTTTTTTTTTTTTTTTTTTTTTTTTTTT MOQGAD      TELAPSE       12.47 TCPU        5.16
 TTTTTTTTTTTTTTTTTTTTTTTTTTTTTT SHELLXN     TELAPSE       41.83 TCPU       19.89
 TTTTTTTTTTTTTTTTTTTTTTTTTTTTTT MONMO3      TELAPSE       44.28 TCPU       22.33
 NUMERICALLY INTEGRATED DENSITY    767.9999047567
 TTTTTTTTTTTTTTTTTTTTTTTTTTTTTT NUMDFT      TELAPSE       44.75 TCPU       22.80
 CYC   0 ETOT(AU) -3.645173891055E+04 DETOT -3.65E+04 tst  0.00E+00 PX  1.00E+00
 TTTTTTTTTTTTTTTTTTTTTTTTTTTTTT DIIS        TELAPSE       44.81 TCPU       22.86
 TTTTTTTTTTTTTTTTTTTTTTTTTTTTTT FDIK        TELAPSE       67.44 TCPU       39.85
 INSULATING STATE
 TOP OF VALENCE BANDS -    BAND    384; K    4; EIG -1.3157179E-01 AU
 TOP OF VALENCE BANDS -    BAND    384; K    1; EIG -1.3241100E-01 AU
 BOTTOM OF VIRTUAL BANDS - BAND    385; K    1; EIG -8.9102655E-02 AU
 INDIRECT ENERGY BAND GAP:   1.1556 eV
 TTTTTTTTTTTTTTTTTTTTTTTTTTTTTT PDIG        TELAPSE       68.28 TCPU       40.69
 TOTAL ATOMIC CHARGES:
   1.2871644   1.2871644   1.2871644   1.2871644   6.3388373   6.3388373
   6.3388373   6.3388373   5.4781247   5.4781247   5.4781247   5.4781247
   5.6699558   5.6699558   5.6699558   5.6699558   5.3207241   5.3207241
   5.3207241   5.3207241   5.3430167   5.3430167   5.3430167   5.3430167
   6.5000882   6.5000882   6.5000882   6.5000882   7.4589202   7.4589202
   7.4589202   7.4589202   7.2135463   7.2135463   7.2135463   7.2135463
   7.4456965   7.4456965   7.4456965   7.4456965   7.1338426   7.1338426
   7.1338426   7.1338426   7.6265356   7.6265356   7.6265356   7.6265356
  28.0464793  28.0356554  35.0335790  35.0335790  35.0335790  35.0335790
  35.0710773  35.0710773  35.0710773  35.0710773  35.0583576  35.0583576
  35.0583576  35.0583576
 TTTTTTTTTTTTTTTTTTTTTTTTTTTTTT MOQGAD      TELAPSE       68.29 TCPU       40.70
 TTTTTTTTTTTTTTTTTTTTTTTTTTTTTT SHELLXN     TELAPSE       86.40 TCPU       58.56
 TTTTTTTTTTTTTTTTTTTTTTTTTTTTTT MONMO3      TELAPSE       92.19 TCPU       64.33
 NUMERICALLY INTEGRATED DENSITY    767.9999610389
 TTTTTTTTTTTTTTTTTTTTTTTTTTTTTT NUMDFT      TELAPSE       93.47 TCPU       65.59
 CYC   1 ETOT(AU) -3.644635101738E+04 DETOT  5.39E+00 tst  0.00E+00 PX  1.00E+00
 TTTTTTTTTTTTTTTTTTTTTTTTTTTTTT DIIS        TELAPSE       93.64 TCPU       65.76
 DIIS TEST: 0.79366E+01 AT SCF   CYCLE   1 - MIX   30 %
 TTTTTTTTTTTTTTTTTTTTTTTTTTTTTT FDIK        TELAPSE      102.22 TCPU       71.90
 INSULATING STATE
 TOP OF VALENCE BANDS -    BAND    384; K    6; EIG -1.7108510E-01 AU
 TOP OF VALENCE BANDS -    BAND    384; K    1; EIG -1.7114209E-01 AU
 BOTTOM OF VIRTUAL BANDS - BAND    385; K    6; EIG -1.2742417E-01 AU
 DIRECT ENERGY BAND GAP:   1.1881 eV
 BOTTOM OF VIRTUAL BANDS - BAND    385; K    1; EIG -1.2649992E-01 AU
 TTTTTTTTTTTTTTTTTTTTTTTTTTTTTT PDIG        TELAPSE      103.06 TCPU       72.73
 TOTAL ATOMIC CHARGES:
   1.2488271   1.2488271   1.2488271   1.2488271   6.1982801   6.1982801
   6.1982801   6.1982801   6.4073594   6.4073594   6.4073594   6.4073594
   6.3769351   6.3769351   6.3769351   6.3769351   6.2800925   6.2800925
   6.2800925   6.2800925   6.4290908   6.4290908   6.4290908   6.4290908
   5.9197647   5.9197647   5.9197647   5.9197647   6.8040539   6.8040539
   6.8040539   6.8040539   6.9775111   6.9775111   6.9775111   6.9775111
   6.8824413   6.8824413   6.8824413   6.8824413   6.8945785   6.8945785
   6.8945785   6.8945785   6.0042878   6.0042878   6.0042878   6.0042878
  29.3847400  29.3803682  34.9586463  34.9586463  34.9586463  34.9586463
  35.0464101  35.0464101  35.0464101  35.0464101  34.8804441  34.8804441
  34.8804441  34.8804441
 TTTTTTTTTTTTTTTTTTTTTTTTTTTTTT MOQGAD      TELAPSE      103.08 TCPU       72.75
 TTTTTTTTTTTTTTTTTTTTTTTTTTTTTT SHELLXN     TELAPSE      124.79 TCPU       91.00
 TTTTTTTTTTTTTTTTTTTTTTTTTTTTTT MONMO3      TELAPSE      127.23 TCPU       93.42
 NUMERICALLY INTEGRATED DENSITY    767.9999777036
 TTTTTTTTTTTTTTTTTTTTTTTTTTTTTT NUMDFT      TELAPSE      128.42 TCPU       94.61
 CYC   2 ETOT(AU) -3.644509474690E+04 DETOT  1.26E+00 tst  1.12E-02 PX  6.24E-01
 TTTTTTTTTTTTTTTTTTTTTTTTTTTTTT DIIS        TELAPSE      128.57 TCPU       94.76
 DIIS TEST: 0.16455E+02 AT SCF   CYCLE   2 - DIIS ACTIVE - HISTORY:     2 CYCLES
 TTTTTTTTTTTTTTTTTTTTTTTTTTTTTT FDIK        TELAPSE      136.83 TCPU      100.69
 INSULATING STATE
 TOP OF VALENCE BANDS -    BAND    384; K    4; EIG -2.2458412E-01 AU
 TOP OF VALENCE BANDS -    BAND    384; K    1; EIG -2.2689469E-01 AU
 BOTTOM OF VIRTUAL BANDS - BAND    385; K    6; EIG -1.2295892E-01 AU
 INDIRECT ENERGY BAND GAP:   2.7654 eV
 BOTTOM OF VIRTUAL BANDS - BAND    385; K    1; EIG -1.2155078E-01 AU
 TTTTTTTTTTTTTTTTTTTTTTTTTTTTTT PDIG        TELAPSE      137.66 TCPU      101.52
 TOTAL ATOMIC CHARGES:
   1.2266977   1.2266977   1.2266977   1.2266977   6.0325870   6.0325870
   6.0325870   6.0325870   5.8585065   5.8585065   5.8585065   5.8585065
   5.8304718   5.8304718   5.8304718   5.8304718   5.9929910   5.9929910
   5.9929910   5.9929910   5.8346668   5.8346668   5.8346668   5.8346668
   6.1606002   6.1606002   6.1606002   6.1606002   7.1160484   7.1160484
   7.1160484   7.1160484   7.1347450   7.1347450   7.1347450   7.1347450
   7.0848221   7.0848221   7.0848221   7.0848221   7.0871424   7.0871424
   7.0871424   7.0871424   7.3311544   7.3311544   7.3311544   7.3311544
  28.9983188  29.0409925  34.9825180  34.9825180  34.9825180  34.9825180
  34.9199784  34.9199784  34.9199784  34.9199784  34.8972425  34.8972425
  34.8972425  34.8972425
 TTTTTTTTTTTTTTTTTTTTTTTTTTTTTT MOQGAD      TELAPSE      137.68 TCPU      101.54
 TTTTTTTTTTTTTTTTTTTTTTTTTTTTTT SHELLXN     TELAPSE      158.05 TCPU      119.45
 TTTTTTTTTTTTTTTTTTTTTTTTTTTTTT MONMO3      TELAPSE      164.72 TCPU      126.10
 NUMERICALLY INTEGRATED DENSITY    767.9999663168
 TTTTTTTTTTTTTTTTTTTTTTTTTTTTTT NUMDFT      TELAPSE      165.96 TCPU      127.32
 CYC   3 ETOT(AU) -3.644758057476E+04 DETOT -2.49E+00 tst  4.70E-03 PX  3.74E-01
 TTTTTTTTTTTTTTTTTTTTTTTTTTTTTT DIIS        TELAPSE      166.12 TCPU      127.48
 DIIS TEST: 0.24088E+01 AT SCF   CYCLE   3 - DIIS ACTIVE - HISTORY:     3 CYCLES
 TTTTTTTTTTTTTTTTTTTTTTTTTTTTTT FDIK        TELAPSE      174.04 TCPU      133.03
 INSULATING STATE
 TOP OF VALENCE BANDS -    BAND    384; K    4; EIG -2.2746409E-01 AU
 TOP OF VALENCE BANDS -    BAND    384; K    1; EIG -2.2984530E-01 AU
 BOTTOM OF VIRTUAL BANDS - BAND    385; K    6; EIG -1.2148818E-01 AU
 INDIRECT ENERGY BAND GAP:   2.8838 eV
 BOTTOM OF VIRTUAL BANDS - BAND    385; K    1; EIG -1.2140984E-01 AU
 TTTTTTTTTTTTTTTTTTTTTTTTTTTTTT PDIG        TELAPSE      174.88 TCPU      133.87
 TOTAL ATOMIC CHARGES:
   1.2534326   1.2534326   1.2534326   1.2534326   6.2961962   6.2961962
   6.2961962   6.2961962   5.8374934   5.8374934   5.8374934   5.8374934
   5.9917166   5.9917166   5.9917166   5.9917166   5.6586694   5.6586694
   5.6586694   5.6586694   5.7405909   5.7405909   5.7405909   5.7405909
   6.3189638   6.3189638   6.3189638   6.3189638   7.2086428   7.2086428
   7.2086428   7.2086428   7.1138119   7.1138119   7.1138119   7.1138119
   7.2233838   7.2233838   7.2233838   7.2233838   7.0314553   7.0314553
   7.0314553   7.0314553   7.0090178   7.0090178   7.0090178   7.0090178
  28.7621929  28.7789590  34.9758569  34.9758569  34.9758569  34.9758569
  35.0034008  35.0034008  35.0034008  35.0034008  34.9520799  34.9520799
  34.9520799  34.9520799
 TTTTTTTTTTTTTTTTTTTTTTTTTTTTTT MOQGAD      TELAPSE      174.89 TCPU      133.88
 TTTTTTTTTTTTTTTTTTTTTTTTTTTTTT SHELLXN     TELAPSE      196.82 TCPU      151.11
 TTTTTTTTTTTTTTTTTTTTTTTTTTTTTT MONMO3      TELAPSE      198.87 TCPU      153.15
 NUMERICALLY INTEGRATED DENSITY    767.9999692124
 TTTTTTTTTTTTTTTTTTTTTTTTTTTTTT NUMDFT      TELAPSE      200.07 TCPU      154.33
 CYC   4 ETOT(AU) -3.644786780962E+04 DETOT -2.87E-01 tst  2.84E-03 PX  1.51E-01
 TTTTTTTTTTTTTTTTTTTTTTTTTTTTTT DIIS        TELAPSE      200.23 TCPU      154.49
 DIIS TEST: 0.57971E+00 AT SCF   CYCLE   4 - DIIS ACTIVE - HISTORY:     4 CYCLES
 TTTTTTTTTTTTTTTTTTTTTTTTTTTTTT FDIK        TELAPSE      206.94 TCPU      159.93
 INSULATING STATE
 TOP OF VALENCE BANDS -    BAND    384; K    3; EIG -2.3040243E-01 AU
 TOP OF VALENCE BANDS -    BAND    384; K    1; EIG -2.3367930E-01 AU
 BOTTOM OF VIRTUAL BANDS - BAND    385; K    1; EIG -1.2450846E-01 AU
 INDIRECT ENERGY BAND GAP:   2.8815 eV
 TTTTTTTTTTTTTTTTTTTTTTTTTTTTTT PDIG        TELAPSE      207.78 TCPU      160.77
 TOTAL ATOMIC CHARGES:
   1.2503015   1.2503015   1.2503015   1.2503015   6.2313606   6.2313606
   6.2313606   6.2313606   5.8754817   5.8754817   5.8754817   5.8754817
   5.9398020   5.9398020   5.9398020   5.9398020   5.8068804   5.8068804
   5.8068804   5.8068804   5.8587631   5.8587631   5.8587631   5.8587631
   6.2375532   6.2375532   6.2375532   6.2375532   7.1440970   7.1440970
   7.1440970   7.1440970   7.1405235   7.1405235   7.1405235   7.1405235
   7.1543539   7.1543539   7.1543539   7.1543539   7.0477651   7.0477651
   7.0477651   7.0477651   7.0754082   7.0754082   7.0754082   7.0754082
  28.7360254  28.7526933  34.9693563  34.9693563  34.9693563  34.9693563
  34.9716234  34.9716234  34.9716234  34.9716234  34.9245504  34.9245504
  34.9245504  34.9245504
 TTTTTTTTTTTTTTTTTTTTTTTTTTTTTT MOQGAD      TELAPSE      207.79 TCPU      160.78
 TTTTTTTTTTTTTTTTTTTTTTTTTTTTTT SHELLXN     TELAPSE      228.52 TCPU      178.89
 TTTTTTTTTTTTTTTTTTTTTTTTTTTTTT MONMO3      TELAPSE      231.03 TCPU      181.39
 NUMERICALLY INTEGRATED DENSITY    767.9999686219
 TTTTTTTTTTTTTTTTTTTTTTTTTTTTTT NUMDFT      TELAPSE      232.27 TCPU      182.62
 CYC   5 ETOT(AU) -3.644793890638E+04 DETOT -7.11E-02 tst  3.85E-04 PX  4.44E-02
 TTTTTTTTTTTTTTTTTTTTTTTTTTTTTT DIIS        TELAPSE      232.43 TCPU      182.78
 DIIS TEST: 0.74308E-01 AT SCF   CYCLE   5 - DIIS ACTIVE - HISTORY:     5 CYCLES
 TTTTTTTTTTTTTTTTTTTTTTTTTTTTTT FDIK        TELAPSE      237.89 TCPU      188.06
 INSULATING STATE
 TOP OF VALENCE BANDS -    BAND    384; K    4; EIG -2.2867481E-01 AU
 TOP OF VALENCE BANDS -    BAND    384; K    1; EIG -2.3106265E-01 AU
 BOTTOM OF VIRTUAL BANDS - BAND    385; K    1; EIG -1.2251606E-01 AU
 INDIRECT ENERGY BAND GAP:   2.8887 eV
 TTTTTTTTTTTTTTTTTTTTTTTTTTTTTT PDIG        TELAPSE      238.73 TCPU      188.89
 TOTAL ATOMIC CHARGES:
   1.2498618   1.2498618   1.2498618   1.2498618   6.2157816   6.2157816
   6.2157816   6.2157816   5.8521375   5.8521375   5.8521375   5.8521375
   5.9457898   5.9457898   5.9457898   5.9457898   5.7851657   5.7851657
   5.7851657   5.7851657   5.7885073   5.7885073   5.7885073   5.7885073
   6.2503800   6.2503800   6.2503800   6.2503800   7.1660818   7.1660818
   7.1660818   7.1660818   7.1170853   7.1170853   7.1170853   7.1170853
   7.1826086   7.1826086   7.1826086   7.1826086   7.0567301   7.0567301
   7.0567301   7.0567301   7.0860891   7.0860891   7.0860891   7.0860891
  28.7699350  28.7869341  34.9861044  34.9861044  34.9861044  34.9861044
  34.9939500  34.9939500  34.9939500  34.9939500  34.9345098  34.9345098
  34.9345098  34.9345098
 TTTTTTTTTTTTTTTTTTTTTTTTTTTTTT MOQGAD      TELAPSE      238.75 TCPU      188.91
 TTTTTTTTTTTTTTTTTTTTTTTTTTTTTT SHELLXN     TELAPSE      256.92 TCPU      206.81
 TTTTTTTTTTTTTTTTTTTTTTTTTTTTTT MONMO3      TELAPSE      261.17 TCPU      211.04
 NUMERICALLY INTEGRATED DENSITY    767.9999689343
 TTTTTTTTTTTTTTTTTTTTTTTTTTTTTT NUMDFT      TELAPSE      262.38 TCPU      212.24
 CYC   6 ETOT(AU) -3.644794999594E+04 DETOT -1.11E-02 tst  1.47E-05 PX  3.86E-02
 TTTTTTTTTTTTTTTTTTTTTTTTTTTTTT DIIS        TELAPSE      262.54 TCPU      212.40
 DIIS TEST: 0.95291E-02 AT SCF   CYCLE   6 - DIIS ACTIVE - HISTORY:     6 CYCLES
 TTTTTTTTTTTTTTTTTTTTTTTTTTTTTT FDIK        TELAPSE      268.33 TCPU      218.00
 INSULATING STATE
 TOP OF VALENCE BANDS -    BAND    384; K    3; EIG -2.2923022E-01 AU
 TOP OF VALENCE BANDS -    BAND    384; K    1; EIG -2.3199165E-01 AU
 BOTTOM OF VIRTUAL BANDS - BAND    385; K    1; EIG -1.2360580E-01 AU
 INDIRECT ENERGY BAND GAP:   2.8742 eV
 TTTTTTTTTTTTTTTTTTTTTTTTTTTTTT PDIG        TELAPSE      269.17 TCPU      218.84
 TOTAL ATOMIC CHARGES:
   1.2459866   1.2459866   1.2459866   1.2459866   6.2197453   6.2197453
   6.2197453   6.2197453   5.8689577   5.8689577   5.8689577   5.8689577
   5.9450439   5.9450439   5.9450439   5.9450439   5.7738500   5.7738500
   5.7738500   5.7738500   5.8153946   5.8153946   5.8153946   5.8153946
   6.2482496   6.2482496   6.2482496   6.2482496   7.1709700   7.1709700
   7.1709700   7.1709700   7.1404640   7.1404640   7.1404640   7.1404640
   7.1549552   7.1549552   7.1549552   7.1549552   7.0386740   7.0386740
   7.0386740   7.0386740   7.0942905   7.0942905   7.0942905   7.0942905
  28.7729787  28.7874061  34.9779402  34.9779402  34.9779402  34.9779402
  34.9798413  34.9798413  34.9798413  34.9798413  34.9355411  34.9355411
  34.9355411  34.9355411
 TTTTTTTTTTTTTTTTTTTTTTTTTTTTTT MOQGAD      TELAPSE      269.19 TCPU      218.86
 TTTTTTTTTTTTTTTTTTTTTTTTTTTTTT SHELLXN     TELAPSE      289.41 TCPU      236.89
 TTTTTTTTTTTTTTTTTTTTTTTTTTTTTT MONMO3      TELAPSE      294.40 TCPU      241.85
 NUMERICALLY INTEGRATED DENSITY    767.9999685061
 TTTTTTTTTTTTTTTTTTTTTTTTTTTTTT NUMDFT      TELAPSE      295.65 TCPU      243.10
 CYC   7 ETOT(AU) -3.644795010660E+04 DETOT -1.11E-04 tst  7.48E-06 PX  8.31E-03
 TTTTTTTTTTTTTTTTTTTTTTTTTTTTTT DIIS        TELAPSE      295.81 TCPU      243.26
 DIIS TEST: 0.11637E-01 AT SCF   CYCLE   7 - DIIS ACTIVE - HISTORY:     7 CYCLES
 TTTTTTTTTTTTTTTTTTTTTTTTTTTTTT FDIK        TELAPSE      302.78 TCPU      248.05
 INSULATING STATE
 TOP OF VALENCE BANDS -    BAND    384; K    4; EIG -2.2916076E-01 AU
 TOP OF VALENCE BANDS -    BAND    384; K    1; EIG -2.3171847E-01 AU
 BOTTOM OF VIRTUAL BANDS - BAND    385; K    1; EIG -1.2327810E-01 AU
 INDIRECT ENERGY BAND GAP:   2.8812 eV
 TTTTTTTTTTTTTTTTTTTTTTTTTTTTTT PDIG        TELAPSE      303.63 TCPU      248.91
 TOTAL ATOMIC CHARGES:
   1.2467024   1.2467024   1.2467024   1.2467024   6.2163946   6.2163946
   6.2163946   6.2163946   5.8627701   5.8627701   5.8627701   5.8627701
   5.9434082   5.9434082   5.9434082   5.9434082   5.7899887   5.7899887
   5.7899887   5.7899887   5.8092456   5.8092456   5.8092456   5.8092456
   6.2515582   6.2515582   6.2515582   6.2515582   7.1527447   7.1527447
   7.1527447   7.1527447   7.1210416   7.1210416   7.1210416   7.1210416
   7.1779449   7.1779449   7.1779449   7.1779449   7.0573862   7.0573862
   7.0573862   7.0573862   7.0867450   7.0867450   7.0867450   7.0867450
  28.7681248  28.7867044  34.9824952  34.9824952  34.9824952  34.9824952
  34.9812001  34.9812001  34.9812001  34.9812001  34.9316670  34.9316670
  34.9316670  34.9316670
 TTTTTTTTTTTTTTTTTTTTTTTTTTTTTT MOQGAD      TELAPSE      303.65 TCPU      248.92
 TTTTTTTTTTTTTTTTTTTTTTTTTTTTTT SHELLXN     TELAPSE      324.09 TCPU      267.00
 TTTTTTTTTTTTTTTTTTTTTTTTTTTTTT MONMO3      TELAPSE      326.99 TCPU      269.89
 NUMERICALLY INTEGRATED DENSITY    767.9999687424
 TTTTTTTTTTTTTTTTTTTTTTTTTTTTTT NUMDFT      TELAPSE      328.19 TCPU      271.08
 CYC   8 ETOT(AU) -3.644795136015E+04 DETOT -1.25E-03 tst  5.69E-06 PX  6.00E-03
 TTTTTTTTTTTTTTTTTTTTTTTTTTTTTT DIIS        TELAPSE      328.35 TCPU      271.24
 DIIS TEST: 0.30985E-02 AT SCF   CYCLE   8 - DIIS ACTIVE - HISTORY:     8 CYCLES
 TTTTTTTTTTTTTTTTTTTTTTTTTTTTTT FDIK        TELAPSE      333.34 TCPU      275.93
 INSULATING STATE
 TOP OF VALENCE BANDS -    BAND    384; K    4; EIG -2.2925031E-01 AU
 TOP OF VALENCE BANDS -    BAND    384; K    1; EIG -2.3184890E-01 AU
 BOTTOM OF VIRTUAL BANDS - BAND    385; K    1; EIG -1.2328798E-01 AU
 INDIRECT ENERGY BAND GAP:   2.8834 eV
 TTTTTTTTTTTTTTTTTTTTTTTTTTTTTT PDIG        TELAPSE      334.19 TCPU      276.77
 TOTAL ATOMIC CHARGES:
   1.2478223   1.2478223   1.2478223   1.2478223   6.2170098   6.2170098
   6.2170098   6.2170098   5.8564036   5.8564036   5.8564036   5.8564036
   5.9420426   5.9420426   5.9420426   5.9420426   5.7918942   5.7918942
   5.7918942   5.7918942   5.8057387   5.8057387   5.8057387   5.8057387
   6.2483301   6.2483301   6.2483301   6.2483301   7.1680803   7.1680803
   7.1680803   7.1680803   7.1261065   7.1261065   7.1261065   7.1261065
   7.1721559   7.1721559   7.1721559   7.1721559   7.0485965   7.0485965
   7.0485965   7.0485965   7.0853762   7.0853762   7.0853762   7.0853762
  28.7696634  28.7862782  34.9822979  34.9822979  34.9822979  34.9822979
  34.9872656  34.9872656  34.9872656  34.9872656  34.9318944  34.9318944
  34.9318944  34.9318944
 TTTTTTTTTTTTTTTTTTTTTTTTTTTTTT MOQGAD      TELAPSE      334.21 TCPU      276.79
 TTTTTTTTTTTTTTTTTTTTTTTTTTTTTT SHELLXN     TELAPSE      354.68 TCPU      294.94
 TTTTTTTTTTTTTTTTTTTTTTTTTTTTTT MONMO3      TELAPSE      357.46 TCPU      297.70
 NUMERICALLY INTEGRATED DENSITY    767.9999687913
 TTTTTTTTTTTTTTTTTTTTTTTTTTTTTT NUMDFT      TELAPSE      358.71 TCPU      298.94
 CYC   9 ETOT(AU) -3.644795169167E+04 DETOT -3.32E-04 tst  9.04E-07 PX  4.00E-03
 TTTTTTTTTTTTTTTTTTTTTTTTTTTTTT DIIS        TELAPSE      358.89 TCPU      299.11
 DIIS TEST: 0.77013E-03 AT SCF   CYCLE   9 - DIIS ACTIVE - HISTORY:     9 CYCLES
 TTTTTTTTTTTTTTTTTTTTTTTTTTTTTT FDIK        TELAPSE      366.69 TCPU      304.68
 INSULATING STATE
 TOP OF VALENCE BANDS -    BAND    384; K    4; EIG -2.2918423E-01 AU
 TOP OF VALENCE BANDS -    BAND    384; K    1; EIG -2.3179871E-01 AU
 BOTTOM OF VIRTUAL BANDS - BAND    385; K    1; EIG -1.2328502E-01 AU
 INDIRECT ENERGY BAND GAP:   2.8817 eV
 TTTTTTTTTTTTTTTTTTTTTTTTTTTTTT PDIG        TELAPSE      367.53 TCPU      305.51
 TOTAL ATOMIC CHARGES:
   1.2474133   1.2474133   1.2474133   1.2474133   6.2190489   6.2190489
   6.2190489   6.2190489   5.8607673   5.8607673   5.8607673   5.8607673
   5.9445881   5.9445881   5.9445881   5.9445881   5.7848912   5.7848912
   5.7848912   5.7848912   5.8066626   5.8066626   5.8066626   5.8066626
   6.2474683   6.2474683   6.2474683   6.2474683   7.1607588   7.1607588
   7.1607588   7.1607588   7.1259880   7.1259880   7.1259880   7.1259880
   7.1725815   7.1725815   7.1725815   7.1725815   7.0514792   7.0514792
   7.0514792   7.0514792   7.0907259   7.0907259   7.0907259   7.0907259
  28.7699202  28.7871990  34.9814116  34.9814116  34.9814116  34.9814116
  34.9837612  34.9837612  34.9837612  34.9837612  34.9331744  34.9331744
  34.9331744  34.9331744
 TTTTTTTTTTTTTTTTTTTTTTTTTTTTTT MOQGAD      TELAPSE      367.55 TCPU      305.53
 TTTTTTTTTTTTTTTTTTTTTTTTTTTTTT SHELLXN     TELAPSE      387.53 TCPU      323.27
 TTTTTTTTTTTTTTTTTTTTTTTTTTTTTT MONMO3      TELAPSE      390.48 TCPU      326.21
 NUMERICALLY INTEGRATED DENSITY    767.9999687383
 TTTTTTTTTTTTTTTTTTTTTTTTTTTTTT NUMDFT      TELAPSE      391.70 TCPU      327.42
 CYC  10 ETOT(AU) -3.644795178259E+04 DETOT -9.09E-05 tst  2.78E-07 PX  1.87E-03
 TTTTTTTTTTTTTTTTTTTTTTTTTTTTTT DIIS        TELAPSE      391.87 TCPU      327.59
 DIIS TEST: 0.19906E-03 AT SCF   CYCLE  10 - DIIS ACTIVE - HISTORY:    10 CYCLES
 TTTTTTTTTTTTTTTTTTTTTTTTTTTTTT FDIK        TELAPSE      399.17 TCPU      332.58
 INSULATING STATE
 TOP OF VALENCE BANDS -    BAND    384; K    4; EIG -2.2922109E-01 AU
 TOP OF VALENCE BANDS -    BAND    384; K    1; EIG -2.3178847E-01 AU
 BOTTOM OF VIRTUAL BANDS - BAND    385; K    1; EIG -1.2331132E-01 AU
 INDIRECT ENERGY BAND GAP:   2.8820 eV
 TTTTTTTTTTTTTTTTTTTTTTTTTTTTTT PDIG        TELAPSE      400.01 TCPU      333.42
 TOTAL ATOMIC CHARGES:
   1.2471019   1.2471019   1.2471019   1.2471019   6.2159454   6.2159454
   6.2159454   6.2159454   5.8612887   5.8612887   5.8612887   5.8612887
   5.9439112   5.9439112   5.9439112   5.9439112   5.7881120   5.7881120
   5.7881120   5.7881120   5.8071540   5.8071540   5.8071540   5.8071540
   6.2512874   6.2512874   6.2512874   6.2512874   7.1627922   7.1627922
   7.1627922   7.1627922   7.1268997   7.1268997   7.1268997   7.1268997
   7.1707059   7.1707059   7.1707059   7.1707059   7.0506655   7.0506655
   7.0506655   7.0506655   7.0878243   7.0878243   7.0878243   7.0878243
  28.7693798  28.7863863  34.9814969  34.9814969  34.9814969  34.9814969
  34.9834595  34.9834595  34.9834595  34.9834595  34.9324140  34.9324140
  34.9324140  34.9324140
 TTTTTTTTTTTTTTTTTTTTTTTTTTTTTT MOQGAD      TELAPSE      400.03 TCPU      333.43
 TTTTTTTTTTTTTTTTTTTTTTTTTTTTTT SHELLXN     TELAPSE      420.03 TCPU      351.18
 TTTTTTTTTTTTTTTTTTTTTTTTTTTTTT MONMO3      TELAPSE      423.40 TCPU      354.55
 NUMERICALLY INTEGRATED DENSITY    767.9999687238
 TTTTTTTTTTTTTTTTTTTTTTTTTTTTTT NUMDFT      TELAPSE      424.64 TCPU      355.77
 CYC  11 ETOT(AU) -3.644795179418E+04 DETOT -1.16E-05 tst  1.16E-07 PX  1.20E-03
 TTTTTTTTTTTTTTTTTTTTTTTTTTTTTT DIIS        TELAPSE      424.81 TCPU      355.94
 DIIS TEST: 0.11545E-03 AT SCF   CYCLE  11 - DIIS ACTIVE - HISTORY:    11 CYCLES
 TTTTTTTTTTTTTTTTTTTTTTTTTTTTTT FDIK        TELAPSE      432.03 TCPU      361.02
 INSULATING STATE
 TOP OF VALENCE BANDS -    BAND    384; K    4; EIG -2.2919346E-01 AU
 TOP OF VALENCE BANDS -    BAND    384; K    1; EIG -2.3180458E-01 AU
 BOTTOM OF VIRTUAL BANDS - BAND    385; K    1; EIG -1.2330963E-01 AU
 INDIRECT ENERGY BAND GAP:   2.8812 eV
 TTTTTTTTTTTTTTTTTTTTTTTTTTTTTT PDIG        TELAPSE      432.87 TCPU      361.86
 TOTAL ATOMIC CHARGES:
   1.2473117   1.2473117   1.2473117   1.2473117   6.2179995   6.2179995
   6.2179995   6.2179995   5.8598135   5.8598135   5.8598135   5.8598135
   5.9431759   5.9431759   5.9431759   5.9431759   5.7873444   5.7873444
   5.7873444   5.7873444   5.8074922   5.8074922   5.8074922   5.8074922
   6.2480994   6.2480994   6.2480994   6.2480994   7.1632908   7.1632908
   7.1632908   7.1632908   7.1257321   7.1257321   7.1257321   7.1257321
   7.1727845   7.1727845   7.1727845   7.1727845   7.0506792   7.0506792
   7.0506792   7.0506792   7.0882932   7.0882932   7.0882932   7.0882932
  28.7695517  28.7865132  34.9819285  34.9819285  34.9819285  34.9819285
  34.9841293  34.9841293  34.9841293  34.9841293  34.9329095  34.9329095
  34.9329095  34.9329095
 TTTTTTTTTTTTTTTTTTTTTTTTTTTTTT MOQGAD      TELAPSE      432.89 TCPU      361.88
 TTTTTTTTTTTTTTTTTTTTTTTTTTTTTT SHELLXN     TELAPSE      452.11 TCPU      379.95
 TTTTTTTTTTTTTTTTTTTTTTTTTTTTTT MONMO3      TELAPSE      456.02 TCPU      383.84
 NUMERICALLY INTEGRATED DENSITY    767.9999687209
 TTTTTTTTTTTTTTTTTTTTTTTTTTTTTT NUMDFT      TELAPSE      457.24 TCPU      385.05
 CYC  12 ETOT(AU) -3.644795180598E+04 DETOT -1.18E-05 tst  6.97E-08 PX  1.01E-03
 TTTTTTTTTTTTTTTTTTTTTTTTTTTTTT DIIS        TELAPSE      457.44 TCPU      385.25
 DIIS TEST: 0.33854E-04 AT SCF   CYCLE  12 - DIIS ACTIVE - HISTORY:    12 CYCLES
 TTTTTTTTTTTTTTTTTTTTTTTTTTTTTT FDIK        TELAPSE      463.27 TCPU      390.87
 INSULATING STATE
 TOP OF VALENCE BANDS -    BAND    384; K    4; EIG -2.2921347E-01 AU
 TOP OF VALENCE BANDS -    BAND    384; K    1; EIG -2.3180928E-01 AU
 BOTTOM OF VIRTUAL BANDS - BAND    385; K    1; EIG -1.2328845E-01 AU
 INDIRECT ENERGY BAND GAP:   2.8824 eV
 TTTTTTTTTTTTTTTTTTTTTTTTTTTTTT PDIG        TELAPSE      464.11 TCPU      391.70
 TOTAL ATOMIC CHARGES:
   1.2473519   1.2473519   1.2473519   1.2473519   6.2178598   6.2178598
   6.2178598   6.2178598   5.8602934   5.8602934   5.8602934   5.8602934
   5.9441294   5.9441294   5.9441294   5.9441294   5.7871173   5.7871173
   5.7871173   5.7871173   5.8064835   5.8064835   5.8064835   5.8064835
   6.2488947   6.2488947   6.2488947   6.2488947   7.1622263   7.1622263
   7.1622263   7.1622263   7.1266813   7.1266813   7.1266813   7.1266813
   7.1714918   7.1714918   7.1714918   7.1714918   7.0507662   7.0507662
   7.0507662   7.0507662   7.0889468   7.0889468   7.0889468   7.0889468
  28.7698109  28.7868692  34.9815692  34.9815692  34.9815692  34.9815692
  34.9842390  34.9842390  34.9842390  34.9842390  34.9327794  34.9327794
  34.9327794  34.9327794
 TTTTTTTTTTTTTTTTTTTTTTTTTTTTTT MOQGAD      TELAPSE      464.12 TCPU      391.72
 TTTTTTTTTTTTTTTTTTTTTTTTTTTTTT SHELLXN     TELAPSE      484.55 TCPU      409.94
 TTTTTTTTTTTTTTTTTTTTTTTTTTTTTT MONMO3      TELAPSE      486.99 TCPU      412.36
 NUMERICALLY INTEGRATED DENSITY    767.9999687398
 TTTTTTTTTTTTTTTTTTTTTTTTTTTTTT NUMDFT      TELAPSE      488.21 TCPU      413.58
 CYC  13 ETOT(AU) -3.644795180960E+04 DETOT -3.62E-06 tst  1.06E-08 PX  3.25E-04
[...]
 CYCLE   5   ALPHA  831.717345  EPSILON    2.752698  DELTA   -4.5251E-02
 TTTTTTTTTTTTTTTTTTTTTTTTTTTTTT MOQGAD      TELAPSE    76211.20 TCPU    75439.32
 TTTTTTTTTTTTTTTTTTTTTTTTTTTTTT CP_MONMON   TELAPSE    76214.68 TCPU    75442.79
 DIIS TEST: 0.10146E+01 AT CPHF  CYCLE   6 - DIIS ACTIVE - HISTORY:     6 CYCLES
 CYCLE   6   ALPHA  832.352579  EPSILON    2.754036  DELTA    6.3523E-01
 TTTTTTTTTTTTTTTTTTTTTTTTTTTTTT MOQGAD      TELAPSE    76380.86 TCPU    75607.58
 TTTTTTTTTTTTTTTTTTTTTTTTTTTTTT CP_MONMON   TELAPSE    76384.35 TCPU    75611.04
 DIIS TEST: 0.13798E+00 AT CPHF  CYCLE   7 - DIIS ACTIVE - HISTORY:     7 CYCLES
 CYCLE   7   ALPHA  832.658048  EPSILON    2.754680  DELTA    3.0547E-01
 TTTTTTTTTTTTTTTTTTTTTTTTTTTTTT MOQGAD      TELAPSE    76550.99 TCPU    75776.33
 TTTTTTTTTTTTTTTTTTTTTTTTTTTTTT CP_MONMON   TELAPSE    76554.48 TCPU    75779.80
 DIIS TEST: 0.19876E+00 AT CPHF  CYCLE   8 - DIIS ACTIVE - HISTORY:     8 CYCLES
 CYCLE   8   ALPHA  832.706620  EPSILON    2.754783  DELTA    4.8571E-02
 TTTTTTTTTTTTTTTTTTTTTTTTTTTTTT MOQGAD      TELAPSE    76720.95 TCPU    75944.77
 TTTTTTTTTTTTTTTTTTTTTTTTTTTTTT CP_MONMON   TELAPSE    76724.43 TCPU    75948.23
 DIIS TEST: 0.12394E+00 AT CPHF  CYCLE   9 - DIIS ACTIVE - HISTORY:     9 CYCLES
 CYCLE   9   ALPHA  832.887549  EPSILON    2.755164  DELTA    1.8093E-01
 TTTTTTTTTTTTTTTTTTTTTTTTTTTTTT MOQGAD      TELAPSE    76890.89 TCPU    76113.30
 TTTTTTTTTTTTTTTTTTTTTTTTTTTTTT CP_MONMON   TELAPSE    76894.38 TCPU    76116.77
 DIIS TEST: 0.14876E-01 AT CPHF  CYCLE  10 - DIIS ACTIVE - HISTORY:    10 CYCLES
 CYCLE  10   ALPHA  832.911104  EPSILON    2.755213  DELTA    2.3554E-02
 TTTTTTTTTTTTTTTTTTTTTTTTTTTTTT MOQGAD      TELAPSE    77060.90 TCPU    76281.90
 TTTTTTTTTTTTTTTTTTTTTTTTTTTTTT CP_MONMON   TELAPSE    77064.39 TCPU    76285.37
 DIIS TEST: 0.15605E-02 AT CPHF  CYCLE  11 - DIIS ACTIVE - HISTORY:    11 CYCLES
 CYCLE  11   ALPHA  832.893736  EPSILON    2.755177  DELTA   -1.7368E-02
 TTTTTTTTTTTTTTTTTTTTTTTTTTTTTT MOQGAD      TELAPSE    77230.96 TCPU    76450.48
 TTTTTTTTTTTTTTTTTTTTTTTTTTTTTT CP_MONMON   TELAPSE    77234.44 TCPU    76453.94
 DIIS TEST: 0.21952E-03 AT CPHF  CYCLE  12 - DIIS ACTIVE - HISTORY:    12 CYCLES
 CYCLE  12   ALPHA  832.869308  EPSILON    2.755125  DELTA   -2.4428E-02
 TTTTTTTTTTTTTTTTTTTTTTTTTTTTTT MOQGAD      TELAPSE    77400.83 TCPU    76618.51
 TTTTTTTTTTTTTTTTTTTTTTTTTTTTTT CP_MONMON   TELAPSE    77404.34 TCPU    76621.97
 DIIS TEST: 0.41569E-04 AT CPHF  CYCLE  13 - DIIS ACTIVE - HISTORY:    13 CYCLES
 CYCLE  13   ALPHA  832.865915  EPSILON    2.755118  DELTA   -3.3932E-03
 TTTTTTTTTTTTTTTTTTTTTTTTTTTTTT MOQGAD      TELAPSE    77572.07 TCPU    76787.52
 TTTTTTTTTTTTTTTTTTTTTTTTTTTTTT CP_MONMON   TELAPSE    77575.56 TCPU    76790.98
 DIIS TEST: 0.45327E-05 AT CPHF  CYCLE  14 - DIIS ACTIVE - HISTORY:    14 CYCLES
 CYCLE  14   ALPHA  832.863084  EPSILON    2.755112  DELTA   -2.8303E-03
 TTTTTTTTTTTTTTTTTTTTTTTTTTTTTT MOQGAD      TELAPSE    78267.13 TCPU    77103.53
 TTTTTTTTTTTTTTTTTTTTTTTTTTTTTT CP_MONMON   TELAPSE    78270.62 TCPU    77107.00
 DIIS TEST: 0.51546E-06 AT CPHF  CYCLE  15 - DIIS ACTIVE - HISTORY:    15 CYCLES
 CYCLE  15   ALPHA  832.862423  EPSILON    2.755111  DELTA   -6.6133E-04
 TTTTTTTTTTTTTTTTTTTTTTTTTTTTTT CP_SC       TELAPSE    78321.22 TCPU    77143.82

 *******************************************************************************

 POLARIZABILITY (ALPHA), DIELECTRIC (EPSILON) AND FIRST-ORDER ELECTRIC
 SUSCEPTIBILITY (CHI(1)) TENSORS (INDEPENDENT COMPONENTS)

  FR.(eV) COMP.   ALPHA(Re,Im)           EPSILON(Re,Im)                CHI(1)
  1.435   XX    1719.4250       0.0000       4.6234       0.0000       3.6234
  1.435   ZZ     832.8624       0.0000       2.7551       0.0000       1.7551

 DIELECTRIC TENSOR

 TENSOR IN PRINCIPAL AXES SYSTEM
 AA  4.623385E+00 BB  4.623385E+00 CC  2.755111E+00

 REFRACTIVE INDICES 
 AA  1.659853E+00 BB  2.150206E+00 CC  2.150206E+00

 OPTICALLY ANISOTROPIC - UNIAXIAL CRYSTAL

 BIREFRINGENCE =  0.4904 (NEGATIVE) - OBLATE OPTICAL ELLIPSOID

 EPSILON=N**2=1+CHI(1)=1+ALPHA*4*PI/V,   4*PI/V=   0.00211 BOHR**(-3)
 ALPHA IN BOHR**3; EPSILON AND CHI(1) ARE DIMENSIONLESS.
 *******************************************************************************

 DYNAMIC FIELD: RUN 10/ 10 - RADIATION WAVELENGTH: 1064.0000 NM

 *******************************************************************************

 ELECTRIC FIELD APPLIED ALONG CARTESIAN DIRECTION X

 *******************************************************************************
 THE NUMBER OF SYMMETRY OPERATORS HAS BEEN REDUCED FROM  4 TO  1

 NEW GRID IN RECIPROCAL SPACE
 *******************************************************************************
 POINTS IN THE IBZ                  14 SHRINKING FACTORS               3  3  3
 *******************************************************************************
 *** K POINTS COORDINATES (OBLIQUE COORDINATES IN UNITS OF SHRINK FAC. )
   1-R(  0  0  0)   2-C(  1  0  0)   3-C(  0  1  2)   4-C(  2  0  1)
   5-C(  0  2  0)   6-C(  1  1  0)   7-C(  1  1  1)   8-C(  1  0  1)
   9-C(  0  1  1)  10-C(  2  1  0)  11-C(  0  0  2)  12-C(  2  1  1)
  13-C(  2  1  2)  14-C(  2  2  1)

 GCALCO - MAX INDICES DIRECT LATTICE VECTOR    14    14    16
 NO.OF VECTORS CREATED 6999 STARS  484 RMAX   215.93074 BOHR
 TTTTTTTTTTTTTTTTTTTTTTTTTTTTTT gordsh1     TELAPSE    78340.95 TCPU    77143.82

 MATRIX SIZE: P(G) 2058540, F(G) 1030034, P(G) IRR 1031912, F(G) IRR 1031912
 MAX G-VECTOR INDEX FOR 1- AND 2-ELECTRON INTEGRALS  59

 TTTTTTTTTTTTTTTTTTTTTTTTTTTTTT INPUT       TELAPSE    78341.05 TCPU    77143.93
 TTTTTTTTTTTTTTTTTTTTTTTTTTTTTT SYMM        TELAPSE    78341.05 TCPU    77143.93

 ***** NEW REFERENCE GEOMETRY *****
 TTTTTTTTTTTTTTTTTTTTTTTTTTTTTT INT_SCREEN  TELAPSE    78341.07 TCPU    77143.94
 INFORMATION **** EXCBUF **** EXCH. BIPO BUFFER: WORDS USED =           0

 DFT PARAMETERS

     ATOM       ELECTRONS   NET CHARGE   R(ANGSTROM)
   1   1  H       1.0000      0.0000     1.11000000
   5   6  C       6.0000      0.0000     0.77000000
  29   7  N       7.0000      0.0000     0.74000000
  49  30  ZN     30.0000      0.0000     1.37000000
  51  35  BR     35.0000      0.0000     1.14000000

 SIZE OF GRID=    1915180
 TTTTTTTTTTTTTTTTTTTTTTTTTTTTTT MAKE_GRID2  TELAPSE    78342.05 TCPU    77144.92
 BECKE WEIGHT FUNCTION
 RADSAFE =     2.00
 TOLERANCES - DENSITY:10**- 6; POTENTIAL:10**- 9; GRID WGT:10**-14

 RADIAL INTEGRATION  - INTERVALS (POINTS,UPPER LIMIT):            1( 75,  4.0*R)

 ANGULAR INTEGRATION - INTERVALS (ACCURACY LEVEL [N. POINTS] UPPER LIMIT):
  1(  4[  86]   0.2)  2(  8[ 194]   0.5)  3( 12[ 350]   0.9)  4( 16[ 974]   3.5)
  5( 12[ 350]9999.0)
 TTTTTTTTTTTTTTTTTTTTTTTTTTTTTT INT_CALC    TELAPSE    78342.09 TCPU    77144.96
 CYCLE   0   ALPHA 2120.160166  EPSILON    5.467864  DELTA    2.1202E+03
 TTTTTTTTTTTTTTTTTTTTTTTTTTTTTT MOQGAD      TELAPSE    78971.06 TCPU    77752.37
 TTTTTTTTTTTTTTTTTTTTTTTTTTTTTT CP_MONMON   TELAPSE    78977.48 TCPU    77758.74
 DIIS TEST: 0.29310E+03 AT CPHF  CYCLE   1 - MIX    0 %
 CYCLE   1   ALPHA  948.738824  EPSILON    2.999300  DELTA   -1.1714E+03
 TTTTTTTTTTTTTTTTTTTTTTTTTTTTTT MOQGAD      TELAPSE    79333.82 TCPU    78109.84
 TTTTTTTTTTTTTTTTTTTTTTTTTTTTTT CP_MONMON   TELAPSE    79340.22 TCPU    78116.21
 DIIS TEST: 0.20550E+04 AT CPHF  CYCLE   2 - DIIS ACTIVE - HISTORY:     2 CYCLES
 CYCLE   2   ALPHA 1576.769540  EPSILON    4.322764  DELTA    6.2803E+02
 TTTTTTTTTTTTTTTTTTTTTTTTTTTTTT MOQGAD      TELAPSE    79742.93 TCPU    78515.89
 TTTTTTTTTTTTTTTTTTTTTTTTTTTTTT CP_MONMON   TELAPSE    79749.34 TCPU    78522.26
 DIIS TEST: 0.99801E+02 AT CPHF  CYCLE   3 - DIIS ACTIVE - HISTORY:     3 CYCLES
 CYCLE   3   ALPHA 1655.563318  EPSILON    4.488808  DELTA    7.8794E+01
 TTTTTTTTTTTTTTTTTTTTTTTTTTTTTT MOQGAD      TELAPSE    80107.99 TCPU    78877.76
 TTTTTTTTTTTTTTTTTTTTTTTTTTTTTT CP_MONMON   TELAPSE    80114.39 TCPU    78884.12
 DIIS TEST: 0.84365E+01 AT CPHF  CYCLE   4 - DIIS ACTIVE - HISTORY:     4 CYCLES
 CYCLE   4   ALPHA 1673.526286  EPSILON    4.526662  DELTA    1.7963E+01
 TTTTTTTTTTTTTTTTTTTTTTTTTTTTTT MOQGAD      TELAPSE    80486.11 TCPU    79251.63
 TTTTTTTTTTTTTTTTTTTTTTTTTTTTTT CP_MONMON   TELAPSE    80492.54 TCPU    79258.02
 DIIS TEST: 0.22594E+01 AT CPHF  CYCLE   5 - DIIS ACTIVE - HISTORY:     5 CYCLES
 CYCLE   5   ALPHA 1677.919735  EPSILON    4.535920  DELTA    4.3934E+00
 TTTTTTTTTTTTTTTTTTTTTTTTTTTTTT MOQGAD      TELAPSE    80904.40 TCPU    79650.02
 TTTTTTTTTTTTTTTTTTTTTTTTTTTTTT CP_MONMON   TELAPSE    80910.83 TCPU    79656.41
 DIIS TEST: 0.91953E-01 AT CPHF  CYCLE   6 - DIIS ACTIVE - HISTORY:     6 CYCLES
 CYCLE   6   ALPHA 1679.135176  EPSILON    4.538482  DELTA    1.2154E+00
 TTTTTTTTTTTTTTTTTTTTTTTTTTTTTT MOQGAD      TELAPSE    81276.62 TCPU    80019.38
 TTTTTTTTTTTTTTTTTTTTTTTTTTTTTT CP_MONMON   TELAPSE    81283.04 TCPU    80025.76
 DIIS TEST: 0.31119E-01 AT CPHF  CYCLE   7 - DIIS ACTIVE - HISTORY:     7 CYCLES
 CYCLE   7   ALPHA 1679.551057  EPSILON    4.539358  DELTA    4.1588E-01
 TTTTTTTTTTTTTTTTTTTTTTTTTTTTTT MOQGAD      TELAPSE    81689.25 TCPU    80407.18
 TTTTTTTTTTTTTTTTTTTTTTTTTTTTTT CP_MONMON   TELAPSE    81695.68 TCPU    80413.57
 DIIS TEST: 0.42491E-02 AT CPHF  CYCLE   8 - DIIS ACTIVE - HISTORY:     8 CYCLES
 CYCLE   8   ALPHA 1679.604656  EPSILON    4.539471  DELTA    5.3600E-02
 TTTTTTTTTTTTTTTTTTTTTTTTTTTTTT MOQGAD      TELAPSE    82058.43 TCPU    80773.48
 TTTTTTTTTTTTTTTTTTTTTTTTTTTTTT CP_MONMON   TELAPSE    82064.91 TCPU    80779.92
 DIIS TEST: 0.35289E-03 AT CPHF  CYCLE   9 - DIIS ACTIVE - HISTORY:     9 CYCLES
 CYCLE   9   ALPHA 1679.571149  EPSILON    4.539400  DELTA   -3.3507E-02
 TTTTTTTTTTTTTTTTTTTTTTTTTTTTTT MOQGAD      TELAPSE    82989.08 TCPU    81549.31
 TTTTTTTTTTTTTTTTTTTTTTTTTTTTTT CP_MONMON   TELAPSE    82995.52 TCPU    81555.71
 DIIS TEST: 0.65518E-04 AT CPHF  CYCLE  10 - DIIS ACTIVE - HISTORY:    10 CYCLES
 CYCLE  10   ALPHA 1679.547308  EPSILON    4.539350  DELTA   -2.3840E-02
 TTTTTTTTTTTTTTTTTTTTTTTTTTTTTT MOQGAD      TELAPSE    83353.04 TCPU    81908.73
 TTTTTTTTTTTTTTTTTTTTTTTTTTTTTT CP_MONMON   TELAPSE    83359.48 TCPU    81915.12
 DIIS TEST: 0.14263E-04 AT CPHF  CYCLE  11 - DIIS ACTIVE - HISTORY:    11 CYCLES
 CYCLE  11   ALPHA 1679.542428  EPSILON    4.539340  DELTA   -4.8801E-03
 TTTTTTTTTTTTTTTTTTTTTTTTTTTTTT MOQGAD      TELAPSE    83710.32 TCPU    82262.90
 TTTTTTTTTTTTTTTTTTTTTTTTTTTTTT CP_MONMON   TELAPSE    83716.72 TCPU    82269.28
 DIIS TEST: 0.11113E-04 AT CPHF  CYCLE  12 - DIIS ACTIVE - HISTORY:    12 CYCLES
 CYCLE  12   ALPHA 1679.540228  EPSILON    4.539335  DELTA   -2.2000E-03
 TTTTTTTTTTTTTTTTTTTTTTTTTTTTTT MOQGAD      TELAPSE    84066.34 TCPU    82615.48
 TTTTTTTTTTTTTTTTTTTTTTTTTTTTTT CP_MONMON   TELAPSE    84072.74 TCPU    82621.85
 DIIS TEST: 0.91082E-06 AT CPHF  CYCLE  13 - DIIS ACTIVE - HISTORY:    13 CYCLES
 CYCLE  13   ALPHA 1679.538636  EPSILON    4.539332  DELTA   -1.5921E-03
 TTTTTTTTTTTTTTTTTTTTTTTTTTTTTT MOQGAD      TELAPSE    84443.54 TCPU    82987.39
 TTTTTTTTTTTTTTTTTTTTTTTTTTTTTT CP_MONMON   TELAPSE    84449.95 TCPU    82993.77
 DIIS TEST: 0.70868E-07 AT CPHF  CYCLE  14 - DIIS ACTIVE - HISTORY:    14 CYCLES
 CYCLE  14   ALPHA 1679.538079  EPSILON    4.539331  DELTA   -5.5747E-04
 TTTTTTTTTTTTTTTTTTTTTTTTTTTTTT CP_SC       TELAPSE    84508.71 TCPU    83007.82

 *******************************************************************************

 ELECTRIC FIELD APPLIED ALONG CARTESIAN DIRECTION Z

 *******************************************************************************
 THE NUMBER OF SYMMETRY OPERATORS HAS BEEN REDUCED FROM  4 TO  2

 NEW GRID IN RECIPROCAL SPACE
 *******************************************************************************
 POINTS IN THE IBZ                  10 SHRINKING FACTORS               3  3  3
 *******************************************************************************
 *** K POINTS COORDINATES (OBLIQUE COORDINATES IN UNITS OF SHRINK FAC. )
   1-R(  0  0  0)   2-C(  1  0  0)   3-C(  2  0  1)   4-C(  1  1  0)
   5-C(  1  0  1)   6-C(  2  1  0)   7-C(  0  0  2)   8-C(  2  1  1)
   9-C(  2  1  2)  10-C(  2  2  1)

 GCALCO - MAX INDICES DIRECT LATTICE VECTOR    14    14    16
 NO.OF VECTORS CREATED 6999 STARS  484 RMAX   215.93074 BOHR
 TTTTTTTTTTTTTTTTTTTTTTTTTTTTTT gordsh1     TELAPSE    84508.72 TCPU    83007.83

 MATRIX SIZE: P(G) 2058540, F(G) 1030034, P(G) IRR  518260, F(G) IRR  518260
 MAX G-VECTOR INDEX FOR 1- AND 2-ELECTRON INTEGRALS  59

 TTTTTTTTTTTTTTTTTTTTTTTTTTTTTT INPUT       TELAPSE    84508.75 TCPU    83007.86
 TTTTTTTTTTTTTTTTTTTTTTTTTTTTTT SYMM        TELAPSE    84508.75 TCPU    83007.86

 ***** NEW REFERENCE GEOMETRY *****
 TTTTTTTTTTTTTTTTTTTTTTTTTTTTTT INT_SCREEN  TELAPSE    84508.76 TCPU    83007.86
 INFORMATION **** EXCBUF **** EXCH. BIPO BUFFER: WORDS USED =           0

 DFT PARAMETERS

     ATOM       ELECTRONS   NET CHARGE   R(ANGSTROM)
   1   1  H       1.0000      0.0000     1.11000000
   5   6  C       6.0000      0.0000     0.77000000
  29   7  N       7.0000      0.0000     0.74000000
  49  30  ZN     30.0000      0.0000     1.37000000
  51  35  BR     35.0000      0.0000     1.14000000

 SIZE OF GRID=     957710
 TTTTTTTTTTTTTTTTTTTTTTTTTTTTTT MAKE_GRID2  TELAPSE    84509.40 TCPU    83008.50
 BECKE WEIGHT FUNCTION
 RADSAFE =     2.00
 TOLERANCES - DENSITY:10**- 6; POTENTIAL:10**- 9; GRID WGT:10**-14

 RADIAL INTEGRATION  - INTERVALS (POINTS,UPPER LIMIT):            1( 75,  4.0*R)

 ANGULAR INTEGRATION - INTERVALS (ACCURACY LEVEL [N. POINTS] UPPER LIMIT):
  1(  4[  86]   0.2)  2(  8[ 194]   0.5)  3( 12[ 350]   0.9)  4( 16[ 974]   3.5)
  5( 12[ 350]9999.0)
 TTTTTTTTTTTTTTTTTTTTTTTTTTTTTT INT_CALC    TELAPSE    84509.43 TCPU    83008.53
 CYCLE   0   ALPHA 1024.283751  EPSILON    3.158498  DELTA    1.0243E+03
 TTTTTTTTTTTTTTTTTTTTTTTTTTTTTT MOQGAD      TELAPSE    84717.37 TCPU    83184.39
 TTTTTTTTTTTTTTTTTTTTTTTTTTTTTT CP_MONMON   TELAPSE    84720.86 TCPU    83187.86
 DIIS TEST: 0.12118E+03 AT CPHF  CYCLE   1 - MIX    0 %
 CYCLE   1   ALPHA  545.138449  EPSILON    2.148783  DELTA   -4.7915E+02
 TTTTTTTTTTTTTTTTTTTTTTTTTTTTTT MOQGAD      TELAPSE    84894.26 TCPU    83356.68
 TTTTTTTTTTTTTTTTTTTTTTTTTTTTTT CP_MONMON   TELAPSE    84897.75 TCPU    83360.14
 DIIS TEST: 0.88425E+03 AT CPHF  CYCLE   2 - DIIS ACTIVE - HISTORY:     2 CYCLES
 CYCLE   2   ALPHA  771.387468  EPSILON    2.625563  DELTA    2.2625E+02
 TTTTTTTTTTTTTTTTTTTTTTTTTTTTTT MOQGAD      TELAPSE    85070.23 TCPU    83526.42
 TTTTTTTTTTTTTTTTTTTTTTTTTTTTTT CP_MONMON   TELAPSE    85073.72 TCPU    83529.89
 DIIS TEST: 0.30632E+02 AT CPHF  CYCLE   3 - DIIS ACTIVE - HISTORY:     3 CYCLES
 CYCLE   3   ALPHA  820.700777  EPSILON    2.729482  DELTA    4.9313E+01
 TTTTTTTTTTTTTTTTTTTTTTTTTTTTTT MOQGAD      TELAPSE    85240.29 TCPU    83694.63
 TTTTTTTTTTTTTTTTTTTTTTTTTTTTTT CP_MONMON   TELAPSE    85243.78 TCPU    83698.10
 DIIS TEST: 0.29221E+01 AT CPHF  CYCLE   4 - DIIS ACTIVE - HISTORY:     4 CYCLES
 CYCLE   4   ALPHA  822.045904  EPSILON    2.732317  DELTA    1.3451E+00
 TTTTTTTTTTTTTTTTTTTTTTTTTTTTTT MOQGAD      TELAPSE    85410.04 TCPU    83862.13
 TTTTTTTTTTTTTTTTTTTTTTTTTTTTTT CP_MONMON   TELAPSE    85413.52 TCPU    83865.59
 DIIS TEST: 0.16531E+01 AT CPHF  CYCLE   5 - DIIS ACTIVE - HISTORY:     5 CYCLES
 CYCLE   5   ALPHA  821.983529  EPSILON    2.732186  DELTA   -6.2375E-02
 TTTTTTTTTTTTTTTTTTTTTTTTTTTTTT MOQGAD      TELAPSE    85587.93 TCPU    84037.00
 TTTTTTTTTTTTTTTTTTTTTTTTTTTTTT CP_MONMON   TELAPSE    85591.41 TCPU    84040.46
 DIIS TEST: 0.88443E+00 AT CPHF  CYCLE   6 - DIIS ACTIVE - HISTORY:     6 CYCLES
 CYCLE   6   ALPHA  822.554110  EPSILON    2.733388  DELTA    5.7058E-01
 TTTTTTTTTTTTTTTTTTTTTTTTTTTTTT MOQGAD      TELAPSE    85761.61 TCPU    84206.44
 TTTTTTTTTTTTTTTTTTTTTTTTTTTTTT CP_MONMON   TELAPSE    85765.11 TCPU    84209.91
 DIIS TEST: 0.11439E+00 AT CPHF  CYCLE   7 - DIIS ACTIVE - HISTORY:     7 CYCLES
 CYCLE   7   ALPHA  822.855316  EPSILON    2.734023  DELTA    3.0121E-01
 TTTTTTTTTTTTTTTTTTTTTTTTTTTTTT MOQGAD      TELAPSE    85943.64 TCPU    84382.57
 TTTTTTTTTTTTTTTTTTTTTTTTTTTTTT CP_MONMON   TELAPSE    85947.14 TCPU    84386.04
 DIIS TEST: 0.16550E+00 AT CPHF  CYCLE   8 - DIIS ACTIVE - HISTORY:     8 CYCLES
 CYCLE   8   ALPHA  822.892224  EPSILON    2.734100  DELTA    3.6908E-02
 TTTTTTTTTTTTTTTTTTTTTTTTTTTTTT MOQGAD      TELAPSE    86118.65 TCPU    84548.80
 TTTTTTTTTTTTTTTTTTTTTTTTTTTTTT CP_MONMON   TELAPSE    86122.12 TCPU    84552.26
 DIIS TEST: 0.10817E+00 AT CPHF  CYCLE   9 - DIIS ACTIVE - HISTORY:     9 CYCLES
 CYCLE   9   ALPHA  823.040071  EPSILON    2.734412  DELTA    1.4785E-01
 TTTTTTTTTTTTTTTTTTTTTTTTTTTTTT MOQGAD      TELAPSE    86292.03 TCPU    84715.77
 TTTTTTTTTTTTTTTTTTTTTTTTTTTTTT CP_MONMON   TELAPSE    86295.53 TCPU    84719.23
 DIIS TEST: 0.12992E-01 AT CPHF  CYCLE  10 - DIIS ACTIVE - HISTORY:    10 CYCLES
 CYCLE  10   ALPHA  823.054709  EPSILON    2.734443  DELTA    1.4638E-02
 TTTTTTTTTTTTTTTTTTTTTTTTTTTTTT MOQGAD      TELAPSE    86462.21 TCPU    84883.72
 TTTTTTTTTTTTTTTTTTTTTTTTTTTTTT CP_MONMON   TELAPSE    86465.70 TCPU    84887.19
 DIIS TEST: 0.12304E-02 AT CPHF  CYCLE  11 - DIIS ACTIVE - HISTORY:    11 CYCLES
 CYCLE  11   ALPHA  823.035892  EPSILON    2.734403  DELTA   -1.8817E-02
 TTTTTTTTTTTTTTTTTTTTTTTTTTTTTT MOQGAD      TELAPSE    86632.58 TCPU    85050.12
 TTTTTTTTTTTTTTTTTTTTTTTTTTTTTT CP_MONMON   TELAPSE    86636.05 TCPU    85053.57
 DIIS TEST: 0.17833E-03 AT CPHF  CYCLE  12 - DIIS ACTIVE - HISTORY:    12 CYCLES
 CYCLE  12   ALPHA  823.014166  EPSILON    2.734357  DELTA   -2.1726E-02
 TTTTTTTTTTTTTTTTTTTTTTTTTTTTTT MOQGAD      TELAPSE    86804.00 TCPU    85218.64
 TTTTTTTTTTTTTTTTTTTTTTTTTTTTTT CP_MONMON   TELAPSE    86807.46 TCPU    85222.08
 DIIS TEST: 0.31814E-04 AT CPHF  CYCLE  13 - DIIS ACTIVE - HISTORY:    13 CYCLES
 CYCLE  13   ALPHA  823.011238  EPSILON    2.734351  DELTA   -2.9275E-03
 TTTTTTTTTTTTTTTTTTTTTTTTTTTTTT MOQGAD      TELAPSE    86982.88 TCPU    85392.11
 TTTTTTTTTTTTTTTTTTTTTTTTTTTTTT CP_MONMON   TELAPSE    86986.35 TCPU    85395.56
 DIIS TEST: 0.37254E-05 AT CPHF  CYCLE  14 - DIIS ACTIVE - HISTORY:    14 CYCLES
 CYCLE  14   ALPHA  823.008774  EPSILON    2.734346  DELTA   -2.4638E-03
 TTTTTTTTTTTTTTTTTTTTTTTTTTTTTT MOQGAD      TELAPSE    87157.83 TCPU    85564.90
 TTTTTTTTTTTTTTTTTTTTTTTTTTTTTT CP_MONMON   TELAPSE    87161.30 TCPU    85568.36
 DIIS TEST: 0.40391E-06 AT CPHF  CYCLE  15 - DIIS ACTIVE - HISTORY:    15 CYCLES
 CYCLE  15   ALPHA  823.008192  EPSILON    2.734345  DELTA   -5.8277E-04
 TTTTTTTTTTTTTTTTTTTTTTTTTTTTTT CP_SC       TELAPSE    87203.27 TCPU    85589.24

 *******************************************************************************

 POLARIZABILITY (ALPHA), DIELECTRIC (EPSILON) AND FIRST-ORDER ELECTRIC
 SUSCEPTIBILITY (CHI(1)) TENSORS (INDEPENDENT COMPONENTS)

  FR.(eV) COMP.   ALPHA(Re,Im)           EPSILON(Re,Im)                CHI(1)
  1.165   XX    1679.5381       0.0000       4.5393       0.0000       3.5393
  1.165   ZZ     823.0082       0.0000       2.7343       0.0000       1.7343

 DIELECTRIC TENSOR

 TENSOR IN PRINCIPAL AXES SYSTEM
 AA  4.539331E+00 BB  4.539331E+00 CC  2.734345E+00

 REFRACTIVE INDICES 
 AA  1.653585E+00 BB  2.130571E+00 CC  2.130571E+00

 OPTICALLY ANISOTROPIC - UNIAXIAL CRYSTAL

 BIREFRINGENCE =  0.4770 (NEGATIVE) - OBLATE OPTICAL ELLIPSOID

 EPSILON=N**2=1+CHI(1)=1+ALPHA*4*PI/V,   4*PI/V=   0.00211 BOHR**(-3)
 ALPHA IN BOHR**3; EPSILON AND CHI(1) ARE DIMENSIONLESS.
 *******************************************************************************


 GCALCO - MAX INDICES DIRECT LATTICE VECTOR    14    14    16
 NO.OF VECTORS CREATED 6999 STARS  484 RMAX   215.93074 BOHR

 CAPPA:IS1  3;IS2  3;IS3  3; K PTS MONK NET   6; SYMMOPS:K SPACE   8;G SPACE   4

 TTTTTTTTTTTTTTTTTTTTTTTTTTTTTT END         TELAPSE    87203.30 TCPU    85589.25
 EEEEEEEEEE TERMINATION  DATE 27 03 2024 TIME 17:28:14.9
NODE    0 CPU TIME =     85589.247
    TOTAL CPU TIME =   5499042.841
