Loading crystal17/1.0.2/intel/19.0
  Loading requirement: intel/19.0 ompi/4.0.1/intel/19.0
          64 PROCESSORS WORKING

         
 *******************************************************************************
 *                                                                             *
 *                               CRYSTAL17                                     *
 *                      public : 1.0.2 - March 1st, 2018                       *
 *                       HTTP://WWW.CRYSTAL.UNITO.IT                           *
 *                                                                             *
 *                              MAIN AUTHORS                                   *
 *                                                                             *
 *  R. DOVESI(1,11), V.R. SAUNDERS(2), C. ROETTI(1,11), R. ORLANDO(1,11),      *
 *  C.M. ZICOVICH-WILSON(1,3), F. PASCALE(4), B. CIVALLERI(1,11),              *
 *  K. DOLL(5), N.M. HARRISON(2,6), I.J. BUSH(7), Ph. D'ARCO(8),               *
 *  M. LLUNELL(9), M. CAUSA'(10), Y. NOEL(8), L. MASCHIO(1,11), A. ERBA(1,11)  *
 *  M. RE'RAT(14), S. CASASSA(1,11)                                            *
 *                                                                             *
 *        CONTRIBUTIONS TO THE CODE HAVE ALSO BEEN GIVEN BY                    *
 *                                                                             *
 *  M. FERRABONE(1,11), M. DE LA PIERRE(1,11), M. FERRERO(1,11),               *
 *  J. BAIMA(1,11), E. ALBANESE(1,11), M.F. PEINTINGER(12), R. BAST(13),       *
 *  B. KIRTMAN(15), V. LACIVITA(1,11), R. DEMICHELIS(1,16)                     *
 *  G. BRANDEBURG(17), S. SALUSTRO(1,11), G. SANSONE(1,11)                     *
 *  M.T. RUGGIERO(18)                                                          *
 *                                                                             *
 * (1) THEORETICAL CHEMISTRY GROUP - UNIVERSITA' DI TORINO - TORINO (ITALY)    *
 * (2) COMPUTATIONAL SCIENCE & ENGINEERING DEPARTMENT - STFC DARESBURY (UK)    *
 * (3) UNIVERSIDAD AUTONOMA DEL ESTADO DE MORELOS - CUERNAVACA (MEXICO)        *
 * (4) UNIVERSITE' DE LORRAINE - NANCY (FRANCE)                                *
 * (5) UNIVERSITAET STUTTGART- STUTTGART (GERMANY)                             *
 * (6) IMPERIAL COLLEGE - LONDON (UK)                                          *
 * (7) OXFORD E-RESEARCH CENTRE - OXFORD (UK)                                  *
 * (8) UPMC - SORBONNE UNIVERSITES - PARIS (FRANCE)                            *
 * (9) UNIVERSIDAD DE BARCELONA - BARCELONA (SPAIN)                            *
 *(10) UNIVERSITA' DI NAPOLI "FEDERICO II" - NAPOLI (ITALY)                    *
 *(11) NIS - NANOSTRUCTURED INTERFACES AND SURFACES - TORINO (ITALY)           *
 *(12) MPI FUER CHEMISCHE ENERGIEKONVERSION - MUELHEIM AN DER RUHR (GERMANY)   *
 *(13) UNIVERSITY OF TROMSO - TROMSO (NORWAY)                                  *
 *(14) UNIVERSITE' DE PAU ET DES PAYS DE L'ADOUR - PAU (FRANCE)                *
 *(15) UNIVERSITY OF CALIFORNIA SANTA BARBARA - SANTA BARBARA (USA)            *
 *(16) CURTIN UNIVERSITY - PERTH (AUSTRALIA)                                   *
 *(17) UNIVERSITY COLLEGE LONDON - LONDON (UK)                                 *
 *(18) CAMBRIDGE UNIVERSITY - CAMBRIDGE (UK)                                   *
 *                                                                             *
 *******************************************************************************
 EEEEEEEEEE STARTING  DATE 15 12 2023 TIME 01:15:54.2
 Z:\home\sanoj\Downloads\tmp_p\newconn.mol                                       

 CRYSTAL CALCULATION
 (INPUT ACCORDING TO THE INTERNATIONAL TABLES FOR X-RAY CRYSTALLOGRAPHY)
 CRYSTAL FAMILY                       :  TETRAGONAL  
 CRYSTAL CLASS  (GROTH - 1921)        :  TETRAGONAL DISPHENOIDAL              

 SPACE GROUP (NONCENTROSYMMETRIC)     :  I -4            

 LATTICE PARAMETERS  (ANGSTROMS AND DEGREES) - CONVENTIONAL CELL
        A           B           C        ALPHA        BETA       GAMMA
    10.69243    10.69243    12.90394    90.00000    90.00000    90.00000


 NUMBER OF IRREDUCIBLE ATOMS IN THE CONVENTIONAL CELL:   17

 INPUT COORDINATES

 ATOM AT. N.              COORDINATES
   1   1     9.757000000000E-02  7.356500000000E-01  3.697200000000E-01
   2   1     4.814600000000E-01  8.552100000000E-01  4.165600000000E-01
   3   1     4.068800000000E-01  4.750700000000E-01  3.851300000000E-01
   4   6     2.848600000000E-01  8.130100000000E-01  3.913600000000E-01
   5   6     2.563000000000E-01 -5.421000000000E-02  3.802200000000E-01
   6   6     1.969200000000E-01  7.157800000000E-01  3.802900000000E-01
   7   6     3.722700000000E-01  5.715400000000E-01  3.879100000000E-01
   8   6     4.119400000000E-01  7.820100000000E-01  4.035600000000E-01
   9   6     7.559800000000E-01  4.059900000000E-01  3.780300000000E-01
  10   7     3.382600000000E-01  2.526000000000E-02  3.332500000000E-01
  11   7     2.851400000000E-01  1.424400000000E-01  3.350400000000E-01
  12   7     1.544500000000E-01  1.189000000000E-02  4.102000000000E-01
  13   7     1.750300000000E-01  1.347400000000E-01  3.802800000000E-01
  14   7     4.551000000000E-01  6.645600000000E-01  4.009900000000E-01
  15  30     0.000000000000E+00  5.000000000000E-01  7.500000000000E-01
  16  30     0.000000000000E+00  0.000000000000E+00  5.000000000000E-01
  17  35     1.488700000000E-01  4.472000000000E-01  3.546000000000E-01

 *******************************************************************************

 << INFORMATION >>: FROM NOW ON, ALL COORDINATES REFER TO THE PRIMITIVE CELL

 *******************************************************************************

 LATTICE PARAMETERS  (ANGSTROMS AND DEGREES) - PRIMITIVE CELL
       A          B          C        ALPHA      BETA     GAMMA        VOLUME
    9.93941    9.93941    9.93941   114.92109 114.92109  99.04794    737.640684

 COORDINATES OF THE EQUIVALENT ATOMS (FRACTIONAL UNITS)

 N. ATOM EQUIV AT. N.          X                  Y                  Z

   1   1   1    1 H     1.05370000000E-01  4.67290000000E-01 -1.66780000000E-01
   2   1   2    1 H    -3.65930000000E-01  2.72150000000E-01  1.66780000000E-01
   3   1   3    1 H    -4.67290000000E-01  3.65930000000E-01 -3.61920000000E-01
   4   1   4    1 H    -2.72150000000E-01 -1.05370000000E-01  3.61920000000E-01

   5   2   1    1 H     2.71770000000E-01 -1.01980000000E-01  3.36670000000E-01
   6   2   2    1 H    -4.38650000000E-01 -6.49000000000E-02 -3.36670000000E-01
   7   2   3    1 H     1.01980000000E-01  4.38650000000E-01  3.73750000000E-01
   8   2   4    1 H     6.49000000000E-02 -2.71770000000E-01 -3.73750000000E-01

   9   3   1    1 H    -1.39800000000E-01 -2.07990000000E-01 -1.18050000000E-01
  10   3   2    1 H    -8.99400000000E-02 -2.17500000000E-02  1.18050000000E-01
  11   3   3    1 H     2.07990000000E-01  8.99400000000E-02  6.81900000000E-02
  12   3   4    1 H     2.17500000000E-02  1.39800000000E-01 -6.81900000000E-02

  13   4   1    6 C     2.04370000000E-01 -3.23780000000E-01  9.78700000000E-02
  14   4   2    6 C    -4.21650000000E-01  1.06500000000E-01 -9.78700000000E-02
  15   4   3    6 C     3.23780000000E-01  4.21650000000E-01 -4.71850000000E-01
  16   4   4    6 C    -1.06500000000E-01 -2.04370000000E-01  4.71850000000E-01

  17   5   1    6 C     3.26010000000E-01 -3.63480000000E-01  2.02090000000E-01
  18   5   2    6 C     4.34430000000E-01  1.23920000000E-01 -2.02090000000E-01
  19   5   3    6 C     3.63480000000E-01 -4.34430000000E-01 -3.10510000000E-01
  20   5   4    6 C    -1.23920000000E-01 -3.26010000000E-01  3.10510000000E-01

  21   6   1    6 C     9.60700000000E-02 -4.22790000000E-01 -8.73000000000E-02
  22   6   2    6 C    -3.35490000000E-01  1.83370000000E-01  8.73000000000E-02
  23   6   3    6 C     4.22790000000E-01  3.35490000000E-01 -4.81140000000E-01
  24   6   4    6 C    -1.83370000000E-01 -9.60700000000E-02  4.81140000000E-01

  25   7   1    6 C    -4.05500000000E-02 -2.39820000000E-01 -5.61900000000E-02
  26   7   2    6 C    -1.83630000000E-01  1.56400000000E-02  5.61900000000E-02
  27   7   3    6 C     2.39820000000E-01  1.83630000000E-01  1.99270000000E-01
  28   7   4    6 C    -1.56400000000E-02  4.05500000000E-02 -1.99270000000E-01

  29   8   1    6 C     1.85570000000E-01 -1.84500000000E-01  1.93950000000E-01
  30   8   2    6 C    -3.78450000000E-01 -8.38000000000E-03 -1.93950000000E-01
  31   8   3    6 C     1.84500000000E-01  3.78450000000E-01  3.70070000000E-01
  32   8   4    6 C     8.38000000000E-03 -1.85570000000E-01 -3.70070000000E-01

  33   9   1    6 C    -2.15980000000E-01  1.34010000000E-01  1.61970000000E-01
  34   9   2    6 C    -2.79600000000E-02 -3.77950000000E-01 -1.61970000000E-01
  35   9   3    6 C    -1.34010000000E-01  2.79600000000E-02 -3.49990000000E-01
  36   9   4    6 C     3.77950000000E-01  2.15980000000E-01  3.49990000000E-01

  37  10   1    7 N     3.58510000000E-01 -3.28490000000E-01  3.63520000000E-01
  38  10   2    7 N     3.07990000000E-01 -5.01000000000E-03 -3.63520000000E-01
  39  10   3    7 N     3.28490000000E-01 -3.07990000000E-01 -3.13000000000E-01
  40  10   4    7 N     5.01000000000E-03 -3.58510000000E-01  3.13000000000E-01

  41  11   1    7 N     4.77480000000E-01 -3.79820000000E-01  4.27580000000E-01
  42  11   2    7 N     1.92600000000E-01  4.99000000000E-02 -4.27580000000E-01
  43  11   3    7 N     3.79820000000E-01 -1.92600000000E-01 -1.42700000000E-01
  44  11   4    7 N    -4.99000000000E-02 -4.77480000000E-01  1.42700000000E-01

  45  12   1    7 N     4.22090000000E-01 -4.35350000000E-01  1.66340000000E-01
  46  12   2    7 N     3.98310000000E-01  2.55750000000E-01 -1.66340000000E-01
  47  12   3    7 N     4.35350000000E-01 -3.98310000000E-01 -1.42560000000E-01
  48  12   4    7 N    -2.55750000000E-01 -4.22090000000E-01  1.42560000000E-01

  49  13   1    7 N    -4.84980000000E-01 -4.44690000000E-01  3.09770000000E-01
  50  13   2    7 N     2.45540000000E-01  2.05250000000E-01 -3.09770000000E-01
  51  13   3    7 N     4.44690000000E-01 -2.45540000000E-01 -4.02900000000E-02
  52  13   4    7 N    -2.05250000000E-01  4.84980000000E-01  4.02900000000E-02

  53  14   1    7 N     6.55500000000E-02 -1.43910000000E-01  1.19660000000E-01
  54  14   2    7 N    -2.63570000000E-01 -5.41100000000E-02 -1.19660000000E-01
  55  14   3    7 N     1.43910000000E-01  2.63570000000E-01  2.09460000000E-01
  56  14   4    7 N     5.41100000000E-02 -6.55500000000E-02 -2.09460000000E-01

  57  15   1   30 ZN    2.50000000000E-01 -2.50000000000E-01 -5.00000000000E-01

  58  16   1   30 ZN   -5.00000000000E-01 -5.00000000000E-01  0.00000000000E+00

  59  17   1   35 BR   -1.98200000000E-01 -4.96530000000E-01 -4.03930000000E-01
  60  17   2   35 BR   -9.26000000000E-02  2.05730000000E-01  4.03930000000E-01
  61  17   3   35 BR    4.96530000000E-01  9.26000000000E-02  2.98330000000E-01
  62  17   4   35 BR   -2.05730000000E-01  1.98200000000E-01 -2.98330000000E-01

 NUMBER OF SYMMETRY OPERATORS         :    4
 *******************************************************************************
 * GEOMETRY EDITING - INPUT COORDINATES ARE GIVEN IN ANGSTROM         
 *******************************************************************************

 GEOMETRY NOW FULLY CONSISTENT WITH THE GROUP

 GCALCO - MAX INDICES DIRECT LATTICE VECTOR    14    14    16
 NO.OF VECTORS CREATED 6999 STARS  485 RMAX   203.49894 BOHR

 GEOMETRY FOR WAVE FUNCTION - DIMENSIONALITY OF THE SYSTEM    3
 (NON PERIODIC DIRECTION: LATTICE PARAMETER FORMALLY SET TO 500)
 *******************************************************************************
 LATTICE PARAMETERS (ANGSTROMS AND DEGREES) - BOHR = 0.5291772083 ANGSTROM
 PRIMITIVE CELL - CENTRING CODE 6/0 VOLUME=   737.640684 - DENSITY  2.304 g/cm^3
         A              B              C           ALPHA      BETA       GAMMA 
     9.93941151     9.93941151     9.93941151   114.921085 114.921085  99.047941
 *******************************************************************************
 ATOMS IN THE ASYMMETRIC UNIT   17 - ATOMS IN THE UNIT CELL:   62
     ATOM                 X/A                 Y/B                 Z/C    
 *******************************************************************************
      1 T   1 H     1.053700000000E-01  4.672900000000E-01 -1.667800000000E-01
      2 F   1 H    -3.659300000000E-01  2.721500000000E-01  1.667800000000E-01
      3 F   1 H    -4.672900000000E-01  3.659300000000E-01 -3.619200000000E-01
      4 F   1 H    -2.721500000000E-01 -1.053700000000E-01  3.619200000000E-01
      5 T   1 H     2.717700000000E-01 -1.019800000000E-01  3.366700000000E-01
      6 F   1 H    -4.386500000000E-01 -6.490000000000E-02 -3.366700000000E-01
      7 F   1 H     1.019800000000E-01  4.386500000000E-01  3.737500000000E-01
      8 F   1 H     6.490000000000E-02 -2.717700000000E-01 -3.737500000000E-01
      9 T   1 H    -1.398000000000E-01 -2.079900000000E-01 -1.180500000000E-01
     10 F   1 H    -8.994000000000E-02 -2.175000000000E-02  1.180500000000E-01
     11 F   1 H     2.079900000000E-01  8.994000000000E-02  6.819000000000E-02
     12 F   1 H     2.175000000000E-02  1.398000000000E-01 -6.819000000000E-02
     13 T   6 C     2.043700000000E-01 -3.237800000000E-01  9.787000000000E-02
     14 F   6 C    -4.216500000000E-01  1.065000000000E-01 -9.787000000000E-02
     15 F   6 C     3.237800000000E-01  4.216500000000E-01 -4.718500000000E-01
     16 F   6 C    -1.065000000000E-01 -2.043700000000E-01  4.718500000000E-01
     17 T   6 C     3.260100000000E-01 -3.634800000000E-01  2.020900000000E-01
     18 F   6 C     4.344300000000E-01  1.239200000000E-01 -2.020900000000E-01
     19 F   6 C     3.634800000000E-01 -4.344300000000E-01 -3.105100000000E-01
     20 F   6 C    -1.239200000000E-01 -3.260100000000E-01  3.105100000000E-01
     21 T   6 C     9.607000000000E-02 -4.227900000000E-01 -8.730000000000E-02
     22 F   6 C    -3.354900000000E-01  1.833700000000E-01  8.730000000000E-02
     23 F   6 C     4.227900000000E-01  3.354900000000E-01 -4.811400000000E-01
     24 F   6 C    -1.833700000000E-01 -9.607000000000E-02  4.811400000000E-01
     25 T   6 C    -4.055000000000E-02 -2.398200000000E-01 -5.619000000000E-02
     26 F   6 C    -1.836300000000E-01  1.564000000000E-02  5.619000000000E-02
     27 F   6 C     2.398200000000E-01  1.836300000000E-01  1.992700000000E-01
     28 F   6 C    -1.564000000000E-02  4.055000000000E-02 -1.992700000000E-01
     29 T   6 C     1.855700000000E-01 -1.845000000000E-01  1.939500000000E-01
     30 F   6 C    -3.784500000000E-01 -8.380000000000E-03 -1.939500000000E-01
     31 F   6 C     1.845000000000E-01  3.784500000000E-01  3.700700000000E-01
     32 F   6 C     8.380000000000E-03 -1.855700000000E-01 -3.700700000000E-01
     33 T   6 C    -2.159800000000E-01  1.340100000000E-01  1.619700000000E-01
     34 F   6 C    -2.796000000000E-02 -3.779500000000E-01 -1.619700000000E-01
     35 F   6 C    -1.340100000000E-01  2.796000000000E-02 -3.499900000000E-01
     36 F   6 C     3.779500000000E-01  2.159800000000E-01  3.499900000000E-01
     37 T   7 N     3.585100000000E-01 -3.284900000000E-01  3.635200000000E-01
     38 F   7 N     3.079900000000E-01 -5.010000000000E-03 -3.635200000000E-01
     39 F   7 N     3.284900000000E-01 -3.079900000000E-01 -3.130000000000E-01
     40 F   7 N     5.010000000000E-03 -3.585100000000E-01  3.130000000000E-01
     41 T   7 N     4.774800000000E-01 -3.798200000000E-01  4.275800000000E-01
     42 F   7 N     1.926000000000E-01  4.990000000000E-02 -4.275800000000E-01
     43 F   7 N     3.798200000000E-01 -1.926000000000E-01 -1.427000000000E-01
     44 F   7 N    -4.990000000000E-02 -4.774800000000E-01  1.427000000000E-01
     45 T   7 N     4.220900000000E-01 -4.353500000000E-01  1.663400000000E-01
     46 F   7 N     3.983100000000E-01  2.557500000000E-01 -1.663400000000E-01
     47 F   7 N     4.353500000000E-01 -3.983100000000E-01 -1.425600000000E-01
     48 F   7 N    -2.557500000000E-01 -4.220900000000E-01  1.425600000000E-01
     49 T   7 N    -4.849800000000E-01 -4.446900000000E-01  3.097700000000E-01
     50 F   7 N     2.455400000000E-01  2.052500000000E-01 -3.097700000000E-01
     51 F   7 N     4.446900000000E-01 -2.455400000000E-01 -4.029000000000E-02
     52 F   7 N    -2.052500000000E-01  4.849800000000E-01  4.029000000000E-02
     53 T   7 N     6.555000000000E-02 -1.439100000000E-01  1.196600000000E-01
     54 F   7 N    -2.635700000000E-01 -5.411000000000E-02 -1.196600000000E-01
     55 F   7 N     1.439100000000E-01  2.635700000000E-01  2.094600000000E-01
     56 F   7 N     5.411000000000E-02 -6.555000000000E-02 -2.094600000000E-01
     57 T  30 ZN    2.500000000000E-01 -2.500000000000E-01  5.000000000000E-01
     58 T  30 ZN    5.000000000000E-01 -5.000000000000E-01  0.000000000000E+00
     59 T  35 BR   -1.982000000000E-01 -4.965300000000E-01 -4.039300000000E-01
     60 F  35 BR   -9.260000000000E-02  2.057300000000E-01  4.039300000000E-01
     61 F  35 BR    4.965300000000E-01  9.260000000000E-02  2.983300000000E-01
     62 F  35 BR   -2.057300000000E-01  1.982000000000E-01 -2.983300000000E-01

 TRANSFORMATION MATRIX PRIMITIVE-CRYSTALLOGRAPHIC CELL
  0.0000  1.0000  1.0000  1.0000  0.0000  1.0000  1.0000  1.0000  0.0000

 *******************************************************************************
 CRYSTALLOGRAPHIC CELL (VOLUME=       1475.28136742)
         A              B              C           ALPHA      BETA       GAMMA 
    10.69242715    10.69242715    12.90393769    90.000000  90.000000  90.000000

 COORDINATES IN THE CRYSTALLOGRAPHIC CELL
     ATOM                 X/A                 Y/B                 Z/C    
 *******************************************************************************
      1 T   1 H    -4.024300000000E-01  2.356500000000E-01 -1.302800000000E-01
      2 F   1 H     4.024300000000E-01 -2.356500000000E-01 -1.302800000000E-01
      3 F   1 H     2.356500000000E-01  4.024300000000E-01  1.302800000000E-01
      4 F   1 H    -2.356500000000E-01 -4.024300000000E-01  1.302800000000E-01
      5 T   1 H    -1.854000000000E-02  3.552100000000E-01 -8.344000000000E-02
      6 F   1 H     1.854000000000E-02 -3.552100000000E-01 -8.344000000000E-02
      7 F   1 H     3.552100000000E-01  1.854000000000E-02  8.344000000000E-02
      8 F   1 H    -3.552100000000E-01 -1.854000000000E-02  8.344000000000E-02
      9 T   1 H    -9.312000000000E-02 -2.493000000000E-02 -1.148700000000E-01
     10 F   1 H     9.312000000000E-02  2.493000000000E-02 -1.148700000000E-01
     11 F   1 H    -2.493000000000E-02  9.312000000000E-02  1.148700000000E-01
     12 F   1 H     2.493000000000E-02 -9.312000000000E-02  1.148700000000E-01
     13 T   6 C    -2.151400000000E-01  3.130100000000E-01 -1.086400000000E-01
     14 F   6 C     2.151400000000E-01 -3.130100000000E-01 -1.086400000000E-01
     15 F   6 C     3.130100000000E-01  2.151400000000E-01  1.086400000000E-01
     16 F   6 C    -3.130100000000E-01 -2.151400000000E-01  1.086400000000E-01
     17 T   6 C    -2.437000000000E-01  4.457900000000E-01 -1.197800000000E-01
     18 F   6 C     2.437000000000E-01 -4.457900000000E-01 -1.197800000000E-01
     19 F   6 C     4.457900000000E-01  2.437000000000E-01  1.197800000000E-01
     20 F   6 C    -4.457900000000E-01 -2.437000000000E-01  1.197800000000E-01
     21 T   6 C    -3.030800000000E-01  2.157800000000E-01 -1.197100000000E-01
     22 F   6 C     3.030800000000E-01 -2.157800000000E-01 -1.197100000000E-01
     23 F   6 C     2.157800000000E-01  3.030800000000E-01  1.197100000000E-01
     24 F   6 C    -2.157800000000E-01 -3.030800000000E-01  1.197100000000E-01
     25 T   6 C    -1.277300000000E-01  7.154000000000E-02 -1.120900000000E-01
     26 F   6 C     1.277300000000E-01 -7.154000000000E-02 -1.120900000000E-01
     27 F   6 C     7.154000000000E-02  1.277300000000E-01  1.120900000000E-01
     28 F   6 C    -7.154000000000E-02 -1.277300000000E-01  1.120900000000E-01
     29 T   6 C    -8.806000000000E-02  2.820100000000E-01 -9.644000000000E-02
     30 F   6 C     8.806000000000E-02 -2.820100000000E-01 -9.644000000000E-02
     31 F   6 C     2.820100000000E-01  8.806000000000E-02  9.644000000000E-02
     32 F   6 C    -2.820100000000E-01 -8.806000000000E-02  9.644000000000E-02
     33 T   6 C     2.559800000000E-01 -9.401000000000E-02 -1.219700000000E-01
     34 F   6 C    -2.559800000000E-01  9.401000000000E-02 -1.219700000000E-01
     35 F   6 C    -9.401000000000E-02 -2.559800000000E-01  1.219700000000E-01
     36 F   6 C     9.401000000000E-02  2.559800000000E-01  1.219700000000E-01
     37 T   7 N     3.382600000000E-01  2.526000000000E-02  3.332500000000E-01
     38 F   7 N    -3.382600000000E-01 -2.526000000000E-02  3.332500000000E-01
     39 F   7 N     2.526000000000E-02 -3.382600000000E-01 -3.332500000000E-01
     40 F   7 N    -2.526000000000E-02  3.382600000000E-01 -3.332500000000E-01
     41 T   7 N    -2.148600000000E-01 -3.575600000000E-01 -1.649600000000E-01
     42 F   7 N     2.148600000000E-01  3.575600000000E-01 -1.649600000000E-01
     43 F   7 N    -3.575600000000E-01  2.148600000000E-01  1.649600000000E-01
     44 F   7 N     3.575600000000E-01 -2.148600000000E-01  1.649600000000E-01
     45 T   7 N     1.544500000000E-01  1.189000000000E-02  4.102000000000E-01
     46 F   7 N    -1.544500000000E-01 -1.189000000000E-02  4.102000000000E-01
     47 F   7 N     1.189000000000E-02 -1.544500000000E-01 -4.102000000000E-01
     48 F   7 N    -1.189000000000E-02  1.544500000000E-01 -4.102000000000E-01
     49 T   7 N     1.750300000000E-01  1.347400000000E-01  3.802800000000E-01
     50 F   7 N    -1.750300000000E-01 -1.347400000000E-01  3.802800000000E-01
     51 F   7 N     1.347400000000E-01 -1.750300000000E-01 -3.802800000000E-01
     52 F   7 N    -1.347400000000E-01  1.750300000000E-01 -3.802800000000E-01
     53 T   7 N    -4.490000000000E-02  1.645600000000E-01 -9.901000000000E-02
     54 F   7 N     4.490000000000E-02 -1.645600000000E-01 -9.901000000000E-02
     55 F   7 N     1.645600000000E-01  4.490000000000E-02  9.901000000000E-02
     56 F   7 N    -1.645600000000E-01 -4.490000000000E-02  9.901000000000E-02
     57 T  30 ZN    5.000000000000E-01  4.395669663471E-17  2.500000000000E-01
     58 T  30 ZN    0.000000000000E+00  0.000000000000E+00 -5.000000000000E-01
     59 T  35 BR   -3.511300000000E-01 -5.280000000000E-02 -1.454000000000E-01
     60 F  35 BR    3.511300000000E-01  5.280000000000E-02 -1.454000000000E-01
     61 F  35 BR   -5.280000000000E-02  3.511300000000E-01  1.454000000000E-01
     62 F  35 BR    5.280000000000E-02 -3.511300000000E-01  1.454000000000E-01

 T = ATOM BELONGING TO THE ASYMMETRIC UNIT

 ****    4 SYMMOPS - TRANSLATORS IN FRACTIONAL UNITS
 **** MATRICES AND TRANSLATORS IN THE CRYSTALLOGRAPHIC REFERENCE FRAME
   V INV                    ROTATION MATRICES                   TRANSLATORS
   1   1  1.00  0.00  0.00  0.00  1.00  0.00  0.00  0.00  1.00  0.00  0.00  0.00
   2   2 -0.00  1.00 -1.00  1.00  0.00 -1.00  0.00 -0.00 -1.00  0.00  0.00  0.00
   3   4  0.00 -1.00 -0.00  0.00 -1.00  1.00  1.00 -1.00 -0.00  0.00  0.00  0.00
   4   3 -1.00  0.00  1.00 -1.00  0.00  0.00 -1.00  1.00  0.00  0.00  0.00  0.00

 DIRECT LATTICE VECTORS CARTESIAN COMPONENTS (ANGSTROM)
          X                    Y                    Z
  -0.534621357600E+01   0.534621357600E+01   0.645196884425E+01
   0.534621357600E+01  -0.534621357600E+01   0.645196884425E+01
   0.534621357600E+01   0.534621357600E+01  -0.645196884425E+01


 CARTESIAN COORDINATES - PRIMITIVE CELL
 *******************************************************************************
 *      ATOM          X(ANGSTROM)         Y(ANGSTROM)         Z(ANGSTROM)
 *******************************************************************************
    1     1 H    -4.302953458779E+00  2.519670458369E+00 -1.681125002058E+00
    2     1 H     4.302953458779E+00 -2.519670458369E+00 -1.681125002058E+00
    3     1 H     2.519670458369E+00  4.302953458779E+00  1.681125002058E+00
    4     1 H    -2.519670458369E+00 -4.302953458779E+00  1.681125002058E+00
    5     1 H    -1.982375993981E-01  3.798057048662E+00 -1.076704560728E+00
    6     1 H     1.982375993981E-01 -3.798057048662E+00 -1.076704560728E+00
    7     1 H     3.798057048662E+00  1.982375993981E-01  1.076704560728E+00
    8     1 H    -3.798057048662E+00 -1.982375993981E-01  1.076704560728E+00
    9     1 H    -9.956788163942E-01 -2.665622088994E-01 -1.482275322278E+00
   10     1 H     9.956788163942E-01  2.665622088994E-01 -1.482275322278E+00
   11     1 H    -2.665622088994E-01  9.956788163942E-01  1.482275322278E+00
   12     1 H     2.665622088994E-01 -9.956788163942E-01  1.482275322278E+00
   13     6 C    -2.300368777481E+00  3.346836622848E+00 -1.401883790479E+00
   14     6 C     2.300368777481E+00 -3.346836622848E+00 -1.401883790479E+00
   15     6 C     3.346836622848E+00  2.300368777481E+00  1.401883790479E+00
   16     6 C    -3.346836622848E+00 -2.300368777481E+00  1.401883790479E+00
   17     6 C    -2.605744496942E+00  4.766577100090E+00 -1.545633656329E+00
   18     6 C     2.605744496942E+00 -4.766577100090E+00 -1.545633656329E+00
   19     6 C     4.766577100090E+00  2.605744496942E+00  1.545633656329E+00
   20     6 C    -4.766577100090E+00 -2.605744496942E+00  1.545633656329E+00
   21     6 C    -3.240660821228E+00  2.307211930859E+00 -1.544730380690E+00
   22     6 C     3.240660821228E+00 -2.307211930859E+00 -1.544730380690E+00
   23     6 C     2.307211930859E+00  3.240660821228E+00  1.544730380690E+00
   24     6 C    -2.307211930859E+00 -3.240660821228E+00  1.544730380690E+00
   25     6 C    -1.365743720125E+00  7.649362384541E-01 -1.446402375504E+00
   26     6 C     1.365743720125E+00 -7.649362384541E-01 -1.446402375504E+00
   27     6 C     7.649362384541E-01  1.365743720125E+00  1.446402375504E+00
   28     6 C    -7.649362384541E-01 -1.365743720125E+00  1.446402375504E+00
   29     6 C    -9.415751350051E-01  3.015371381136E+00 -1.244455750679E+00
   30     6 C     9.415751350051E-01 -3.015371381136E+00 -1.244455750679E+00
   31     6 C     3.015371381136E+00  9.415751350051E-01  1.244455750679E+00
   32     6 C    -3.015371381136E+00 -9.415751350051E-01  1.244455750679E+00
   33     6 C     2.737047502369E+00 -1.005195076560E+00 -1.573893279866E+00
   34     6 C    -2.737047502369E+00  1.005195076560E+00 -1.573893279866E+00
   35     6 C    -1.005195076560E+00 -2.737047502369E+00  1.573893279866E+00
   36     6 C     1.005195076560E+00  2.737047502369E+00  1.573893279866E+00
   37     7 N     3.616820408436E+00  2.700907098595E-01  4.300237234693E+00
   38     7 N    -3.616820408436E+00 -2.700907098595E-01  4.300237234693E+00
   39     7 N     2.700907098595E-01 -3.616820408436E+00 -4.300237234693E+00
   40     7 N    -2.700907098595E-01  3.616820408436E+00 -4.300237234693E+00
   41     7 N    -2.297374897879E+00 -3.823184252469E+00 -2.128633561095E+00
   42     7 N     2.297374897879E+00  3.823184252469E+00 -2.128633561095E+00
   43     7 N    -3.823184252469E+00  2.297374897879E+00  2.128633561095E+00
   44     7 N     3.823184252469E+00 -2.297374897879E+00  2.128633561095E+00
   45     7 N     1.651445373626E+00  1.271329588373E-01  5.293195239823E+00
   46     7 N    -1.651445373626E+00 -1.271329588373E-01  5.293195239823E+00
   47     7 N     1.271329588373E-01 -1.651445373626E+00 -5.293195239823E+00
   48     7 N    -1.271329588373E-01  1.651445373626E+00 -5.293195239823E+00
   49     7 N     1.871495524415E+00  1.440697634460E+00  4.907109424183E+00
   50     7 N    -1.871495524415E+00 -1.440697634460E+00  4.907109424183E+00
   51     7 N     1.440697634460E+00 -1.871495524415E+00 -4.907109424183E+00
   52     7 N    -1.440697634460E+00  1.871495524415E+00 -4.907109424183E+00
   53     7 N    -4.800899791248E-01  1.759545812133E+00 -1.277618870538E+00
   54     7 N     4.800899791248E-01 -1.759545812133E+00 -1.277618870538E+00
   55     7 N     1.759545812133E+00  4.800899791248E-01  1.277618870538E+00
   56     7 N    -1.759545812133E+00 -4.800899791248E-01  1.277618870538E+00
   57    30 ZN    5.346213576000E+00  4.700037766092E-16 -9.677953266375E+00
   58    30 ZN    0.000000000000E+00  0.000000000000E+00  6.451968844250E+00
   59    35 BR   -3.754431945882E+00 -5.645601536256E-01 -1.876232539908E+00
   60    35 BR    3.754431945882E+00  5.645601536256E-01 -1.876232539908E+00
   61    35 BR   -5.645601536256E-01  3.754431945882E+00  1.876232539908E+00
   62    35 BR    5.645601536256E-01 -3.754431945882E+00  1.876232539908E+00

 *******************************************************************************
 STARTING BASIS SET HANDLING 
 *******************************************************************************

 Loading internal basis set: POB-DZVPP           

 Please cite in your publication:
 Peintinger, M. F., Oliveira, D. V. and Bredow, T. (2013), Generally applicable 
 solid-state Gaussian basis sets, in preparation                                
                                                                                
                    

 *******************************************************************************
 LOCAL ATOMIC FUNCTIONS BASIS SET
 *******************************************************************************
   ATOM   X(AU)   Y(AU)   Z(AU)  N. TYPE  EXPONENT  S COEF   P COEF   D/F/G COEF
 *******************************************************************************
   1 H   -8.131   4.761  -3.177
                                  1 S  
                                         2.263E+01 1.441E-02 0.000E+00 0.000E+00
                                         3.236E+00 1.072E-01 0.000E+00 0.000E+00
                                         7.304E-01 3.846E-01 0.000E+00 0.000E+00
                                  2 S  
                                         1.417E-01 1.000E+00 0.000E+00 0.000E+00
                           3-     5 P  
                                         3.944E-01 0.000E+00 1.000E+00 0.000E+00
                           6-     8 P  
                                         1.006E-01 0.000E+00 1.000E+00 0.000E+00
   2 H    8.131  -4.761  -3.177
   3 H    4.761   8.131   3.177
   4 H   -4.761  -8.131   3.177
   5 H   -0.375   7.177  -2.035
   6 H    0.375  -7.177  -2.035
   7 H    7.177   0.375   2.035
   8 H   -7.177  -0.375   2.035
   9 H   -1.882  -0.504  -2.801
  10 H    1.882   0.504  -2.801
  11 H   -0.504   1.882   2.801
  12 H    0.504  -1.882   2.801
  13 C   -4.347   6.325  -2.649
                                 97 S  
                                         1.238E+03 5.457E-03 0.000E+00 0.000E+00
                                         1.863E+02 4.064E-02 0.000E+00 0.000E+00
                                         4.225E+01 1.803E-01 0.000E+00 0.000E+00
                                         1.168E+01 4.632E-01 0.000E+00 0.000E+00
                                         3.593E+00 4.409E-01 0.000E+00 0.000E+00
                                 98 S  
                                         5.281E+00 1.000E+00 0.000E+00 0.000E+00
                                 99 S  
                                         4.447E-01 1.000E+00 0.000E+00 0.000E+00
                         100-   102 P  
                                         9.468E+00 0.000E+00 3.839E-02 0.000E+00
                                         2.010E+00 0.000E+00 2.112E-01 0.000E+00
                                         5.477E-01 0.000E+00 5.133E-01 0.000E+00
                         103-   105 P  
                                         1.604E-01 0.000E+00 1.000E+00 0.000E+00
                         106-   110 D  
                                         6.070E-01 0.000E+00 0.000E+00 1.000E+00
                         111-   115 D  
                                         2.939E-01 0.000E+00 0.000E+00 1.000E+00
  14 C    4.347  -6.325  -2.649
  15 C    6.325   4.347   2.649
  16 C   -6.325  -4.347   2.649
  17 C   -4.924   9.008  -2.921
  18 C    4.924  -9.008  -2.921
  19 C    9.008   4.924   2.921
  20 C   -9.008  -4.924   2.921
  21 C   -6.124   4.360  -2.919
  22 C    6.124  -4.360  -2.919
  23 C    4.360   6.124   2.919
  24 C   -4.360  -6.124   2.919
  25 C   -2.581   1.446  -2.733
  26 C    2.581  -1.446  -2.733
  27 C    1.446   2.581   2.733
  28 C   -1.446  -2.581   2.733
  29 C   -1.779   5.698  -2.352
  30 C    1.779  -5.698  -2.352
  31 C    5.698   1.779   2.352
  32 C   -5.698  -1.779   2.352
  33 C    5.172  -1.900  -2.974
  34 C   -5.172   1.900  -2.974
  35 C   -1.900  -5.172   2.974
  36 C    1.900   5.172   2.974
  37 N    6.835   0.510   8.126
                                553 S  
                                         1.713E+03-5.393E-03 0.000E+00 0.000E+00
                                         2.576E+02-4.022E-02 0.000E+00 0.000E+00
                                         5.846E+01-1.793E-01 0.000E+00 0.000E+00
                                         1.620E+01-4.638E-01 0.000E+00 0.000E+00
                                         5.005E+00-4.417E-01 0.000E+00 0.000E+00
                                554 S  
                                         6.217E-01 1.000E+00 0.000E+00 0.000E+00
                                555 S  
                                         2.921E-01 1.000E+00 0.000E+00 0.000E+00
                         556-   558 P  
                                         1.357E+01 0.000E+00-4.007E-02 0.000E+00
                                         2.926E+00 0.000E+00-2.181E-01 0.000E+00
                                         7.993E-01 0.000E+00-5.129E-01 0.000E+00
                         559-   561 P  
                                         2.244E-01 0.000E+00 1.000E+00 0.000E+00
                         562-   566 D  
                                         3.118E-01 0.000E+00 0.000E+00 1.000E+00
  38 N   -6.835  -0.510   8.126
  39 N    0.510  -6.835  -8.126
  40 N   -0.510   6.835  -8.126
  41 N   -4.341  -7.225  -4.023
  42 N    4.341   7.225  -4.023
  43 N   -7.225   4.341   4.023
  44 N    7.225  -4.341   4.023
  45 N    3.121   0.240  10.003
  46 N   -3.121  -0.240  10.003
  47 N    0.240  -3.121 -10.003
  48 N   -0.240   3.121 -10.003
  49 N    3.537   2.723   9.273
  50 N   -3.537  -2.723   9.273
  51 N    2.723  -3.537  -9.273
  52 N   -2.723   3.537  -9.273
  53 N   -0.907   3.325  -2.414
  54 N    0.907  -3.325  -2.414
  55 N    3.325   0.907   2.414
  56 N   -3.325  -0.907   2.414
  57 ZN  10.103   0.000 -18.289
                                833 S  
                                         8.200E+04 1.421E-03 0.000E+00 0.000E+00
                                         1.231E+04 1.089E-02 0.000E+00 0.000E+00
                                         2.801E+03 5.406E-02 0.000E+00 0.000E+00
                                         7.910E+02 1.885E-01 0.000E+00 0.000E+00
                                         2.576E+02 3.835E-01 0.000E+00 0.000E+00
                                         8.881E+01 2.972E-01 0.000E+00 0.000E+00
                                834 S  
                                         1.719E+02-1.105E-01 0.000E+00 0.000E+00
                                         2.030E+01 6.461E-01 0.000E+00 0.000E+00
                                         8.346E+00 4.422E-01 0.000E+00 0.000E+00
                                835 S  
                                         1.485E+01-2.271E-01 0.000E+00 0.000E+00
                                         2.450E+00 7.243E-01 0.000E+00 0.000E+00
                                         9.985E-01 4.484E-01 0.000E+00 0.000E+00
                                836 S  
                                         1.493E+00 1.000E+00 0.000E+00 0.000E+00
                                837 S  
                                         1.830E-01 1.000E+00 0.000E+00 0.000E+00
                         838-   840 P  
                                         1.072E+03 0.000E+00 9.277E-03 0.000E+00
                                         2.527E+02 0.000E+00 6.954E-02 0.000E+00
                                         8.010E+01 0.000E+00 2.716E-01 0.000E+00
                                         2.890E+01 0.000E+00 5.340E-01 0.000E+00
                                         1.077E+01 0.000E+00 3.450E-01 0.000E+00
                         841-   843 P  
                                         5.645E+00 0.000E+00 3.413E-01 0.000E+00
                                         2.168E+00 0.000E+00 5.639E-01 0.000E+00
                                         8.054E-01 0.000E+00 2.368E-01 0.000E+00
                         844-   846 P  
                                         2.721E-01 0.000E+00 1.000E+00 0.000E+00
                         847-   851 D  
                                         5.609E+01 0.000E+00 0.000E+00 2.959E-02
                                         1.575E+01 0.000E+00 0.000E+00 1.587E-01
                                         5.312E+00 0.000E+00 0.000E+00 3.798E-01
                                         1.774E+00 0.000E+00 0.000E+00 4.690E-01
                         852-   856 D  
                                         5.073E-01 0.000E+00 0.000E+00 1.000E+00
                         857-   863 F  
                                         2.814E+00 0.000E+00 0.000E+00 1.000E+00
                         864-   870 F  
                                         1.300E+00 0.000E+00 0.000E+00 1.000E+00
  58 ZN   0.000   0.000  12.192
  59 BR  -7.095  -1.067  -3.546
                                909 S  
                                         1.133E+05 1.428E-03 0.000E+00 0.000E+00
                                         1.701E+04 1.095E-02 0.000E+00 0.000E+00
                                         3.870E+03 5.442E-02 0.000E+00 0.000E+00
                                         1.093E+03 1.905E-01 0.000E+00 0.000E+00
                                         3.564E+02 3.902E-01 0.000E+00 0.000E+00
                                         1.231E+02 3.081E-01 0.000E+00 0.000E+00
                                910 S  
                                         2.367E+02-1.123E-01 0.000E+00 0.000E+00
                                         2.847E+01 6.478E-01 0.000E+00 0.000E+00
                                         1.188E+01 4.424E-01 0.000E+00 0.000E+00
                                911 S  
                                         2.127E+01-2.264E-01 0.000E+00 0.000E+00
                                         3.613E+00 7.382E-01 0.000E+00 0.000E+00
                                         1.663E+00 4.268E-01 0.000E+00 0.000E+00
                                912 S  
                                         3.641E-01 1.000E+00 0.000E+00 0.000E+00
                                913 S  
                                         1.243E-01 1.000E+00 0.000E+00 0.000E+00
                         914-   916 P  
                                         1.560E+03 0.000E+00 8.717E-03 0.000E+00
                                         3.685E+02 0.000E+00 6.624E-02 0.000E+00
                                         1.172E+02 0.000E+00 2.650E-01 0.000E+00
                                         4.265E+01 0.000E+00 5.384E-01 0.000E+00
                                         1.609E+01 0.000E+00 3.658E-01 0.000E+00
                         917-   919 P  
                                         8.635E+00 0.000E+00 3.425E-01 0.000E+00
                                         3.561E+00 0.000E+00 5.750E-01 0.000E+00
                                         1.529E+00 0.000E+00 2.433E-01 0.000E+00
                         920-   922 P  
                                         6.447E-01 0.000E+00 1.000E+00 0.000E+00
                         923-   925 P  
                                         2.103E-01 0.000E+00 1.000E+00 0.000E+00
                         926-   930 D  
                                         1.049E+02 0.000E+00 0.000E+00 2.265E-02
                                         3.028E+01 0.000E+00 0.000E+00 1.346E-01
                                         1.065E+01 0.000E+00 0.000E+00 3.647E-01
                                         3.870E+00 0.000E+00 0.000E+00 4.904E-01
                         931-   935 D  
                                         1.342E+00 0.000E+00 0.000E+00 1.000E+00
                         936-   940 D  
                                         4.101E-01 0.000E+00 0.000E+00 1.000E+00
                         941-   945 D  
                                         1.985E-01 0.000E+00 0.000E+00 1.000E+00
  60 BR   7.095   1.067  -3.546
  61 BR  -1.067   7.095   3.546
  62 BR   1.067  -7.095   3.546

 *******************************************************************************
 FINISHED BASIS SET HANDLING 
 *******************************************************************************

 INFORMATION **** SET_MPP **** PCRYSTAL CALCULATION
 INFORMATION **** READM2 **** NEW DEFAULT: FOCK/KS MATRIX MIXING SET TO 30 %
 INFORMATION **** READM2 **** NEW DEFAULT: FULL DIRECT SCF MODE
 INFORMATION **** READM2 **** NEW DEFAULT: COULOMB BIPOLAR BUFFER SET TO 32 Mb
 INFORMATION **** READM2 **** NEW DEFAULT: EXCHANGE BIPOLAR BUFFER SET TO 32 Mb

 *******************************************************************************
 NEW DEFAULT: DFT INTEGRATION GRID INCREASED TO XLGRID
 NEW DEFAULT: DIIS ACCELERATOR ACTIVE
 USE KEYWORD NODIIS TO TURN IT OFF
 *******************************************************************************

 INFORMATION **** DFTD3_INPUT **** PERFORM DISPERSION CORRECTION DFT-D3(BJ) IN THE BECKE-JOHNSON DAMPING SCHEME

 PLEASE CITE:
 (1) DFT-D3 Reference
  S. Grimme, J. Antony, S. Ehrlich, and H. Krieg, J. Chem. Phys. 132 (2010), 154104
 (2) BJ-Damping Reference
  S. Grimme, S. Ehrlich, and L. Goerigk, J. Comput. Chem. 32 (2011), 1456-1465
 (3) General DFT-D Review
  S. Grimme, A. Hansen, J. G. Brandenburg, and C. Bannwarth,
  Chem. Rev. 116 (2016), 5105-5154

 INFORMATION **** TOLINTEG **** COULOMB AND EXCHANGE SERIES TOLERANCES MODIFIED
 INFORMATION **** BIPOSIZE **** COULOMB BIPOLAR BUFFER SET TO   100000000
 INFORMATION **** MAXCYCLE **** MAX NUMBER OF SCF CYCLES SET TO          50
 *******************************************************************************
 N. OF ATOMS PER CELL        62  COULOMB OVERLAP TOL         (T1) 10**  -12
 NUMBER OF SHELLS           412  COULOMB PENETRATION TOL     (T2) 10**  -12
 NUMBER OF AO              1056  EXCHANGE OVERLAP TOL        (T3) 10**   20
 N. OF ELECTRONS PER CELL   496  EXCHANGE PSEUDO OVP (F(G))  (T4) 10**   20
 CORE ELECTRONS PER CELL    236  EXCHANGE PSEUDO OVP (P(G))  (T5) 10**   20
 N. OF SYMMETRY OPERATORS     4  POLE ORDER IN MONO ZONE                  4
 *******************************************************************************
 TYPE OF CALCULATION :  RESTRICTED CLOSED SHELL
 KOHN-SHAM HAMILTONIAN

 (EXCHANGE)[CORRELATION] FUNCTIONAL:(PERDEW-BURKE-ERNZERHOF)[PERDEW-BURKE-ERNZERHOF]


 CAPPA:IS1  3;IS2  3;IS3  3; K PTS MONK NET   6; SYMMOPS:K SPACE   8;G SPACE   4

 *******************************************************************************
 MAX NUMBER OF SCF CYCLES      50  CONVERGENCE ON DELTAP        10**-16
 WEIGHT OF F(I) IN F(I+1)      30% CONVERGENCE ON ENERGY        10**- 6
 SHRINK. FACT.(MONKH.)    3  3  3  NUMBER OF K POINTS IN THE IBZ      6
 SHRINKING FACTOR(GILAT NET)    3  NUMBER OF K POINTS(GILAT NET)      6
 *******************************************************************************
 *** K POINTS COORDINATES (OBLIQUE COORDINATES IN UNITS OF IS =  3)
   1-R(  0  0  0)   2-C(  1  0  0)   3-C(  1  1  0)   4-C(  2  1  0)
   5-C(  2  1  1)   6-C(  2  2  1)

 DIRECT LATTICE VECTORS COMPON. (A.U.)     RECIP. LATTICE VECTORS COMPON. (A.U.) 
        X            Y            Z              X            Y            Z
  -10.1028795   10.1028795   12.1924541      0.0000000    0.3109601    0.2576670
   10.1028795  -10.1028795   12.1924541      0.3109601    0.0000000    0.2576670
   10.1028795   10.1028795  -12.1924541      0.3109601    0.3109601    0.0000000

 DISK SPACE FOR EIGENVECTORS (FTN 10)    12266496 REALS

 SYMMETRY ADAPTION OF THE BLOCH FUNCTIONS ENABLED
 TTTTTTTTTTTTTTTTTTTTTTTTTTTTTT gordsh1     TELAPSE       10.40 TCPU        0.06

 MATRIX SIZE: P(G) 1968888, F(G)  985260, P(G) IRR  248826, F(G) IRR  248826
 MAX G-VECTOR INDEX FOR 1- AND 2-ELECTRON INTEGRALS  59

 TTTTTTTTTTTTTTTTTTTTTTTTTTTTTT INPUT       TELAPSE       10.46 TCPU        0.11

 NEIGHBORS OF THE NON-EQUIVALENT ATOMS

 N = NUMBER OF NEIGHBORS AT DISTANCE R
    ATOM  N     R/ANG      R/AU   NEIGHBORS (ATOM LABELS AND CELL INDICES)
   1 H    1     1.0919     2.0634   21 C    0 0 0
   1 H    1     2.1811     4.1217   34 C    0 0 0
   1 H    1     2.1846     4.1283   13 C    0 0 0
   1 H    1     2.8191     5.3274   17 C    0 0 0
   1 H    1     3.0605     5.7836   45 N    0-1 0
   1 H    1     3.0772     5.8150   62 BR   0-1 0

   5 H    1     1.0924     2.0643   29 C    0 0 0
   5 H    1     2.0677     3.9074   53 N    0 0 0
   5 H    1     2.1745     4.1091   13 C    0 0 0
   5 H    1     2.5505     4.8197   38 N    0 0 1
   5 H    1     2.6089     4.9300   37 N    0-1 0
   5 H    1     2.6370     4.9833   17 C    0 0 0

   9 H    1     1.0965     2.0720   25 C    0 0 0
   9 H    1     2.0615     3.8956   10 H    0 0 0
   9 H    1     2.1007     3.9697   53 N    0 0 0
   9 H    1     2.1092     3.9858   54 N    0 0 0
   9 H    1     2.1583     4.0785   34 C    0 0 0
   9 H    1     2.4137     4.5612   26 C    0 0 0

  13 C    1     1.4075     2.6597   29 C    0 0 0
  13 C    1     1.4090     2.6627   21 C    0 0 0
  13 C    1     1.4593     2.7577   17 C    0 0 0
  13 C    1     2.1745     4.1091    5 H    0 0 0
  13 C    1     2.1846     4.1283    1 H    0 0 0
  13 C    1     2.3882     4.5131   34 C    0 0 0

  17 C    1     1.3547     2.5600   45 N    0-1 0
  17 C    1     1.3629     2.5754   37 N    0-1 0
  17 C    1     1.4593     2.7577   13 C    0 0 0
  17 C    1     2.1993     4.1561   49 N    0-1 0
  17 C    1     2.2037     4.1643   41 N    1 0 1
  17 C    1     2.4345     4.6006   29 C    0 0 0

  21 C    1     1.0919     2.0634    1 H    0 0 0
  21 C    1     1.3963     2.6387   34 C    0 0 0
  21 C    1     1.4090     2.6627   13 C    0 0 0
  21 C    1     2.4243     4.5813   29 C    0 0 0
  21 C    1     2.4297     4.5915   25 C    0 0 0
  21 C    1     2.5400     4.7999   17 C    0 0 0

  25 C    1     1.0965     2.0720    9 H    0 0 0
  25 C    1     1.3424     2.5368   53 N    0 0 0
  25 C    1     1.3980     2.6419   34 C    0 0 0
  25 C    1     2.2989     4.3444   29 C    0 0 0
  25 C    1     2.4137     4.5612   10 H    0 0 0
  25 C    1     2.4297     4.5915   21 C    0 0 0

  29 C    1     1.0924     2.0643    5 H    0 0 0
  29 C    1     1.3383     2.5291   53 N    0 0 0
  29 C    1     1.4075     2.6597   13 C    0 0 0
  29 C    1     2.2989     4.3444   25 C    0 0 0
  29 C    1     2.4243     4.5813   21 C    0 0 0
  29 C    1     2.4345     4.6006   17 C    0 0 0

  33 C    1     1.3963     2.6387   22 C    0 0 0
  33 C    1     1.3980     2.6419   26 C    0 0 0
  33 C    1     1.8949     3.5808   60 BR   0 0 0
  33 C    1     2.1583     4.0785   10 H    0 0 0
  33 C    1     2.1811     4.1217    2 H    0 0 0
  33 C    1     2.3882     4.5131   14 C    0 0 0

  37 N    1     1.3629     2.5754   17 C    0 1 0
  37 N    1     1.3759     2.6000   41 N    1 1 1
  37 N    1     2.0537     3.8810   57 ZN   1 1 0
  37 N    1     2.1874     4.1336   49 N    0 0 0
  37 N    1     2.2066     4.1699   45 N    0 0 0
  37 N    1     2.4574     4.6438   13 C    0 1 0

  41 N    1     1.3167     2.4882   49 N   -1-1-1
  41 N    1     1.3759     2.6000   37 N   -1-1-1
  41 N    1     2.2004     4.1582   45 N   -1-1-1
  41 N    1     2.2037     4.1643   17 C   -1 0-1
  41 N    1     2.7084     5.1181    6 H    0 0 0
  41 N    1     2.9668     5.6064   57 ZN   0 0-1

  45 N    1     1.3547     2.5600   17 C    0 1 0
  45 N    1     1.3867     2.6205   49 N    0 0 0
  45 N    1     2.0214     3.8200   58 ZN   0 0 0
  45 N    1     2.2004     4.1582   41 N    1 1 1
  45 N    1     2.2066     4.1699   37 N    0 0 0
  45 N    1     2.5545     4.8273   13 C    0 1 0

  49 N    1     1.3167     2.4882   41 N    1 1 1
  49 N    1     1.3867     2.6205   45 N    0 0 0
  49 N    1     2.1874     4.1336   37 N    0 0 0
  49 N    1     2.1993     4.1561   17 C    0 1 0
  49 N    1     2.8222     5.3331   58 ZN   0 0 0
  49 N    1     3.2303     6.1044    2 H    1 0 0

  53 N    1     1.3383     2.5291   29 C    0 0 0
  53 N    1     1.3424     2.5368   25 C    0 0 0
  53 N    1     2.0677     3.9074    5 H    0 0 0
  53 N    1     2.1007     3.9697    9 H    0 0 0
  53 N    1     2.1092     3.9858   10 H    0 0 0
  53 N    1     2.3981     4.5317   34 C    0 0 0

  57 ZN   4     2.0537     3.8810   37 N   -1-1 0   38 N   -1 0 1   39 N    0 0 1
                                    40 N   -1 0 0
  57 ZN   4     2.6562     5.0195    5 H   -1 0 0    6 H    0 0 1    7 H   -1-1 0
                                     8 H   -1 0 1
  57 ZN   4     2.9668     5.6064   41 N    0 0 1   42 N   -1 0 0   43 N   -1 0 1
                                    44 N   -1-1 0
  57 ZN   4     3.1543     5.9607   17 C   -1 0 0   18 C    0 0 1   19 C   -1-1 0
                                    20 C   -1 0 1
  57 ZN   4     3.2009     6.0488   29 C   -1 0 0   30 C    0 0 1   31 C   -1-1 0
                                    32 C   -1 0 1
  57 ZN   4     3.5520     6.7123   13 C   -1 0 0   14 C    0 0 1   15 C   -1-1 0
                                    16 C   -1 0 1

  58 ZN   4     2.0214     3.8200   45 N    0 0 0   46 N    0 0 0   47 N    1 1 0
                                    48 N    1 1 0
  58 ZN   4     2.8222     5.3331   49 N    0 0 0   50 N    0 0 0   51 N    1 1 0
                                    52 N    1 1 0
  58 ZN   4     3.1992     6.0457   17 C    0 1 0   18 C    1 0 0   19 C    0 0-1
                                    20 C    1 1 1
  58 ZN   4     3.4502     6.5199    1 H    0 1 0    2 H    1 0 0    3 H    0 0-1
                                     4 H    1 1 1
  58 ZN   4     3.9038     7.3772   13 C    0 1 0   14 C    1 0 0   15 C    0 0-1
                                    16 C    1 1 1
  58 ZN   4     4.0069     7.5719   21 C    0 1 0   22 C    1 0 0   23 C    0 0-1
                                    24 C    1 1 1

  59 BR   1     1.8949     3.5808   34 C    0 0 0
  59 BR   1     2.7673     5.2295   25 C    0 0 0
  59 BR   1     2.8026     5.2962    9 H    0 0 0
  59 BR   1     2.9361     5.5485   21 C    0 0 0
  59 BR   1     2.9759     5.6236    8 H    0 0 0
  59 BR   1     3.0772     5.8150    3 H   -1-1-1


 SYMMETRY ALLOWED INTERNAL DEGREE(S) OF FREEDOM:  45
 TTTTTTTTTTTTTTTTTTTTTTTTTTTTTT SYMM        TELAPSE       10.49 TCPU        0.14
 TTTTTTTTTTTTTTTTTTTTTTTTTTTTTT INT_SCREEN  TELAPSE       10.49 TCPU        0.14
 INFORMATION **** EXCBUF **** EXCH. BIPO BUFFER: WORDS USED =           0

 DFT PARAMETERS

     ATOM       ELECTRONS   NET CHARGE   R(ANGSTROM)
   1   1  H       1.0000      0.0000     1.11000000
  13   6  C       6.0000      0.0000     0.77000000
  37   7  N       7.0000      0.0000     0.74000000
  57  30  ZN     30.0000      0.0000     1.37000000
  59  35  BR     35.0000      0.0000     1.14000000

 SIZE OF GRID=     451103
 TTTTTTTTTTTTTTTTTTTTTTTTTTTTTT MAKE_GRID2  TELAPSE       11.33 TCPU        0.98
 BECKE WEIGHT FUNCTION
 RADSAFE =     2.00
 TOLERANCES - DENSITY:10**- 6; POTENTIAL:10**- 9; GRID WGT:10**-14

 RADIAL INTEGRATION  - INTERVALS (POINTS,UPPER LIMIT):            1( 75,  4.0*R)

 ANGULAR INTEGRATION - INTERVALS (ACCURACY LEVEL [N. POINTS] UPPER LIMIT):
  1(  4[  86]   0.2)  2(  8[ 194]   0.5)  3( 12[ 350]   0.9)  4( 16[ 974]   3.5)
  5( 12[ 350]9999.0)
 TTTTTTTTTTTTTTTTTTTTTTTTTTTTTT INT_CALC    TELAPSE       11.37 TCPU        1.01
 EEEEEEEEEE INT_CALC TERMINATION  DATE 15 12 2023 TIME 01:16:05.1

 *******************************************************************************
 Z:\home\sanoj\Downloads\tmp_p\newconn.mol                                       
 CRYSTAL - SCF - TYPE OF CALCULATION :  RESTRICTED CLOSED SHELL
 *******************************************************************************

 CAPPA:IS1  3;IS2  3;IS3  3; K PTS MONK NET   6; SYMMOPS:K SPACE   8;G SPACE   4

 TTTTTTTTTTTTTTTTTTTTTTTTTTTTTT SDIK        TELAPSE       11.54 TCPU        1.18

 AAAAAAAAAAAAAAAAAAAAAAAAAAAAAAAAAAAAAAAAAAAAAAAAAAAAAAAAAAAAAAAAAAAAAAAAAAAAAAA
         ATOMIC WAVEFUNCTION(S)


 NUCLEAR CHARGE  1.0  SYMMETRY SPECIES            S
 N. ELECTRONS    1.0  NUMBER OF PRIMITIVE GTOS    4
                      NUMBER OF CONTRACTED GTOS   2
                      NUMBER OF CLOSED SHELLS     0
                      OPEN SHELL OCCUPATION       1

  ZNUC SCFIT  TOTAL HF ENERGY   KINETIC ENERGY   VIRIAL THEOREM ACCURACY
   1.0   1   -4.946643675E-01  4.917913167E-01 -2.005842012E+00  9.4E-17

 NUCLEAR CHARGE  6.0  SYMMETRY SPECIES            S    P
 N. ELECTRONS    6.0  NUMBER OF PRIMITIVE GTOS    7    4
                      NUMBER OF CONTRACTED GTOS   3    2
                      NUMBER OF CLOSED SHELLS     2    0
                      OPEN SHELL OCCUPATION       0    2

  ZNUC SCFIT  TOTAL HF ENERGY   KINETIC ENERGY   VIRIAL THEOREM ACCURACY
   6.0   6   -3.750912652E+01  3.905246519E+01 -1.960480378E+00  3.7E-06

 NUCLEAR CHARGE  7.0  SYMMETRY SPECIES            S    P
 N. ELECTRONS    7.0  NUMBER OF PRIMITIVE GTOS    7    4
                      NUMBER OF CONTRACTED GTOS   3    2
                      NUMBER OF CLOSED SHELLS     2    0
                      OPEN SHELL OCCUPATION       0    3

  ZNUC SCFIT  TOTAL HF ENERGY   KINETIC ENERGY   VIRIAL THEOREM ACCURACY
   7.0   9   -5.432196661E+01  5.425066284E+01 -2.001314339E+00  1.2E-06

 NUCLEAR CHARGE 30.0  SYMMETRY SPECIES            S    P    D
 N. ELECTRONS   30.0  NUMBER OF PRIMITIVE GTOS   14    9    5
                      NUMBER OF CONTRACTED GTOS   5    3    2
                      NUMBER OF CLOSED SHELLS     4    2    1
                      OPEN SHELL OCCUPATION       0    0    0

  ZNUC SCFIT  TOTAL HF ENERGY   KINETIC ENERGY   VIRIAL THEOREM ACCURACY
  30.0  10   -1.777404290E+03  1.777325716E+03 -2.000044209E+00  2.5E-06

 NUCLEAR CHARGE 35.0  SYMMETRY SPECIES            S    P    D
 N. ELECTRONS   35.0  NUMBER OF PRIMITIVE GTOS   14   10    7
                      NUMBER OF CONTRACTED GTOS   5    4    4
                      NUMBER OF CLOSED SHELLS     4    2    1
                      OPEN SHELL OCCUPATION       0    5    0

  ZNUC SCFIT  TOTAL HF ENERGY   KINETIC ENERGY   VIRIAL THEOREM ACCURACY
  35.0  13   -2.572060514E+03  2.572021521E+03 -2.000015161E+00  3.6E-06

 AAAAAAAAAAAAAAAAAAAAAAAAAAAAAAAAAAAAAAAAAAAAAAAAAAAAAAAAAAAAAAAAAAAAAAAAAAAAAAA

 TOTAL ATOMIC CHARGES:
   1.0000000   1.0000000   1.0000000   1.0000000   1.0000000   1.0000000
   1.0000000   1.0000000   1.0000000   1.0000000   1.0000000   1.0000000
   6.0000000   6.0000000   6.0000000   6.0000000   6.0000000   6.0000000
   6.0000000   6.0000000   6.0000000   6.0000000   6.0000000   6.0000000
   6.0000000   6.0000000   6.0000000   6.0000000   6.0000000   6.0000000
   6.0000000   6.0000000   6.0000000   6.0000000   6.0000000   6.0000000
   7.0000000   7.0000000   7.0000000   7.0000000   7.0000000   7.0000000
   7.0000000   7.0000000   7.0000000   7.0000000   7.0000000   7.0000000
   7.0000000   7.0000000   7.0000000   7.0000000   7.0000000   7.0000000
   7.0000000   7.0000000  30.0000000  30.0000000  35.0000000  35.0000000
  35.0000000  35.0000000
 TTTTTTTTTTTTTTTTTTTTTTTTTTTTTT MOQGAD      TELAPSE       12.40 TCPU        2.04
 TTTTTTTTTTTTTTTTTTTTTTTTTTTTTT SHELLXN     TELAPSE       52.77 TCPU       27.75
 TTTTTTTTTTTTTTTTTTTTTTTTTTTTTT MONMO3      TELAPSE       56.44 TCPU       31.41
 NUMERICALLY INTEGRATED DENSITY    495.9998373427
 TTTTTTTTTTTTTTTTTTTTTTTTTTTTTT NUMDFT      TELAPSE       57.09 TCPU       32.05
 CYC   0 ETOT(AU) -1.586797581003E+04 DETOT -1.59E+04 tst  0.00E+00 PX  1.00E+00
 TTTTTTTTTTTTTTTTTTTTTTTTTTTTTT DIIS        TELAPSE       57.15 TCPU       32.12
 TTTTTTTTTTTTTTTTTTTTTTTTTTTTTT FDIK        TELAPSE       82.74 TCPU       49.02
 INSULATING STATE
 TOP OF VALENCE BANDS -    BAND    248; K    3; EIG -1.3352575E-01 AU
 TOP OF VALENCE BANDS -    BAND    248; K    1; EIG -1.3569539E-01 AU
 BOTTOM OF VIRTUAL BANDS - BAND    249; K    1; EIG -1.0916604E-01 AU
 INDIRECT ENERGY BAND GAP:   0.6629 eV
 TTTTTTTTTTTTTTTTTTTTTTTTTTTTTT PDIG        TELAPSE       83.32 TCPU       49.59
 TOTAL ATOMIC CHARGES:
   1.1727498   1.1727498   1.1727498   1.1727498   1.3481514   1.3481514
   1.3481514   1.3481514   1.2622981   1.2622981   1.2622981   1.2622981
   6.0123625   6.0123625   6.0123625   6.0123625   5.4552552   5.4552552
   5.4552552   5.4552552   6.2472784   6.2472784   6.2472784   6.2472784
   5.8267162   5.8267162   5.8267162   5.8267162   5.8369837   5.8369837
   5.8369837   5.8369837   5.4499924   5.4499924   5.4499924   5.4499924
   7.3971570   7.3971570   7.3971570   7.3971570   7.1868011   7.1868011
   7.1868011   7.1868011   7.3981794   7.3981794   7.3981794   7.3981794
   7.1439015   7.1439015   7.1439015   7.1439015   7.4504811   7.4504811
   7.4504811   7.4504811  27.6119506  27.8750308  34.9399468  34.9399468
  34.9399468  34.9399468
 TTTTTTTTTTTTTTTTTTTTTTTTTTTTTT MOQGAD      TELAPSE       83.34 TCPU       49.61
 TTTTTTTTTTTTTTTTTTTTTTTTTTTTTT SHELLXN     TELAPSE      118.52 TCPU       80.32
 TTTTTTTTTTTTTTTTTTTTTTTTTTTTTT MONMO3      TELAPSE      124.23 TCPU       86.01
 NUMERICALLY INTEGRATED DENSITY    495.9998572605
 TTTTTTTTTTTTTTTTTTTTTTTTTTTTTT NUMDFT      TELAPSE      126.25 TCPU       88.02
 CYC   1 ETOT(AU) -1.586312292447E+04 DETOT  4.85E+00 tst  0.00E+00 PX  1.00E+00
 TTTTTTTTTTTTTTTTTTTTTTTTTTTTTT DIIS        TELAPSE      126.37 TCPU       88.14
 DIIS TEST: 0.13072E+02 AT SCF   CYCLE   1 - MIX   30 %
 TTTTTTTTTTTTTTTTTTTTTTTTTTTTTT FDIK        TELAPSE      134.45 TCPU       94.06
 INSULATING STATE
 TOP OF VALENCE BANDS -    BAND    248; K    3; EIG -1.3785579E-01 AU
 TOP OF VALENCE BANDS -    BAND    248; K    1; EIG -1.3980167E-01 AU
 BOTTOM OF VIRTUAL BANDS - BAND    249; K    6; EIG -1.2433220E-01 AU
 INDIRECT ENERGY BAND GAP:   0.3680 eV
 BOTTOM OF VIRTUAL BANDS - BAND    249; K    1; EIG -1.2212019E-01 AU
 TTTTTTTTTTTTTTTTTTTTTTTTTTTTTT PDIG        TELAPSE      135.01 TCPU       94.62
 TOTAL ATOMIC CHARGES:
   1.1482567   1.1482567   1.1482567   1.1482567   1.3592544   1.3592544
   1.3592544   1.3592544   1.2256349   1.2256349   1.2256349   1.2256349
   6.2006328   6.2006328   6.2006328   6.2006328   6.2000243   6.2000243
   6.2000243   6.2000243   6.2557840   6.2557840   6.2557840   6.2557840
   5.9260912   5.9260912   5.9260912   5.9260912   6.2475200   6.2475200
   6.2475200   6.2475200   5.9451129   5.9451129   5.9451129   5.9451129
   7.0251777   7.0251777   7.0251777   7.0251777   6.8374805   6.8374805
   6.8374805   6.8374805   6.9755652   6.9755652   6.9755652   6.9755652
   6.8094625   6.8094625   6.8094625   6.8094625   6.0414514   6.0414514
   6.0414514   6.0414514  29.9551985  29.6421538  34.9032133  34.9032133
  34.9032133  34.9032133
 TTTTTTTTTTTTTTTTTTTTTTTTTTTTTT MOQGAD      TELAPSE      135.04 TCPU       94.65
 TTTTTTTTTTTTTTTTTTTTTTTTTTTTTT SHELLXN     TELAPSE      168.28 TCPU      125.44
 TTTTTTTTTTTTTTTTTTTTTTTTTTTTTT MONMO3      TELAPSE      174.06 TCPU      131.21
 NUMERICALLY INTEGRATED DENSITY    495.9998785116
 TTTTTTTTTTTTTTTTTTTTTTTTTTTTTT NUMDFT      TELAPSE      176.01 TCPU      133.14
 CYC   2 ETOT(AU) -1.586188872077E+04 DETOT  1.23E+00 tst  1.36E-01 PX  9.20E-01
 TTTTTTTTTTTTTTTTTTTTTTTTTTTTTT DIIS        TELAPSE      176.16 TCPU      133.29
 DIIS TEST: 0.19535E+02 AT SCF   CYCLE   2 - DIIS ACTIVE - HISTORY:     2 CYCLES
 TTTTTTTTTTTTTTTTTTTTTTTTTTTTTT FDIK        TELAPSE      184.61 TCPU      139.77
 INSULATING STATE
 TOP OF VALENCE BANDS -    BAND    248; K    1; EIG -2.3111967E-01 AU
 BOTTOM OF VIRTUAL BANDS - BAND    249; K    1; EIG -1.3382302E-01 AU
 DIRECT ENERGY BAND GAP:   2.6476 eV
 TTTTTTTTTTTTTTTTTTTTTTTTTTTTTT PDIG        TELAPSE      185.18 TCPU      140.34
 TOTAL ATOMIC CHARGES:
   1.1119502   1.1119502   1.1119502   1.1119502   1.2311054   1.2311054
   1.2311054   1.2311054   1.1650960   1.1650960   1.1650960   1.1650960
   5.8077866   5.8077866   5.8077866   5.8077866   5.7351480   5.7351480
   5.7351480   5.7351480   6.0391232   6.0391232   6.0391232   6.0391232
   6.1432677   6.1432677   6.1432677   6.1432677   5.9311313   5.9311313
   5.9311313   5.9311313   5.6527318   5.6527318   5.6527318   5.6527318
   7.0172885   7.0172885   7.0172885   7.0172885   7.1464010   7.1464010
   7.1464010   7.1464010   7.0724727   7.0724727   7.0724727   7.0724727
   7.0958865   7.0958865   7.0958865   7.0958865   7.4738805   7.4738805
   7.4738805   7.4738805  29.1231937  29.1164594  34.8168175  34.8168175
  34.8168175  34.8168175
 TTTTTTTTTTTTTTTTTTTTTTTTTTTTTT MOQGAD      TELAPSE      185.20 TCPU      140.36
 TTTTTTTTTTTTTTTTTTTTTTTTTTTTTT SHELLXN     TELAPSE      218.34 TCPU      171.16
 TTTTTTTTTTTTTTTTTTTTTTTTTTTTTT MONMO3      TELAPSE      224.17 TCPU      176.97
 NUMERICALLY INTEGRATED DENSITY    495.9998533295
 TTTTTTTTTTTTTTTTTTTTTTTTTTTTTT NUMDFT      TELAPSE      226.13 TCPU      178.92
 CYC   3 ETOT(AU) -1.586448910436E+04 DETOT -2.60E+00 tst  2.39E-02 PX  7.02E-01
 TTTTTTTTTTTTTTTTTTTTTTTTTTTTTT DIIS        TELAPSE      226.25 TCPU      179.04
 DIIS TEST: 0.50024E+01 AT SCF   CYCLE   3 - DIIS ACTIVE - HISTORY:     3 CYCLES
 TTTTTTTTTTTTTTTTTTTTTTTTTTTTTT FDIK        TELAPSE      236.92 TCPU      184.73
 INSULATING STATE
 TOP OF VALENCE BANDS -    BAND    248; K    4; EIG -2.1195110E-01 AU
 TOP OF VALENCE BANDS -    BAND    248; K    1; EIG -2.1353775E-01 AU
 BOTTOM OF VIRTUAL BANDS - BAND    249; K    6; EIG -1.2273825E-01 AU
 INDIRECT ENERGY BAND GAP:   2.4276 eV
 BOTTOM OF VIRTUAL BANDS - BAND    249; K    1; EIG -1.2234603E-01 AU
 TTTTTTTTTTTTTTTTTTTTTTTTTTTTTT PDIG        TELAPSE      237.48 TCPU      185.29
 TOTAL ATOMIC CHARGES:
   1.1071907   1.1071907   1.1071907   1.1071907   1.2716018   1.2716018
   1.2716018   1.2716018   1.1982443   1.1982443   1.1982443   1.1982443
   6.1337024   6.1337024   6.1337024   6.1337024   5.7281482   5.7281482
   5.7281482   5.7281482   6.3559181   6.3559181   6.3559181   6.3559181
   5.7316371   5.7316371   5.7316371   5.7316371   6.0171086   6.0171086
   6.0171086   6.0171086   5.6427400   5.6427400   5.6427400   5.6427400
   7.2858979   7.2858979   7.2858979   7.2858979   7.0571970   7.0571970
   7.0571970   7.0571970   7.2327870   7.2327870   7.2327870   7.2327870
   7.0110054   7.0110054   7.0110054   7.0110054   6.9396619   6.9396619
   6.9396619   6.9396619  28.6625613  28.7392085  34.9367170  34.9367170
  34.9367170  34.9367170
 TTTTTTTTTTTTTTTTTTTTTTTTTTTTTT MOQGAD      TELAPSE      237.50 TCPU      185.32
 TTTTTTTTTTTTTTTTTTTTTTTTTTTTTT SHELLXN     TELAPSE      270.69 TCPU      216.09
 TTTTTTTTTTTTTTTTTTTTTTTTTTTTTT MONMO3      TELAPSE      276.99 TCPU      222.36
 NUMERICALLY INTEGRATED DENSITY    495.9998611658
 TTTTTTTTTTTTTTTTTTTTTTTTTTTTTT NUMDFT      TELAPSE      278.94 TCPU      224.30
 CYC   4 ETOT(AU) -1.586488265441E+04 DETOT -3.94E-01 tst  5.86E-03 PX  2.18E-01
 TTTTTTTTTTTTTTTTTTTTTTTTTTTTTT DIIS        TELAPSE      279.09 TCPU      224.45
 DIIS TEST: 0.17248E+01 AT SCF   CYCLE   4 - DIIS ACTIVE - HISTORY:     4 CYCLES
 TTTTTTTTTTTTTTTTTTTTTTTTTTTTTT FDIK        TELAPSE      287.14 TCPU      230.22
 INSULATING STATE
 TOP OF VALENCE BANDS -    BAND    248; K    1; EIG -2.2973994E-01 AU
 BOTTOM OF VIRTUAL BANDS - BAND    249; K    1; EIG -1.2489712E-01 AU
 DIRECT ENERGY BAND GAP:   2.8529 eV
 TTTTTTTTTTTTTTTTTTTTTTTTTTTTTT PDIG        TELAPSE      287.70 TCPU      230.79
 TOTAL ATOMIC CHARGES:
   1.1144284   1.1144284   1.1144284   1.1144284   1.2685037   1.2685037
   1.2685037   1.2685037   1.1916837   1.1916837   1.1916837   1.1916837
   6.0232827   6.0232827   6.0232827   6.0232827   5.7601132   5.7601132
   5.7601132   5.7601132   6.2197294   6.2197294   6.2197294   6.2197294
   5.9414163   5.9414163   5.9414163   5.9414163   6.0295798   6.0295798
   6.0295798   6.0295798   5.7311725   5.7311725   5.7311725   5.7311725
   7.1976939   7.1976939   7.1976939   7.1976939   7.0689584   7.0689584
   7.0689584   7.0689584   7.1585970   7.1585970   7.1585970   7.1585970
   7.0198154   7.0198154   7.0198154   7.0198154   6.9963928   6.9963928
   6.9963928   6.9963928  28.7937091  28.8165426  34.8760699  34.8760699
  34.8760699  34.8760699
 TTTTTTTTTTTTTTTTTTTTTTTTTTTTTT MOQGAD      TELAPSE      287.73 TCPU      230.81
 TTTTTTTTTTTTTTTTTTTTTTTTTTTTTT SHELLXN     TELAPSE      321.03 TCPU      261.62
 TTTTTTTTTTTTTTTTTTTTTTTTTTTTTT MONMO3      TELAPSE      326.73 TCPU      267.30
 NUMERICALLY INTEGRATED DENSITY    495.9998613542
 TTTTTTTTTTTTTTTTTTTTTTTTTTTTTT NUMDFT      TELAPSE      328.68 TCPU      269.24
 CYC   5 ETOT(AU) -1.586513453897E+04 DETOT -2.52E-01 tst  1.00E-03 PX  1.61E-01
 TTTTTTTTTTTTTTTTTTTTTTTTTTTTTT DIIS        TELAPSE      328.81 TCPU      269.36
 DIIS TEST: 0.64905E-01 AT SCF   CYCLE   5 - DIIS ACTIVE - HISTORY:     5 CYCLES
 TTTTTTTTTTTTTTTTTTTTTTTTTTTTTT FDIK        TELAPSE      336.49 TCPU      274.60
 INSULATING STATE
 TOP OF VALENCE BANDS -    BAND    248; K    1; EIG -2.2858106E-01 AU
 BOTTOM OF VIRTUAL BANDS - BAND    249; K    1; EIG -1.2450342E-01 AU
 DIRECT ENERGY BAND GAP:   2.8321 eV
 TTTTTTTTTTTTTTTTTTTTTTTTTTTTTT PDIG        TELAPSE      337.05 TCPU      275.16
 TOTAL ATOMIC CHARGES:
   1.1169782   1.1169782   1.1169782   1.1169782   1.2651320   1.2651320
   1.2651320   1.2651320   1.1904422   1.1904422   1.1904422   1.1904422
   6.0497231   6.0497231   6.0497231   6.0497231   5.7788442   5.7788442
   5.7788442   5.7788442   6.2382346   6.2382346   6.2382346   6.2382346
   5.8693913   5.8693913   5.8693913   5.8693913   6.0034256   6.0034256
   6.0034256   6.0034256   5.6497802   5.6497802   5.6497802   5.6497802
   7.1556264   7.1556264   7.1556264   7.1556264   7.0550986   7.0550986
   7.0550986   7.0550986   7.1728787   7.1728787   7.1728787   7.1728787
   7.0410256   7.0410256   7.0410256   7.0410256   7.0792430   7.0792430
   7.0792430   7.0792430  28.8429033  28.8728466  34.9052388  34.9052388
  34.9052388  34.9052388
 TTTTTTTTTTTTTTTTTTTTTTTTTTTTTT MOQGAD      TELAPSE      337.07 TCPU      275.18
 TTTTTTTTTTTTTTTTTTTTTTTTTTTTTT SHELLXN     TELAPSE      372.34 TCPU      305.95
 TTTTTTTTTTTTTTTTTTTTTTTTTTTTTT MONMO3      TELAPSE      378.16 TCPU      311.76
 NUMERICALLY INTEGRATED DENSITY    495.9998615405
 TTTTTTTTTTTTTTTTTTTTTTTTTTTTTT NUMDFT      TELAPSE      380.07 TCPU      313.65
 CYC   6 ETOT(AU) -1.586513634239E+04 DETOT -1.80E-03 tst  5.24E-05 PX  2.50E-02
 TTTTTTTTTTTTTTTTTTTTTTTTTTTTTT DIIS        TELAPSE      380.19 TCPU      313.77
 DIIS TEST: 0.54510E-01 AT SCF   CYCLE   6 - DIIS ACTIVE - HISTORY:     6 CYCLES
 TTTTTTTTTTTTTTTTTTTTTTTTTTTTTT FDIK        TELAPSE      389.94 TCPU      319.32
 INSULATING STATE
 TOP OF VALENCE BANDS -    BAND    248; K    1; EIG -2.2848228E-01 AU
 BOTTOM OF VIRTUAL BANDS - BAND    249; K    1; EIG -1.2500729E-01 AU
 DIRECT ENERGY BAND GAP:   2.8157 eV
 TTTTTTTTTTTTTTTTTTTTTTTTTTTTTT PDIG        TELAPSE      390.50 TCPU      319.87
 TOTAL ATOMIC CHARGES:
   1.1125756   1.1125756   1.1125756   1.1125756   1.2650179   1.2650179
   1.2650179   1.2650179   1.1875292   1.1875292   1.1875292   1.1875292
   6.0242271   6.0242271   6.0242271   6.0242271   5.7689924   5.7689924
   5.7689924   5.7689924   6.2319330   6.2319330   6.2319330   6.2319330
   5.9080599   5.9080599   5.9080599   5.9080599   6.0109606   6.0109606
   6.0109606   6.0109606   5.6960217   5.6960217   5.6960217   5.6960217
   7.1951192   7.1951192   7.1951192   7.1951192   7.0809276   7.0809276
   7.0809276   7.0809276   7.1471433   7.1471433   7.1471433   7.1471433
   7.0144173   7.0144173   7.0144173   7.0144173   7.0442988   7.0442988
   7.0442988   7.0442988  28.8361350  28.8649312  34.8875097  34.8875097
  34.8875097  34.8875097
 TTTTTTTTTTTTTTTTTTTTTTTTTTTTTT MOQGAD      TELAPSE      390.53 TCPU      319.90
 TTTTTTTTTTTTTTTTTTTTTTTTTTTTTT SHELLXN     TELAPSE      423.71 TCPU      350.72
 TTTTTTTTTTTTTTTTTTTTTTTTTTTTTT MONMO3      TELAPSE      429.48 TCPU      356.47
 NUMERICALLY INTEGRATED DENSITY    495.9998619714
 TTTTTTTTTTTTTTTTTTTTTTTTTTTTTT NUMDFT      TELAPSE      431.38 TCPU      358.36
 CYC   7 ETOT(AU) -1.586514286162E+04 DETOT -6.52E-03 tst  2.05E-05 PX  1.74E-02
 TTTTTTTTTTTTTTTTTTTTTTTTTTTTTT DIIS        TELAPSE      431.49 TCPU      358.47
 DIIS TEST: 0.92329E-02 AT SCF   CYCLE   7 - DIIS ACTIVE - HISTORY:     7 CYCLES
 TTTTTTTTTTTTTTTTTTTTTTTTTTTTTT FDIK        TELAPSE      438.13 TCPU      363.30
 INSULATING STATE
 TOP OF VALENCE BANDS -    BAND    248; K    1; EIG -2.2840779E-01 AU
 BOTTOM OF VIRTUAL BANDS - BAND    249; K    1; EIG -1.2490590E-01 AU
 DIRECT ENERGY BAND GAP:   2.8164 eV
 TTTTTTTTTTTTTTTTTTTTTTTTTTTTTT PDIG        TELAPSE      438.69 TCPU      363.86
 TOTAL ATOMIC CHARGES:
   1.1135991   1.1135991   1.1135991   1.1135991   1.2633262   1.2633262
   1.2633262   1.2633262   1.1884877   1.1884877   1.1884877   1.1884877
   6.0278812   6.0278812   6.0278812   6.0278812   5.7675850   5.7675850
   5.7675850   5.7675850   6.2288165   6.2288165   6.2288165   6.2288165
   5.9152784   5.9152784   5.9152784   5.9152784   6.0124832   6.0124832
   6.0124832   6.0124832   5.6954122   5.6954122   5.6954122   5.6954122
   7.1697590   7.1697590   7.1697590   7.1697590   7.0539696   7.0539696
   7.0539696   7.0539696   7.1749124   7.1749124   7.1749124   7.1749124
   7.0380747   7.0380747   7.0380747   7.0380747   7.0387771   7.0387771
   7.0387771   7.0387771  28.8346319  28.8636352  34.8870709  34.8870709
  34.8870709  34.8870709
 TTTTTTTTTTTTTTTTTTTTTTTTTTTTTT MOQGAD      TELAPSE      438.71 TCPU      363.88
 TTTTTTTTTTTTTTTTTTTTTTTTTTTTTT SHELLXN     TELAPSE      471.93 TCPU      394.70
 TTTTTTTTTTTTTTTTTTTTTTTTTTTTTT MONMO3      TELAPSE      477.64 TCPU      400.40
 NUMERICALLY INTEGRATED DENSITY    495.9998612300
 TTTTTTTTTTTTTTTTTTTTTTTTTTTTTT NUMDFT      TELAPSE      479.57 TCPU      402.32
 CYC   8 ETOT(AU) -1.586514316601E+04 DETOT -3.04E-04 tst  1.87E-05 PX  9.12E-03
 TTTTTTTTTTTTTTTTTTTTTTTTTTTTTT DIIS        TELAPSE      479.71 TCPU      402.45
 DIIS TEST: 0.73717E-02 AT SCF   CYCLE   8 - DIIS ACTIVE - HISTORY:     8 CYCLES
 TTTTTTTTTTTTTTTTTTTTTTTTTTTTTT FDIK        TELAPSE      487.07 TCPU      407.57
 INSULATING STATE
 TOP OF VALENCE BANDS -    BAND    248; K    1; EIG -2.2865654E-01 AU
 BOTTOM OF VIRTUAL BANDS - BAND    249; K    1; EIG -1.2489135E-01 AU
 DIRECT ENERGY BAND GAP:   2.8236 eV
 TTTTTTTTTTTTTTTTTTTTTTTTTTTTTT PDIG        TELAPSE      487.64 TCPU      408.13
 TOTAL ATOMIC CHARGES:
   1.1134184   1.1134184   1.1134184   1.1134184   1.2630211   1.2630211
   1.2630211   1.2630211   1.1887451   1.1887451   1.1887451   1.1887451
   6.0318412   6.0318412   6.0318412   6.0318412   5.7678787   5.7678787
   5.7678787   5.7678787   6.2261442   6.2261442   6.2261442   6.2261442
   5.9082491   5.9082491   5.9082491   5.9082491   6.0167942   6.0167942
   6.0167942   6.0167942   5.6878959   5.6878959   5.6878959   5.6878959
   7.1816688   7.1816688   7.1816688   7.1816688   7.0675805   7.0675805
   7.0675805   7.0675805   7.1607488   7.1607488   7.1607488   7.1607488
   7.0245905   7.0245905   7.0245905   7.0245905   7.0475514   7.0475514
   7.0475514   7.0475514  28.8379411  28.8638039  34.8884360  34.8884360
  34.8884360  34.8884360
 TTTTTTTTTTTTTTTTTTTTTTTTTTTTTT MOQGAD      TELAPSE      487.66 TCPU      408.15
 TTTTTTTTTTTTTTTTTTTTTTTTTTTTTT SHELLXN     TELAPSE      520.86 TCPU      438.95
 TTTTTTTTTTTTTTTTTTTTTTTTTTTTTT MONMO3      TELAPSE      526.75 TCPU      444.82
 NUMERICALLY INTEGRATED DENSITY    495.9998614769
 TTTTTTTTTTTTTTTTTTTTTTTTTTTTTT NUMDFT      TELAPSE      528.66 TCPU      446.72
 CYC   9 ETOT(AU) -1.586514416724E+04 DETOT -1.00E-03 tst  4.91E-06 PX  4.40E-03
 TTTTTTTTTTTTTTTTTTTTTTTTTTTTTT DIIS        TELAPSE      528.78 TCPU      446.84
 DIIS TEST: 0.70102E-03 AT SCF   CYCLE   9 - DIIS ACTIVE - HISTORY:     9 CYCLES
 TTTTTTTTTTTTTTTTTTTTTTTTTTTTTT FDIK        TELAPSE      535.42 TCPU      453.33
 INSULATING STATE
 TOP OF VALENCE BANDS -    BAND    248; K    1; EIG -2.2869254E-01 AU
 BOTTOM OF VIRTUAL BANDS - BAND    249; K    1; EIG -1.2490931E-01 AU
 DIRECT ENERGY BAND GAP:   2.8241 eV
 TTTTTTTTTTTTTTTTTTTTTTTTTTTTTT PDIG        TELAPSE      535.99 TCPU      453.89
 TOTAL ATOMIC CHARGES:
   1.1131853   1.1131853   1.1131853   1.1131853   1.2636013   1.2636013
   1.2636013   1.2636013   1.1882128   1.1882128   1.1882128   1.1882128
   6.0285162   6.0285162   6.0285162   6.0285162   5.7674763   5.7674763
   5.7674763   5.7674763   6.2306789   6.2306789   6.2306789   6.2306789
   5.9075986   5.9075986   5.9075986   5.9075986   6.0097579   6.0097579
   6.0097579   6.0097579   5.6922339   5.6922339   5.6922339   5.6922339
   7.1799448   7.1799448   7.1799448   7.1799448   7.0684444   7.0684444
   7.0684444   7.0684444   7.1607774   7.1607774   7.1607774   7.1607774
   7.0270580   7.0270580   7.0270580   7.0270580   7.0480148   7.0480148
   7.0480148   7.0480148  28.8365106  28.8644363  34.8892628  34.8892628
  34.8892628  34.8892628
 TTTTTTTTTTTTTTTTTTTTTTTTTTTTTT MOQGAD      TELAPSE      536.01 TCPU      453.91
 TTTTTTTTTTTTTTTTTTTTTTTTTTTTTT SHELLXN     TELAPSE      569.29 TCPU      484.73
 TTTTTTTTTTTTTTTTTTTTTTTTTTTTTT MONMO3      TELAPSE      575.04 TCPU      490.45
 NUMERICALLY INTEGRATED DENSITY    495.9998614634
 TTTTTTTTTTTTTTTTTTTTTTTTTTTTTT NUMDFT      TELAPSE      576.94 TCPU      492.34
 CYC  10 ETOT(AU) -1.586514423544E+04 DETOT -6.82E-05 tst  5.41E-07 PX  2.24E-03
 TTTTTTTTTTTTTTTTTTTTTTTTTTTTTT DIIS        TELAPSE      577.06 TCPU      492.47
 DIIS TEST: 0.19273E-03 AT SCF   CYCLE  10 - DIIS ACTIVE - HISTORY:    10 CYCLES
 TTTTTTTTTTTTTTTTTTTTTTTTTTTTTT FDIK        TELAPSE      582.42 TCPU      497.64
 INSULATING STATE
 TOP OF VALENCE BANDS -    BAND    248; K    1; EIG -2.2869571E-01 AU
 BOTTOM OF VIRTUAL BANDS - BAND    249; K    1; EIG -1.2497332E-01 AU
 DIRECT ENERGY BAND GAP:   2.8224 eV
 TTTTTTTTTTTTTTTTTTTTTTTTTTTTTT PDIG        TELAPSE      582.98 TCPU      498.20
 TOTAL ATOMIC CHARGES:
   1.1132760   1.1132760   1.1132760   1.1132760   1.2633720   1.2633720
   1.2633720   1.2633720   1.1881134   1.1881134   1.1881134   1.1881134
   6.0289113   6.0289113   6.0289113   6.0289113   5.7684311   5.7684311
   5.7684311   5.7684311   6.2284298   6.2284298   6.2284298   6.2284298
   5.9090407   5.9090407   5.9090407   5.9090407   6.0132353   6.0132353
   6.0132353   6.0132353   5.6901768   5.6901768   5.6901768   5.6901768
   7.1808541   7.1808541   7.1808541   7.1808541   7.0661558   7.0661558
   7.0661558   7.0661558   7.1623019   7.1623019   7.1623019   7.1623019
   7.0268406   7.0268406   7.0268406   7.0268406   7.0473785   7.0473785
   7.0473785   7.0473785  28.8355907  28.8631156  34.8888062  34.8888062
  34.8888062  34.8888062
 TTTTTTTTTTTTTTTTTTTTTTTTTTTTTT MOQGAD      TELAPSE      583.01 TCPU      498.22
 TTTTTTTTTTTTTTTTTTTTTTTTTTTTTT SHELLXN     TELAPSE      616.19 TCPU      528.76
 TTTTTTTTTTTTTTTTTTTTTTTTTTTTTT MONMO3      TELAPSE      622.13 TCPU      534.69
 NUMERICALLY INTEGRATED DENSITY    495.9998615651
 TTTTTTTTTTTTTTTTTTTTTTTTTTTTTT NUMDFT      TELAPSE      624.07 TCPU      536.62
 CYC  11 ETOT(AU) -1.586514425604E+04 DETOT -2.06E-05 tst  1.59E-07 PX  1.06E-03
 TTTTTTTTTTTTTTTTTTTTTTTTTTTTTT DIIS        TELAPSE      624.20 TCPU      536.74
 DIIS TEST: 0.33491E-04 AT SCF   CYCLE  11 - DIIS ACTIVE - HISTORY:    11 CYCLES
 TTTTTTTTTTTTTTTTTTTTTTTTTTTTTT FDIK        TELAPSE      629.54 TCPU      541.92
 INSULATING STATE
 TOP OF VALENCE BANDS -    BAND    248; K    1; EIG -2.2867901E-01 AU
 BOTTOM OF VIRTUAL BANDS - BAND    249; K    1; EIG -1.2491745E-01 AU
 DIRECT ENERGY BAND GAP:   2.8235 eV
 TTTTTTTTTTTTTTTTTTTTTTTTTTTTTT PDIG        TELAPSE      630.10 TCPU      542.48
 TOTAL ATOMIC CHARGES:
   1.1132379   1.1132379   1.1132379   1.1132379   1.2634080   1.2634080
   1.2634080   1.2634080   1.1882427   1.1882427   1.1882427   1.1882427
   6.0296937   6.0296937   6.0296937   6.0296937   5.7676857   5.7676857
   5.7676857   5.7676857   6.2291319   6.2291319   6.2291319   6.2291319
   5.9084923   5.9084923   5.9084923   5.9084923   6.0127969   6.0127969
   6.0127969   6.0127969   5.6905928   5.6905928   5.6905928   5.6905928
   7.1794312   7.1794312   7.1794312   7.1794312   7.0681616   7.0681616
   7.0681616   7.0681616   7.1612009   7.1612009   7.1612009   7.1612009
   7.0270035   7.0270035   7.0270035   7.0270035   7.0469662   7.0469662
   7.0469662   7.0469662  28.8362943  28.8638915  34.8889081  34.8889081
  34.8889081  34.8889081
 TTTTTTTTTTTTTTTTTTTTTTTTTTTTTT MOQGAD      TELAPSE      630.13 TCPU      542.50
 TTTTTTTTTTTTTTTTTTTTTTTTTTTTTT SHELLXN     TELAPSE      661.05 TCPU      573.01
 TTTTTTTTTTTTTTTTTTTTTTTTTTTTTT MONMO3      TELAPSE      668.19 TCPU      580.13
 NUMERICALLY INTEGRATED DENSITY    495.9998614814
 TTTTTTTTTTTTTTTTTTTTTTTTTTTTTT NUMDFT      TELAPSE      670.14 TCPU      582.07
 CYC  12 ETOT(AU) -1.586514425848E+04 DETOT -2.44E-06 tst  4.38E-08 PX  5.09E-04
 TTTTTTTTTTTTTTTTTTTTTTTTTTTTTT DIIS        TELAPSE      670.28 TCPU      582.21
 DIIS TEST: 0.17306E-04 AT SCF   CYCLE  12 - DIIS ACTIVE - HISTORY:    12 CYCLES
 TTTTTTTTTTTTTTTTTTTTTTTTTTTTTT FDIK        TELAPSE      675.64 TCPU      587.40
 INSULATING STATE
 TOP OF VALENCE BANDS -    BAND    248; K    1; EIG -2.2867283E-01 AU
 BOTTOM OF VIRTUAL BANDS - BAND    249; K    1; EIG -1.2493211E-01 AU
 DIRECT ENERGY BAND GAP:   2.8229 eV
 TTTTTTTTTTTTTTTTTTTTTTTTTTTTTT PDIG        TELAPSE      676.20 TCPU      587.96
 TOTAL ATOMIC CHARGES:
   1.1132960   1.1132960   1.1132960   1.1132960   1.2634420   1.2634420
   1.2634420   1.2634420   1.1882388   1.1882388   1.1882388   1.1882388
   6.0293225   6.0293225   6.0293225   6.0293225   5.7677877   5.7677877
   5.7677877   5.7677877   6.2289579   6.2289579   6.2289579   6.2289579
   5.9084494   5.9084494   5.9084494   5.9084494   6.0123689   6.0123689
   6.0123689   6.0123689   5.6907527   5.6907527   5.6907527   5.6907527
   7.1807130   7.1807130   7.1807130   7.1807130   7.0668470   7.0668470
   7.0668470   7.0668470   7.1619044   7.1619044   7.1619044   7.1619044
   7.0266496   7.0266496   7.0266496   7.0266496   7.0474020   7.0474020
   7.0474020   7.0474020  28.8361783  28.8637821  34.8888780  34.8888780
  34.8888780  34.8888780
 TTTTTTTTTTTTTTTTTTTTTTTTTTTTTT MOQGAD      TELAPSE      676.23 TCPU      587.99
 TTTTTTTTTTTTTTTTTTTTTTTTTTTTTT SHELLXN     TELAPSE      709.18 TCPU      618.56
 TTTTTTTTTTTTTTTTTTTTTTTTTTTTTT MONMO3      TELAPSE      715.19 TCPU      624.55
 NUMERICALLY INTEGRATED DENSITY    495.9998615064
 TTTTTTTTTTTTTTTTTTTTTTTTTTTTTT NUMDFT      TELAPSE      717.13 TCPU      626.48
 CYC  13 ETOT(AU) -1.586514426079E+04 DETOT -2.31E-06 tst  2.42E-08 PX  3.48E-04
 TTTTTTTTTTTTTTTTTTTTTTTTTTTTTT DIIS        TELAPSE      717.30 TCPU      626.65
 DIIS TEST: 0.33103E-05 AT SCF   CYCLE  13 - DIIS ACTIVE - HISTORY:    13 CYCLES
 TTTTTTTTTTTTTTTTTTTTTTTTTTTTTT FDIK        TELAPSE      724.93 TCPU      631.92
 INSULATING STATE
 TOP OF VALENCE BANDS -    BAND    248; K    1; EIG -2.2867685E-01 AU
 BOTTOM OF VIRTUAL BANDS - BAND    249; K    1; EIG -1.2493386E-01 AU
 DIRECT ENERGY BAND GAP:   2.8230 eV
 TTTTTTTTTTTTTTTTTTTTTTTTTTTTTT PDIG        TELAPSE      725.50 TCPU      632.48
 TOTAL ATOMIC CHARGES:
   1.1132687   1.1132687   1.1132687   1.1132687   1.2634071   1.2634071
   1.2634071   1.2634071   1.1882117   1.1882117   1.1882117   1.1882117
   6.0291628   6.0291628   6.0291628   6.0291628   5.7680932   5.7680932
   5.7680932   5.7680932   6.2289931   6.2289931   6.2289931   6.2289931
[...]
 DIIS TEST: 0.12264E-02 AT CPHF  CYCLE  21 - DIIS ACTIVE - HISTORY:    21 CYCLES
 CYCLE  21   ALPHA  604.779444  EPSILON    2.526741  DELTA   -4.0908E-03
 TTTTTTTTTTTTTTTTTTTTTTTTTTTTTT MOQGAD      TELAPSE   155455.02 TCPU   152581.93
 TTTTTTTTTTTTTTTTTTTTTTTTTTTTTT CP_MONMON   TELAPSE   155460.18 TCPU   152587.06
 DIIS TEST: 0.54524E-03 AT CPHF  CYCLE  22 - DIIS ACTIVE - HISTORY:    22 CYCLES
 CYCLE  22   ALPHA  604.781082  EPSILON    2.526745  DELTA    1.6386E-03
 TTTTTTTTTTTTTTTTTTTTTTTTTTTTTT MOQGAD      TELAPSE   155725.93 TCPU   152850.67
 TTTTTTTTTTTTTTTTTTTTTTTTTTTTTT CP_MONMON   TELAPSE   155731.09 TCPU   152855.80
 DIIS TEST: 0.64892E-04 AT CPHF  CYCLE  23 - DIIS ACTIVE - HISTORY:    23 CYCLES
 CYCLE  23   ALPHA  604.782047  EPSILON    2.526748  DELTA    9.6512E-04
 TTTTTTTTTTTTTTTTTTTTTTTTTTTTTT CP_SC       TELAPSE   155742.96 TCPU   152866.69

 *******************************************************************************

 POLARIZABILITY (ALPHA), DIELECTRIC (EPSILON) AND FIRST-ORDER ELECTRIC
 SUSCEPTIBILITY (CHI(1)) TENSORS (INDEPENDENT COMPONENTS)

  FR.(eV) COMP.   ALPHA(Re,Im)           EPSILON(Re,Im)                CHI(1)
  1.435   XX    1124.6428       0.0000       3.8391       0.0000       2.8391
  1.435   ZZ     604.7820       0.0000       2.5267       0.0000       1.5267

 DIELECTRIC TENSOR

 TENSOR IN PRINCIPAL AXES SYSTEM
 AA  3.839115E+00 BB  3.839115E+00 CC  2.526748E+00

 REFRACTIVE INDICES 
 AA  1.589575E+00 BB  1.959366E+00 CC  1.959366E+00

 OPTICALLY ANISOTROPIC - UNIAXIAL CRYSTAL

 BIREFRINGENCE =  0.3698 (NEGATIVE) - OBLATE OPTICAL ELLIPSOID

 EPSILON=N**2=1+CHI(1)=1+ALPHA*4*PI/V,   4*PI/V=   0.00252 BOHR**(-3)
 ALPHA IN BOHR**3; EPSILON AND CHI(1) ARE DIMENSIONLESS.
 *******************************************************************************

 DYNAMIC FIELD: RUN 10/ 10 - RADIATION WAVELENGTH: 1064.0000 NM

 *******************************************************************************

 ELECTRIC FIELD APPLIED ALONG CARTESIAN DIRECTION X

 *******************************************************************************
 THE NUMBER OF SYMMETRY OPERATORS HAS BEEN REDUCED FROM  4 TO  1

 NEW GRID IN RECIPROCAL SPACE
 *******************************************************************************
 POINTS IN THE IBZ                  14 SHRINKING FACTORS               3  3  3
 *******************************************************************************
 *** K POINTS COORDINATES (OBLIQUE COORDINATES IN UNITS OF SHRINK FAC. )
   1-R(  0  0  0)   2-C(  1  0  0)   3-C(  0  1  2)   4-C(  2  0  1)
   5-C(  0  2  0)   6-C(  1  1  0)   7-C(  1  1  1)   8-C(  1  0  1)
   9-C(  0  1  1)  10-C(  2  1  0)  11-C(  0  0  2)  12-C(  2  1  1)
  13-C(  2  1  2)  14-C(  2  2  1)

 GCALCO - MAX INDICES DIRECT LATTICE VECTOR    14    14    16
 NO.OF VECTORS CREATED 6999 STARS  485 RMAX   203.49894 BOHR
 TTTTTTTTTTTTTTTTTTTTTTTTTTTTTT gordsh1     TELAPSE   155742.97 TCPU   152866.70

 MATRIX SIZE: P(G) 1968888, F(G)  985260, P(G) IRR  987058, F(G) IRR  987058
 MAX G-VECTOR INDEX FOR 1- AND 2-ELECTRON INTEGRALS  59

 TTTTTTTTTTTTTTTTTTTTTTTTTTTTTT INPUT       TELAPSE   155743.06 TCPU   152866.79
 TTTTTTTTTTTTTTTTTTTTTTTTTTTTTT SYMM        TELAPSE   155743.06 TCPU   152866.79

 ***** NEW REFERENCE GEOMETRY *****
 TTTTTTTTTTTTTTTTTTTTTTTTTTTTTT INT_SCREEN  TELAPSE   155743.07 TCPU   152866.80
 INFORMATION **** EXCBUF **** EXCH. BIPO BUFFER: WORDS USED =           0

 DFT PARAMETERS

     ATOM       ELECTRONS   NET CHARGE   R(ANGSTROM)
   1   1  H       1.0000      0.0000     1.11000000
  13   6  C       6.0000      0.0000     0.77000000
  37   7  N       7.0000      0.0000     0.74000000
  57  30  ZN     30.0000      0.0000     1.37000000
  59  35  BR     35.0000      0.0000     1.14000000

 SIZE OF GRID=    1804188
 TTTTTTTTTTTTTTTTTTTTTTTTTTTTTT MAKE_GRID2  TELAPSE   155744.36 TCPU   152868.08
 BECKE WEIGHT FUNCTION
 RADSAFE =     2.00
 TOLERANCES - DENSITY:10**- 6; POTENTIAL:10**- 9; GRID WGT:10**-14

 RADIAL INTEGRATION  - INTERVALS (POINTS,UPPER LIMIT):            1( 75,  4.0*R)

 ANGULAR INTEGRATION - INTERVALS (ACCURACY LEVEL [N. POINTS] UPPER LIMIT):
  1(  4[  86]   0.2)  2(  8[ 194]   0.5)  3( 12[ 350]   0.9)  4( 16[ 974]   3.5)
  5( 12[ 350]9999.0)
 TTTTTTTTTTTTTTTTTTTTTTTTTTTTTT INT_CALC    TELAPSE   155744.42 TCPU   152868.14
 CYCLE   0   ALPHA 1483.230908  EPSILON    4.744356  DELTA    1.4832E+03
 TTTTTTTTTTTTTTTTTTTTTTTTTTTTTT MOQGAD      TELAPSE   156254.59 TCPU   153375.73
 TTTTTTTTTTTTTTTTTTTTTTTTTTTTTT CP_MONMON   TELAPSE   156264.05 TCPU   153385.14
 DIIS TEST: 0.32757E+03 AT CPHF  CYCLE   1 - MIX    0 %
 CYCLE   1   ALPHA  312.313662  EPSILON    1.788423  DELTA   -1.1709E+03
 TTTTTTTTTTTTTTTTTTTTTTTTTTTTTT MOQGAD      TELAPSE   156774.41 TCPU   153891.47
 TTTTTTTTTTTTTTTTTTTTTTTTTTTTTT CP_MONMON   TELAPSE   156783.86 TCPU   153900.87
 DIIS TEST: 0.27518E+04 AT CPHF  CYCLE   2 - DIIS ACTIVE - HISTORY:     2 CYCLES
 CYCLE   2   ALPHA 1028.982967  EPSILON    3.597626  DELTA    7.1667E+02
 TTTTTTTTTTTTTTTTTTTTTTTTTTTTTT MOQGAD      TELAPSE   157294.34 TCPU   154407.80
 TTTTTTTTTTTTTTTTTTTTTTTTTTTTTT CP_MONMON   TELAPSE   157303.79 TCPU   154417.21
 DIIS TEST: 0.61684E+02 AT CPHF  CYCLE   3 - DIIS ACTIVE - HISTORY:     3 CYCLES
 CYCLE   3   ALPHA 1083.586572  EPSILON    3.735470  DELTA    5.4604E+01
 TTTTTTTTTTTTTTTTTTTTTTTTTTTTTT MOQGAD      TELAPSE   157813.03 TCPU   154922.69
 TTTTTTTTTTTTTTTTTTTTTTTTTTTTTT CP_MONMON   TELAPSE   157822.49 TCPU   154932.10
 DIIS TEST: 0.60199E+01 AT CPHF  CYCLE   4 - DIIS ACTIVE - HISTORY:     4 CYCLES
 CYCLE   4   ALPHA 1097.559613  EPSILON    3.770745  DELTA    1.3973E+01
 TTTTTTTTTTTTTTTTTTTTTTTTTTTTTT MOQGAD      TELAPSE   158332.04 TCPU   155438.06
 TTTTTTTTTTTTTTTTTTTTTTTTTTTTTT CP_MONMON   TELAPSE   158341.49 TCPU   155447.47
 DIIS TEST: 0.12681E+01 AT CPHF  CYCLE   5 - DIIS ACTIVE - HISTORY:     5 CYCLES
 CYCLE   5   ALPHA 1101.818139  EPSILON    3.781495  DELTA    4.2585E+00
 TTTTTTTTTTTTTTTTTTTTTTTTTTTTTT MOQGAD      TELAPSE   158851.52 TCPU   155953.95
 TTTTTTTTTTTTTTTTTTTTTTTTTTTTTT CP_MONMON   TELAPSE   158860.97 TCPU   155963.35
 DIIS TEST: 0.11258E+00 AT CPHF  CYCLE   6 - DIIS ACTIVE - HISTORY:     6 CYCLES
 CYCLE   6   ALPHA 1103.208881  EPSILON    3.785006  DELTA    1.3907E+00
 TTTTTTTTTTTTTTTTTTTTTTTTTTTTTT MOQGAD      TELAPSE   159376.38 TCPU   156470.27
 TTTTTTTTTTTTTTTTTTTTTTTTTTTTTT CP_MONMON   TELAPSE   159385.84 TCPU   156479.69
 DIIS TEST: 0.15375E-01 AT CPHF  CYCLE   7 - DIIS ACTIVE - HISTORY:     7 CYCLES
 CYCLE   7   ALPHA 1103.456633  EPSILON    3.785631  DELTA    2.4775E-01
 TTTTTTTTTTTTTTTTTTTTTTTTTTTTTT MOQGAD      TELAPSE   159895.28 TCPU   156985.57
 TTTTTTTTTTTTTTTTTTTTTTTTTTTTTT CP_MONMON   TELAPSE   159904.74 TCPU   156994.98
 DIIS TEST: 0.34010E-02 AT CPHF  CYCLE   8 - DIIS ACTIVE - HISTORY:     8 CYCLES
 CYCLE   8   ALPHA 1103.509832  EPSILON    3.785766  DELTA    5.3199E-02
 TTTTTTTTTTTTTTTTTTTTTTTTTTTTTT MOQGAD      TELAPSE   160414.94 TCPU   157501.66
 TTTTTTTTTTTTTTTTTTTTTTTTTTTTTT CP_MONMON   TELAPSE   160424.42 TCPU   157511.09
 DIIS TEST: 0.73802E-02 AT CPHF  CYCLE   9 - DIIS ACTIVE - HISTORY:     9 CYCLES
 CYCLE   9   ALPHA 1103.536399  EPSILON    3.785833  DELTA    2.6566E-02
 TTTTTTTTTTTTTTTTTTTTTTTTTTTTTT MOQGAD      TELAPSE   160934.62 TCPU   158017.70
 TTTTTTTTTTTTTTTTTTTTTTTTTTTTTT CP_MONMON   TELAPSE   160944.34 TCPU   158027.11
 DIIS TEST: 0.47048E-03 AT CPHF  CYCLE  10 - DIIS ACTIVE - HISTORY:    10 CYCLES
 CYCLE  10   ALPHA 1103.503338  EPSILON    3.785749  DELTA   -3.3060E-02
 TTTTTTTTTTTTTTTTTTTTTTTTTTTTTT MOQGAD      TELAPSE   161454.67 TCPU   158533.40
 TTTTTTTTTTTTTTTTTTTTTTTTTTTTTT CP_MONMON   TELAPSE   161464.12 TCPU   158542.81
 DIIS TEST: 0.46523E-04 AT CPHF  CYCLE  11 - DIIS ACTIVE - HISTORY:    11 CYCLES
 CYCLE  11   ALPHA 1103.478482  EPSILON    3.785687  DELTA   -2.4856E-02
 TTTTTTTTTTTTTTTTTTTTTTTTTTTTTT MOQGAD      TELAPSE   161974.30 TCPU   159048.82
 TTTTTTTTTTTTTTTTTTTTTTTTTTTTTT CP_MONMON   TELAPSE   161983.75 TCPU   159058.22
 DIIS TEST: 0.74880E-05 AT CPHF  CYCLE  12 - DIIS ACTIVE - HISTORY:    12 CYCLES
 CYCLE  12   ALPHA 1103.472811  EPSILON    3.785672  DELTA   -5.6711E-03
 TTTTTTTTTTTTTTTTTTTTTTTTTTTTTT MOQGAD      TELAPSE   162496.03 TCPU   159563.86
 TTTTTTTTTTTTTTTTTTTTTTTTTTTTTT CP_MONMON   TELAPSE   162505.48 TCPU   159573.25
 DIIS TEST: 0.11880E-05 AT CPHF  CYCLE  13 - DIIS ACTIVE - HISTORY:    13 CYCLES
 CYCLE  13   ALPHA 1103.470806  EPSILON    3.785667  DELTA   -2.0047E-03
 TTTTTTTTTTTTTTTTTTTTTTTTTTTTTT MOQGAD      TELAPSE   163017.12 TCPU   160079.60
 TTTTTTTTTTTTTTTTTTTTTTTTTTTTTT CP_MONMON   TELAPSE   163026.57 TCPU   160088.99
 DIIS TEST: 0.92856E-07 AT CPHF  CYCLE  14 - DIIS ACTIVE - HISTORY:    14 CYCLES
 CYCLE  14   ALPHA 1103.469929  EPSILON    3.785665  DELTA   -8.7718E-04
 TTTTTTTTTTTTTTTTTTTTTTTTTTTTTT CP_SC       TELAPSE   163041.64 TCPU   160101.49

 *******************************************************************************

 ELECTRIC FIELD APPLIED ALONG CARTESIAN DIRECTION Z

 *******************************************************************************
 THE NUMBER OF SYMMETRY OPERATORS HAS BEEN REDUCED FROM  4 TO  2

 NEW GRID IN RECIPROCAL SPACE
 *******************************************************************************
 POINTS IN THE IBZ                  10 SHRINKING FACTORS               3  3  3
 *******************************************************************************
 *** K POINTS COORDINATES (OBLIQUE COORDINATES IN UNITS OF SHRINK FAC. )
   1-R(  0  0  0)   2-C(  1  0  0)   3-C(  2  0  1)   4-C(  1  1  0)
   5-C(  1  0  1)   6-C(  2  1  0)   7-C(  0  0  2)   8-C(  2  1  1)
   9-C(  2  1  2)  10-C(  2  2  1)

 GCALCO - MAX INDICES DIRECT LATTICE VECTOR    14    14    16
 NO.OF VECTORS CREATED 6999 STARS  485 RMAX   203.49894 BOHR
 TTTTTTTTTTTTTTTTTTTTTTTTTTTTTT gordsh1     TELAPSE   163041.65 TCPU   160101.49

 MATRIX SIZE: P(G) 1968888, F(G)  985260, P(G) IRR  496028, F(G) IRR  496028
 MAX G-VECTOR INDEX FOR 1- AND 2-ELECTRON INTEGRALS  59

 TTTTTTTTTTTTTTTTTTTTTTTTTTTTTT INPUT       TELAPSE   163041.68 TCPU   160101.52
 TTTTTTTTTTTTTTTTTTTTTTTTTTTTTT SYMM        TELAPSE   163041.68 TCPU   160101.52

 ***** NEW REFERENCE GEOMETRY *****
 TTTTTTTTTTTTTTTTTTTTTTTTTTTTTT INT_SCREEN  TELAPSE   163041.68 TCPU   160101.53
 INFORMATION **** EXCBUF **** EXCH. BIPO BUFFER: WORDS USED =           0

 DFT PARAMETERS

     ATOM       ELECTRONS   NET CHARGE   R(ANGSTROM)
   1   1  H       1.0000      0.0000     1.11000000
  13   6  C       6.0000      0.0000     0.77000000
  37   7  N       7.0000      0.0000     0.74000000
  57  30  ZN     30.0000      0.0000     1.37000000
  59  35  BR     35.0000      0.0000     1.14000000

 SIZE OF GRID=     902206
 TTTTTTTTTTTTTTTTTTTTTTTTTTTTTT MAKE_GRID2  TELAPSE   163042.56 TCPU   160102.40
 BECKE WEIGHT FUNCTION
 RADSAFE =     2.00
 TOLERANCES - DENSITY:10**- 6; POTENTIAL:10**- 9; GRID WGT:10**-14

 RADIAL INTEGRATION  - INTERVALS (POINTS,UPPER LIMIT):            1( 75,  4.0*R)

 ANGULAR INTEGRATION - INTERVALS (ACCURACY LEVEL [N. POINTS] UPPER LIMIT):
  1(  4[  86]   0.2)  2(  8[ 194]   0.5)  3( 12[ 350]   0.9)  4( 16[ 974]   3.5)
  5( 12[ 350]9999.0)
 TTTTTTTTTTTTTTTTTTTTTTTTTTTTTT INT_CALC    TELAPSE   163042.61 TCPU   160102.44
 CYCLE   0   ALPHA  733.369783  EPSILON    2.851362  DELTA    7.3337E+02
 TTTTTTTTTTTTTTTTTTTTTTTTTTTTTT MOQGAD      TELAPSE   163291.63 TCPU   160350.07
 TTTTTTTTTTTTTTTTTTTTTTTTTTTTTT CP_MONMON   TELAPSE   163296.80 TCPU   160355.22
 DIIS TEST: 0.75188E+02 AT CPHF  CYCLE   1 - MIX    0 %
 CYCLE   1   ALPHA  425.342291  EPSILON    2.073759  DELTA   -3.0803E+02
 TTTTTTTTTTTTTTTTTTTTTTTTTTTTTT MOQGAD      TELAPSE   163548.43 TCPU   160605.07
 TTTTTTTTTTTTTTTTTTTTTTTTTTTTTT CP_MONMON   TELAPSE   163553.60 TCPU   160610.22
 DIIS TEST: 0.49072E+03 AT CPHF  CYCLE   2 - DIIS ACTIVE - HISTORY:     2 CYCLES
 CYCLE   2   ALPHA  560.196361  EPSILON    2.414193  DELTA    1.3485E+02
 TTTTTTTTTTTTTTTTTTTTTTTTTTTTTT MOQGAD      TELAPSE   163804.92 TCPU   160859.72
 TTTTTTTTTTTTTTTTTTTTTTTTTTTTTT CP_MONMON   TELAPSE   163810.09 TCPU   160864.87
 DIIS TEST: 0.62062E+02 AT CPHF  CYCLE   3 - DIIS ACTIVE - HISTORY:     3 CYCLES
 CYCLE   3   ALPHA  580.453111  EPSILON    2.465330  DELTA    2.0257E+01
 TTTTTTTTTTTTTTTTTTTTTTTTTTTTTT MOQGAD      TELAPSE   164060.97 TCPU   161113.88
 TTTTTTTTTTTTTTTTTTTTTTTTTTTTTT CP_MONMON   TELAPSE   164066.14 TCPU   161119.02
 DIIS TEST: 0.20037E+04 AT CPHF  CYCLE   4 - DIIS ACTIVE - HISTORY:     4 CYCLES
 CYCLE   4   ALPHA  594.340867  EPSILON    2.500389  DELTA    1.3888E+01
 TTTTTTTTTTTTTTTTTTTTTTTTTTTTTT MOQGAD      TELAPSE   164316.95 TCPU   161368.06
 TTTTTTTTTTTTTTTTTTTTTTTTTTTTTT CP_MONMON   TELAPSE   164322.12 TCPU   161373.21
 DIIS TEST: 0.17168E+02 AT CPHF  CYCLE   5 - DIIS ACTIVE - HISTORY:     5 CYCLES
 CYCLE   5   ALPHA  595.480826  EPSILON    2.503267  DELTA    1.1400E+00
 TTTTTTTTTTTTTTTTTTTTTTTTTTTTTT MOQGAD      TELAPSE   164572.97 TCPU   161622.23
 TTTTTTTTTTTTTTTTTTTTTTTTTTTTTT CP_MONMON   TELAPSE   164578.15 TCPU   161627.38
 DIIS TEST: 0.14899E+02 AT CPHF  CYCLE   6 - DIIS ACTIVE - HISTORY:     6 CYCLES
 CYCLE   6   ALPHA  595.536634  EPSILON    2.503408  DELTA    5.5808E-02
 TTTTTTTTTTTTTTTTTTTTTTTTTTTTTT MOQGAD      TELAPSE   164829.07 TCPU   161876.52
 TTTTTTTTTTTTTTTTTTTTTTTTTTTTTT CP_MONMON   TELAPSE   164834.24 TCPU   161881.67
 DIIS TEST: 0.13367E+02 AT CPHF  CYCLE   7 - DIIS ACTIVE - HISTORY:     7 CYCLES
 CYCLE   7   ALPHA  595.571695  EPSILON    2.503497  DELTA    3.5062E-02
 TTTTTTTTTTTTTTTTTTTTTTTTTTTTTT MOQGAD      TELAPSE   165085.07 TCPU   162130.74
 TTTTTTTTTTTTTTTTTTTTTTTTTTTTTT CP_MONMON   TELAPSE   165090.24 TCPU   162135.89
 DIIS TEST: 0.12189E+02 AT CPHF  CYCLE   8 - DIIS ACTIVE - HISTORY:     8 CYCLES
 CYCLE   8   ALPHA  595.574703  EPSILON    2.503504  DELTA    3.0073E-03
 TTTTTTTTTTTTTTTTTTTTTTTTTTTTTT MOQGAD      TELAPSE   165340.30 TCPU   162384.18
 TTTTTTTTTTTTTTTTTTTTTTTTTTTTTT CP_MONMON   TELAPSE   165345.47 TCPU   162389.33
 DIIS TEST: 0.81841E+01 AT CPHF  CYCLE   9 - DIIS ACTIVE - HISTORY:     9 CYCLES
 CYCLE   9   ALPHA  595.794598  EPSILON    2.504059  DELTA    2.1990E-01
 TTTTTTTTTTTTTTTTTTTTTTTTTTTTTT MOQGAD      TELAPSE   165595.81 TCPU   162637.84
 TTTTTTTTTTTTTTTTTTTTTTTTTTTTTT CP_MONMON   TELAPSE   165600.99 TCPU   162642.99
 DIIS TEST: 0.91147E+00 AT CPHF  CYCLE  10 - DIIS ACTIVE - HISTORY:    10 CYCLES
 CYCLE  10   ALPHA  596.108947  EPSILON    2.504853  DELTA    3.1435E-01
 TTTTTTTTTTTTTTTTTTTTTTTTTTTTTT MOQGAD      TELAPSE   165851.28 TCPU   162891.54
 TTTTTTTTTTTTTTTTTTTTTTTTTTTTTT CP_MONMON   TELAPSE   165856.45 TCPU   162896.69
 DIIS TEST: 0.24888E+01 AT CPHF  CYCLE  11 - DIIS ACTIVE - HISTORY:    11 CYCLES
 CYCLE  11   ALPHA  596.223733  EPSILON    2.505143  DELTA    1.1479E-01
 TTTTTTTTTTTTTTTTTTTTTTTTTTTTTT MOQGAD      TELAPSE   166106.69 TCPU   163145.14
 TTTTTTTTTTTTTTTTTTTTTTTTTTTTTT CP_MONMON   TELAPSE   166111.86 TCPU   163150.29
 DIIS TEST: 0.29313E+01 AT CPHF  CYCLE  12 - DIIS ACTIVE - HISTORY:    12 CYCLES
 CYCLE  12   ALPHA  596.325230  EPSILON    2.505399  DELTA    1.0150E-01
 TTTTTTTTTTTTTTTTTTTTTTTTTTTTTT MOQGAD      TELAPSE   166362.98 TCPU   163399.67
 TTTTTTTTTTTTTTTTTTTTTTTTTTTTTT CP_MONMON   TELAPSE   166368.16 TCPU   163404.82
 DIIS TEST: 0.97616E+00 AT CPHF  CYCLE  13 - DIIS ACTIVE - HISTORY:    13 CYCLES
 CYCLE  13   ALPHA  596.320271  EPSILON    2.505386  DELTA   -4.9584E-03
 TTTTTTTTTTTTTTTTTTTTTTTTTTTTTT MOQGAD      TELAPSE   166619.44 TCPU   163654.31
 TTTTTTTTTTTTTTTTTTTTTTTTTTTTTT CP_MONMON   TELAPSE   166624.62 TCPU   163659.46
 DIIS TEST: 0.98070E+00 AT CPHF  CYCLE  14 - DIIS ACTIVE - HISTORY:    14 CYCLES
 CYCLE  14   ALPHA  596.310319  EPSILON    2.505361  DELTA   -9.9526E-03
 TTTTTTTTTTTTTTTTTTTTTTTTTTTTTT MOQGAD      TELAPSE   166874.88 TCPU   163908.00
 TTTTTTTTTTTTTTTTTTTTTTTTTTTTTT CP_MONMON   TELAPSE   166880.05 TCPU   163913.14
 DIIS TEST: 0.10119E+01 AT CPHF  CYCLE  15 - DIIS ACTIVE - HISTORY:    15 CYCLES
 CYCLE  15   ALPHA  596.272993  EPSILON    2.505267  DELTA   -3.7326E-02
 TTTTTTTTTTTTTTTTTTTTTTTTTTTTTT MOQGAD      TELAPSE   167130.24 TCPU   164161.62
 TTTTTTTTTTTTTTTTTTTTTTTTTTTTTT CP_MONMON   TELAPSE   167135.41 TCPU   164166.78
 DIIS TEST: 0.48700E+00 AT CPHF  CYCLE  16 - DIIS ACTIVE - HISTORY:    16 CYCLES
 CYCLE  16   ALPHA  596.268863  EPSILON    2.505257  DELTA   -4.1297E-03
 TTTTTTTTTTTTTTTTTTTTTTTTTTTTTT MOQGAD      TELAPSE   167385.72 TCPU   164415.34
 TTTTTTTTTTTTTTTTTTTTTTTTTTTTTT CP_MONMON   TELAPSE   167390.90 TCPU   164420.49
 DIIS TEST: 0.24086E+00 AT CPHF  CYCLE  17 - DIIS ACTIVE - HISTORY:    17 CYCLES
 CYCLE  17   ALPHA  596.280818  EPSILON    2.505287  DELTA    1.1954E-02
 TTTTTTTTTTTTTTTTTTTTTTTTTTTTTT MOQGAD      TELAPSE   167641.10 TCPU   164668.99
 TTTTTTTTTTTTTTTTTTTTTTTTTTTTTT CP_MONMON   TELAPSE   167646.31 TCPU   164674.17
 DIIS TEST: 0.85635E-01 AT CPHF  CYCLE  18 - DIIS ACTIVE - HISTORY:    18 CYCLES
 CYCLE  18   ALPHA  596.293293  EPSILON    2.505318  DELTA    1.2475E-02
 TTTTTTTTTTTTTTTTTTTTTTTTTTTTTT MOQGAD      TELAPSE   167896.59 TCPU   164922.70
 TTTTTTTTTTTTTTTTTTTTTTTTTTTTTT CP_MONMON   TELAPSE   167901.76 TCPU   164927.85
 DIIS TEST: 0.13302E-01 AT CPHF  CYCLE  19 - DIIS ACTIVE - HISTORY:    19 CYCLES
 CYCLE  19   ALPHA  596.290026  EPSILON    2.505310  DELTA   -3.2667E-03
 TTTTTTTTTTTTTTTTTTTTTTTTTTTTTT MOQGAD      TELAPSE   168152.07 TCPU   165176.36
 TTTTTTTTTTTTTTTTTTTTTTTTTTTTTT CP_MONMON   TELAPSE   168157.25 TCPU   165181.51
 DIIS TEST: 0.28325E-02 AT CPHF  CYCLE  20 - DIIS ACTIVE - HISTORY:    20 CYCLES
 CYCLE  20   ALPHA  596.276871  EPSILON    2.505277  DELTA   -1.3156E-02
 TTTTTTTTTTTTTTTTTTTTTTTTTTTTTT MOQGAD      TELAPSE   168407.43 TCPU   165429.90
 TTTTTTTTTTTTTTTTTTTTTTTTTTTTTT CP_MONMON   TELAPSE   168412.60 TCPU   165435.05
 DIIS TEST: 0.84854E-03 AT CPHF  CYCLE  21 - DIIS ACTIVE - HISTORY:    21 CYCLES
 CYCLE  21   ALPHA  596.273387  EPSILON    2.505268  DELTA   -3.4838E-03
 TTTTTTTTTTTTTTTTTTTTTTTTTTTTTT MOQGAD      TELAPSE   168662.91 TCPU   165683.57
 TTTTTTTTTTTTTTTTTTTTTTTTTTTTTT CP_MONMON   TELAPSE   168668.09 TCPU   165688.72
 DIIS TEST: 0.33700E-03 AT CPHF  CYCLE  22 - DIIS ACTIVE - HISTORY:    22 CYCLES
 CYCLE  22   ALPHA  596.274378  EPSILON    2.505270  DELTA    9.9129E-04
 TTTTTTTTTTTTTTTTTTTTTTTTTTTTTT CP_SC       TELAPSE   168679.92 TCPU   165699.68

 *******************************************************************************

 POLARIZABILITY (ALPHA), DIELECTRIC (EPSILON) AND FIRST-ORDER ELECTRIC
 SUSCEPTIBILITY (CHI(1)) TENSORS (INDEPENDENT COMPONENTS)

  FR.(eV) COMP.   ALPHA(Re,Im)           EPSILON(Re,Im)                CHI(1)
  1.165   XX    1103.4699       0.0000       3.7857       0.0000       2.7857
  1.165   ZZ     596.2744       0.0000       2.5053       0.0000       1.5053

 DIELECTRIC TENSOR

 TENSOR IN PRINCIPAL AXES SYSTEM
 AA  3.785665E+00 BB  3.785665E+00 CC  2.505270E+00

 REFRACTIVE INDICES 
 AA  1.582805E+00 BB  1.945679E+00 CC  1.945679E+00

 OPTICALLY ANISOTROPIC - UNIAXIAL CRYSTAL

 BIREFRINGENCE =  0.3629 (NEGATIVE) - OBLATE OPTICAL ELLIPSOID

 EPSILON=N**2=1+CHI(1)=1+ALPHA*4*PI/V,   4*PI/V=   0.00252 BOHR**(-3)
 ALPHA IN BOHR**3; EPSILON AND CHI(1) ARE DIMENSIONLESS.
 *******************************************************************************


 GCALCO - MAX INDICES DIRECT LATTICE VECTOR    14    14    16
 NO.OF VECTORS CREATED 6999 STARS  485 RMAX   203.49894 BOHR

 CAPPA:IS1  3;IS2  3;IS3  3; K PTS MONK NET   6; SYMMOPS:K SPACE   8;G SPACE   4

 TTTTTTTTTTTTTTTTTTTTTTTTTTTTTT END         TELAPSE   168679.98 TCPU   165699.69
 EEEEEEEEEE TERMINATION  DATE 17 12 2023 TIME 00:07:13.7
NODE    0 CPU TIME =    165699.688
    TOTAL CPU TIME =  10613703.116
trying normal rsh (/usr/bin/rsh)
exec: No such file or directory
trying normal rsh (/usr/bin/rsh)
exec: No such file or directory
trying normal rsh (/usr/bin/rsh)
exec: No such file or directory
trying normal rsh (/usr/bin/rsh)
exec: No such file or directory
