Loading crystal17/1.0.2/intel/19.0
  Loading requirement: intel/19.0 ompi/4.0.1/intel/19.0
          64 PROCESSORS WORKING

         
 *******************************************************************************
 *                                                                             *
 *                               CRYSTAL17                                     *
 *                      public : 1.0.2 - March 1st, 2018                       *
 *                       HTTP://WWW.CRYSTAL.UNITO.IT                           *
 *                                                                             *
 *                              MAIN AUTHORS                                   *
 *                                                                             *
 *  R. DOVESI(1,11), V.R. SAUNDERS(2), C. ROETTI(1,11), R. ORLANDO(1,11),      *
 *  C.M. ZICOVICH-WILSON(1,3), F. PASCALE(4), B. CIVALLERI(1,11),              *
 *  K. DOLL(5), N.M. HARRISON(2,6), I.J. BUSH(7), Ph. D'ARCO(8),               *
 *  M. LLUNELL(9), M. CAUSA'(10), Y. NOEL(8), L. MASCHIO(1,11), A. ERBA(1,11)  *
 *  M. RE'RAT(14), S. CASASSA(1,11)                                            *
 *                                                                             *
 *        CONTRIBUTIONS TO THE CODE HAVE ALSO BEEN GIVEN BY                    *
 *                                                                             *
 *  M. FERRABONE(1,11), M. DE LA PIERRE(1,11), M. FERRERO(1,11),               *
 *  J. BAIMA(1,11), E. ALBANESE(1,11), M.F. PEINTINGER(12), R. BAST(13),       *
 *  B. KIRTMAN(15), V. LACIVITA(1,11), R. DEMICHELIS(1,16)                     *
 *  G. BRANDEBURG(17), S. SALUSTRO(1,11), G. SANSONE(1,11)                     *
 *  M.T. RUGGIERO(18)                                                          *
 *                                                                             *
 * (1) THEORETICAL CHEMISTRY GROUP - UNIVERSITA' DI TORINO - TORINO (ITALY)    *
 * (2) COMPUTATIONAL SCIENCE & ENGINEERING DEPARTMENT - STFC DARESBURY (UK)    *
 * (3) UNIVERSIDAD AUTONOMA DEL ESTADO DE MORELOS - CUERNAVACA (MEXICO)        *
 * (4) UNIVERSITE' DE LORRAINE - NANCY (FRANCE)                                *
 * (5) UNIVERSITAET STUTTGART- STUTTGART (GERMANY)                             *
 * (6) IMPERIAL COLLEGE - LONDON (UK)                                          *
 * (7) OXFORD E-RESEARCH CENTRE - OXFORD (UK)                                  *
 * (8) UPMC - SORBONNE UNIVERSITES - PARIS (FRANCE)                            *
 * (9) UNIVERSIDAD DE BARCELONA - BARCELONA (SPAIN)                            *
 *(10) UNIVERSITA' DI NAPOLI "FEDERICO II" - NAPOLI (ITALY)                    *
 *(11) NIS - NANOSTRUCTURED INTERFACES AND SURFACES - TORINO (ITALY)           *
 *(12) MPI FUER CHEMISCHE ENERGIEKONVERSION - MUELHEIM AN DER RUHR (GERMANY)   *
 *(13) UNIVERSITY OF TROMSO - TROMSO (NORWAY)                                  *
 *(14) UNIVERSITE' DE PAU ET DES PAYS DE L'ADOUR - PAU (FRANCE)                *
 *(15) UNIVERSITY OF CALIFORNIA SANTA BARBARA - SANTA BARBARA (USA)            *
 *(16) CURTIN UNIVERSITY - PERTH (AUSTRALIA)                                   *
 *(17) UNIVERSITY COLLEGE LONDON - LONDON (UK)                                 *
 *(18) CAMBRIDGE UNIVERSITY - CAMBRIDGE (UK)                                   *
 *                                                                             *
 *******************************************************************************
 EEEEEEEEEE STARTING  DATE 08 03 2024 TIME 02:57:29.5
 Z:\home\sanoj\Downloads\tmp_p\newconn.mol                                       

 CRYSTAL CALCULATION
 (INPUT ACCORDING TO THE INTERNATIONAL TABLES FOR X-RAY CRYSTALLOGRAPHY)
 CRYSTAL FAMILY                       :  TETRAGONAL  
 CRYSTAL CLASS  (GROTH - 1921)        :  TETRAGONAL DISPHENOIDAL              

 SPACE GROUP (NONCENTROSYMMETRIC)     :  I -4            

 LATTICE PARAMETERS  (ANGSTROMS AND DEGREES) - CONVENTIONAL CELL
        A           B           C        ALPHA        BETA       GAMMA
    10.87868    10.87868    12.75772    90.00000    90.00000    90.00000


 NUMBER OF IRREDUCIBLE ATOMS IN THE CONVENTIONAL CELL:   17

 INPUT COORDINATES

 ATOM AT. N.              COORDINATES
   1   1     6.395000000000E-02  7.774200000000E-01  3.874500000000E-01
   2   1     4.627200000000E-01  8.017900000000E-01  3.923600000000E-01
   3   1     8.776000000000E-02  5.475700000000E-01  3.855200000000E-01
   4   6     2.617500000000E-01  8.087100000000E-01  3.884000000000E-01
   5   6     2.531000000000E-01 -5.907000000000E-02  3.804000000000E-01
   6   6     1.551200000000E-01  7.353700000000E-01  3.890500000000E-01
   7   6     2.867300000000E-01  5.601000000000E-01  3.779600000000E-01
   8   6     3.766000000000E-01  7.496800000000E-01  3.877900000000E-01
   9   6     8.326800000000E-01  3.915000000000E-01  3.865600000000E-01
  10   7     3.395900000000E-01  1.560000000000E-02  3.364900000000E-01
  11   7     2.921100000000E-01  1.330200000000E-01  3.401900000000E-01
  12   7     1.552600000000E-01  1.044000000000E-02  4.102000000000E-01
  13   7     1.821400000000E-01  1.299100000000E-01  3.832000000000E-01
  14   7     3.885500000000E-01  6.275900000000E-01  3.803100000000E-01
  15  30     0.000000000000E+00  5.000000000000E-01  7.500000000000E-01
  16  30     0.000000000000E+00  0.000000000000E+00  5.000000000000E-01
  17  35     3.036300000000E-01  3.892700000000E-01  3.571000000000E-01

 *******************************************************************************

 << INFORMATION >>: FROM NOW ON, ALL COORDINATES REFER TO THE PRIMITIVE CELL

 *******************************************************************************

 LATTICE PARAMETERS  (ANGSTROMS AND DEGREES) - PRIMITIVE CELL
       A          B          C        ALPHA      BETA     GAMMA        VOLUME
    9.99313    9.99313    9.99313   114.04525 114.04525 100.66603    754.910044

 COORDINATES OF THE EQUIVALENT ATOMS (FRACTIONAL UNITS)

 N. ATOM EQUIV AT. N.          X                  Y                  Z

   1   1   1    1 H     1.64870000000E-01  4.51400000000E-01 -1.58630000000E-01
   2   1   2    1 H    -3.89970000000E-01  3.23500000000E-01  1.58630000000E-01
   3   1   3    1 H    -4.51400000000E-01  3.89970000000E-01 -2.86530000000E-01
   4   1   4    1 H    -3.23500000000E-01 -1.64870000000E-01  2.86530000000E-01

   5   2   1    1 H     1.94150000000E-01 -1.44920000000E-01  2.64510000000E-01
   6   2   2    1 H    -4.09430000000E-01 -7.03600000000E-02 -2.64510000000E-01
   7   2   3    1 H     1.44920000000E-01  4.09430000000E-01  3.39070000000E-01
   8   2   4    1 H     7.03600000000E-02 -1.94150000000E-01 -3.39070000000E-01

   9   3   1    1 H    -6.69100000000E-02  4.73280000000E-01 -3.64670000000E-01
  10   3   2    1 H    -1.62050000000E-01  2.97760000000E-01  3.64670000000E-01
  11   3   3    1 H    -4.73280000000E-01  1.62050000000E-01  4.59810000000E-01
  12   3   4    1 H    -2.97760000000E-01  6.69100000000E-02 -4.59810000000E-01

  13   4   1    6 C     1.97110000000E-01 -3.49850000000E-01  7.04600000000E-02
  14   4   2    6 C    -4.20310000000E-01  1.26650000000E-01 -7.04600000000E-02
  15   4   3    6 C     3.49850000000E-01  4.20310000000E-01 -4.53040000000E-01
  16   4   4    6 C    -1.26650000000E-01 -1.97110000000E-01  4.53040000000E-01

  17   5   1    6 C     3.21330000000E-01 -3.66500000000E-01  1.94030000000E-01
  18   5   2    6 C     4.39470000000E-01  1.27300000000E-01 -1.94030000000E-01
  19   5   3    6 C     3.66500000000E-01 -4.39470000000E-01 -3.12170000000E-01
  20   5   4    6 C    -1.27300000000E-01 -3.21330000000E-01  3.12170000000E-01

  21   6   1    6 C     1.24420000000E-01 -4.55830000000E-01 -1.09510000000E-01
  22   6   2    6 C    -3.46320000000E-01  2.33930000000E-01  1.09510000000E-01
  23   6   3    6 C     4.55830000000E-01  3.46320000000E-01 -4.19750000000E-01
  24   6   4    6 C    -2.33930000000E-01 -1.24420000000E-01  4.19750000000E-01

  25   7   1    6 C    -6.19400000000E-02 -3.35310000000E-01 -1.53170000000E-01
  26   7   2    6 C    -1.82140000000E-01  9.12300000000E-02  1.53170000000E-01
  27   7   3    6 C     3.35310000000E-01  1.82140000000E-01  2.73370000000E-01
  28   7   4    6 C    -9.12300000000E-02  6.19400000000E-02 -2.73370000000E-01

  29   8   1    6 C     1.37470000000E-01 -2.35610000000E-01  1.26280000000E-01
  30   8   2    6 C    -3.61890000000E-01  1.11900000000E-02 -1.26280000000E-01
  31   8   3    6 C     2.35610000000E-01  3.61890000000E-01  3.73080000000E-01
  32   8   4    6 C    -1.11900000000E-02 -1.37470000000E-01 -3.73080000000E-01

  33   9   1    6 C    -2.21940000000E-01  2.19240000000E-01  2.24180000000E-01
  34   9   2    6 C    -4.94000000000E-03 -4.46120000000E-01 -2.24180000000E-01
  35   9   3    6 C    -2.19240000000E-01  4.94000000000E-03 -4.41180000000E-01
  36   9   4    6 C     4.46120000000E-01  2.21940000000E-01  4.41180000000E-01

  37  10   1    7 N     3.52090000000E-01 -3.23920000000E-01  3.55190000000E-01
  38  10   2    7 N     3.20890000000E-01 -3.10000000000E-03 -3.55190000000E-01
  39  10   3    7 N     3.23920000000E-01 -3.20890000000E-01 -3.23990000000E-01
  40  10   4    7 N     3.10000000000E-03 -3.52090000000E-01  3.23990000000E-01

  41  11   1    7 N     4.73210000000E-01 -3.67700000000E-01  4.25130000000E-01
  42  11   2    7 N     2.07170000000E-01  4.80800000000E-02 -4.25130000000E-01
  43  11   3    7 N     3.67700000000E-01 -2.07170000000E-01 -1.59090000000E-01
  44  11   4    7 N    -4.80800000000E-02 -4.73210000000E-01  1.59090000000E-01

  45  12   1    7 N     4.20640000000E-01 -4.34540000000E-01  1.65700000000E-01
  46  12   2    7 N     3.99760000000E-01  2.54940000000E-01 -1.65700000000E-01
  47  12   3    7 N     4.34540000000E-01 -3.99760000000E-01 -1.44820000000E-01
  48  12   4    7 N    -2.54940000000E-01 -4.20640000000E-01  1.44820000000E-01

  49  13   1    7 N    -4.86890000000E-01 -4.34660000000E-01  3.12050000000E-01
  50  13   2    7 N     2.53290000000E-01  2.01060000000E-01 -3.12050000000E-01
  51  13   3    7 N     4.34660000000E-01 -2.53290000000E-01 -5.22300000000E-02
  52  13   4    7 N    -2.01060000000E-01  4.86890000000E-01  5.22300000000E-02

  53  14   1    7 N     7.90000000000E-03 -2.31140000000E-01  1.61400000000E-02
  54  14   2    7 N    -2.47280000000E-01 -8.24000000000E-03 -1.61400000000E-02
  55  14   3    7 N     2.31140000000E-01  2.47280000000E-01  2.39040000000E-01
  56  14   4    7 N     8.24000000000E-03 -7.90000000000E-03 -2.39040000000E-01

  57  15   1   30 ZN    2.50000000000E-01 -2.50000000000E-01 -5.00000000000E-01

  58  16   1   30 ZN   -5.00000000000E-01 -5.00000000000E-01  0.00000000000E+00

  59  17   1   35 BR   -2.53630000000E-01 -3.39270000000E-01 -3.07100000000E-01
  60  17   2   35 BR   -3.21700000000E-02  5.34700000000E-02  3.07100000000E-01
  61  17   3   35 BR    3.39270000000E-01  3.21700000000E-02  8.56400000000E-02
  62  17   4   35 BR   -5.34700000000E-02  2.53630000000E-01 -8.56400000000E-02

 NUMBER OF SYMMETRY OPERATORS         :    4
 *******************************************************************************
 * GEOMETRY EDITING - INPUT COORDINATES ARE GIVEN IN ANGSTROM         
 *******************************************************************************

 GEOMETRY NOW FULLY CONSISTENT WITH THE GROUP

 GCALCO - MAX INDICES DIRECT LATTICE VECTOR    14    14    16
 NO.OF VECTORS CREATED 6999 STARS  486 RMAX   204.94121 BOHR

 GEOMETRY FOR WAVE FUNCTION - DIMENSIONALITY OF THE SYSTEM    3
 (NON PERIODIC DIRECTION: LATTICE PARAMETER FORMALLY SET TO 500)
 *******************************************************************************
 LATTICE PARAMETERS (ANGSTROMS AND DEGREES) - BOHR = 0.5291772083 ANGSTROM
 PRIMITIVE CELL - CENTRING CODE 6/0 VOLUME=   754.910044 - DENSITY  2.252 g/cm^3
         A              B              C           ALPHA      BETA       GAMMA 
     9.99313023     9.99313023     9.99313023   114.045249 114.045249 100.666031
 *******************************************************************************
 ATOMS IN THE ASYMMETRIC UNIT   17 - ATOMS IN THE UNIT CELL:   62
     ATOM                 X/A                 Y/B                 Z/C    
 *******************************************************************************
      1 T   1 H     1.648700000000E-01  4.514000000000E-01 -1.586300000000E-01
      2 F   1 H    -3.899700000000E-01  3.235000000000E-01  1.586300000000E-01
      3 F   1 H    -4.514000000000E-01  3.899700000000E-01 -2.865300000000E-01
      4 F   1 H    -3.235000000000E-01 -1.648700000000E-01  2.865300000000E-01
      5 T   1 H     1.941500000000E-01 -1.449200000000E-01  2.645100000000E-01
      6 F   1 H    -4.094300000000E-01 -7.036000000000E-02 -2.645100000000E-01
      7 F   1 H     1.449200000000E-01  4.094300000000E-01  3.390700000000E-01
      8 F   1 H     7.036000000000E-02 -1.941500000000E-01 -3.390700000000E-01
      9 T   1 H    -6.691000000000E-02  4.732800000000E-01 -3.646700000000E-01
     10 F   1 H    -1.620500000000E-01  2.977600000000E-01  3.646700000000E-01
     11 F   1 H    -4.732800000000E-01  1.620500000000E-01  4.598100000000E-01
     12 F   1 H    -2.977600000000E-01  6.691000000000E-02 -4.598100000000E-01
     13 T   6 C     1.971100000000E-01 -3.498500000000E-01  7.046000000000E-02
     14 F   6 C    -4.203100000000E-01  1.266500000000E-01 -7.046000000000E-02
     15 F   6 C     3.498500000000E-01  4.203100000000E-01 -4.530400000000E-01
     16 F   6 C    -1.266500000000E-01 -1.971100000000E-01  4.530400000000E-01
     17 T   6 C     3.213300000000E-01 -3.665000000000E-01  1.940300000000E-01
     18 F   6 C     4.394700000000E-01  1.273000000000E-01 -1.940300000000E-01
     19 F   6 C     3.665000000000E-01 -4.394700000000E-01 -3.121700000000E-01
     20 F   6 C    -1.273000000000E-01 -3.213300000000E-01  3.121700000000E-01
     21 T   6 C     1.244200000000E-01 -4.558300000000E-01 -1.095100000000E-01
     22 F   6 C    -3.463200000000E-01  2.339300000000E-01  1.095100000000E-01
     23 F   6 C     4.558300000000E-01  3.463200000000E-01 -4.197500000000E-01
     24 F   6 C    -2.339300000000E-01 -1.244200000000E-01  4.197500000000E-01
     25 T   6 C    -6.194000000000E-02 -3.353100000000E-01 -1.531700000000E-01
     26 F   6 C    -1.821400000000E-01  9.123000000000E-02  1.531700000000E-01
     27 F   6 C     3.353100000000E-01  1.821400000000E-01  2.733700000000E-01
     28 F   6 C    -9.123000000000E-02  6.194000000000E-02 -2.733700000000E-01
     29 T   6 C     1.374700000000E-01 -2.356100000000E-01  1.262800000000E-01
     30 F   6 C    -3.618900000000E-01  1.119000000000E-02 -1.262800000000E-01
     31 F   6 C     2.356100000000E-01  3.618900000000E-01  3.730800000000E-01
     32 F   6 C    -1.119000000000E-02 -1.374700000000E-01 -3.730800000000E-01
     33 T   6 C    -2.219400000000E-01  2.192400000000E-01  2.241800000000E-01
     34 F   6 C    -4.940000000000E-03 -4.461200000000E-01 -2.241800000000E-01
     35 F   6 C    -2.192400000000E-01  4.940000000000E-03 -4.411800000000E-01
     36 F   6 C     4.461200000000E-01  2.219400000000E-01  4.411800000000E-01
     37 T   7 N     3.520900000000E-01 -3.239200000000E-01  3.551900000000E-01
     38 F   7 N     3.208900000000E-01 -3.100000000000E-03 -3.551900000000E-01
     39 F   7 N     3.239200000000E-01 -3.208900000000E-01 -3.239900000000E-01
     40 F   7 N     3.100000000000E-03 -3.520900000000E-01  3.239900000000E-01
     41 T   7 N     4.732100000000E-01 -3.677000000000E-01  4.251300000000E-01
     42 F   7 N     2.071700000000E-01  4.808000000000E-02 -4.251300000000E-01
     43 F   7 N     3.677000000000E-01 -2.071700000000E-01 -1.590900000000E-01
     44 F   7 N    -4.808000000000E-02 -4.732100000000E-01  1.590900000000E-01
     45 T   7 N     4.206400000000E-01 -4.345400000000E-01  1.657000000000E-01
     46 F   7 N     3.997600000000E-01  2.549400000000E-01 -1.657000000000E-01
     47 F   7 N     4.345400000000E-01 -3.997600000000E-01 -1.448200000000E-01
     48 F   7 N    -2.549400000000E-01 -4.206400000000E-01  1.448200000000E-01
     49 T   7 N    -4.868900000000E-01 -4.346600000000E-01  3.120500000000E-01
     50 F   7 N     2.532900000000E-01  2.010600000000E-01 -3.120500000000E-01
     51 F   7 N     4.346600000000E-01 -2.532900000000E-01 -5.223000000000E-02
     52 F   7 N    -2.010600000000E-01  4.868900000000E-01  5.223000000000E-02
     53 T   7 N     7.900000000000E-03 -2.311400000000E-01  1.614000000000E-02
     54 F   7 N    -2.472800000000E-01 -8.240000000000E-03 -1.614000000000E-02
     55 F   7 N     2.311400000000E-01  2.472800000000E-01  2.390400000000E-01
     56 F   7 N     8.240000000000E-03 -7.900000000000E-03 -2.390400000000E-01
     57 T  30 ZN    2.500000000000E-01 -2.500000000000E-01 -5.000000000000E-01
     58 T  30 ZN   -5.000000000000E-01  5.000000000000E-01  0.000000000000E+00
     59 T  35 BR   -2.536300000000E-01 -3.392700000000E-01 -3.071000000000E-01
     60 F  35 BR   -3.217000000000E-02  5.347000000000E-02  3.071000000000E-01
     61 F  35 BR    3.392700000000E-01  3.217000000000E-02  8.564000000000E-02
     62 F  35 BR   -5.347000000000E-02  2.536300000000E-01 -8.564000000000E-02

 TRANSFORMATION MATRIX PRIMITIVE-CRYSTALLOGRAPHIC CELL
  0.0000  1.0000  1.0000  1.0000  0.0000  1.0000  1.0000  1.0000  0.0000

 *******************************************************************************
 CRYSTALLOGRAPHIC CELL (VOLUME=       1509.82008812)
         A              B              C           ALPHA      BETA       GAMMA 
    10.87867793    10.87867793    12.75771690    90.000000  90.000000  90.000000

 COORDINATES IN THE CRYSTALLOGRAPHIC CELL
     ATOM                 X/A                 Y/B                 Z/C    
 *******************************************************************************
      1 T   1 H     6.395000000000E-02 -2.225800000000E-01  3.874500000000E-01
      2 F   1 H    -6.395000000000E-02  2.225800000000E-01  3.874500000000E-01
      3 F   1 H    -2.225800000000E-01 -6.395000000000E-02 -3.874500000000E-01
      4 F   1 H     2.225800000000E-01  6.395000000000E-02 -3.874500000000E-01
      5 T   1 H    -3.728000000000E-02  3.017900000000E-01 -1.076400000000E-01
      6 F   1 H     3.728000000000E-02 -3.017900000000E-01 -1.076400000000E-01
      7 F   1 H     3.017900000000E-01  3.728000000000E-02  1.076400000000E-01
      8 F   1 H    -3.017900000000E-01 -3.728000000000E-02  1.076400000000E-01
      9 T   1 H    -4.122400000000E-01  4.757000000000E-02 -1.144800000000E-01
     10 F   1 H     4.122400000000E-01 -4.757000000000E-02 -1.144800000000E-01
     11 F   1 H     4.757000000000E-02  4.122400000000E-01  1.144800000000E-01
     12 F   1 H    -4.757000000000E-02 -4.122400000000E-01  1.144800000000E-01
     13 T   6 C    -2.382500000000E-01  3.087100000000E-01 -1.116000000000E-01
     14 F   6 C     2.382500000000E-01 -3.087100000000E-01 -1.116000000000E-01
     15 F   6 C     3.087100000000E-01  2.382500000000E-01  1.116000000000E-01
     16 F   6 C    -3.087100000000E-01 -2.382500000000E-01  1.116000000000E-01
     17 T   6 C     2.531000000000E-01 -5.907000000000E-02  3.804000000000E-01
     18 F   6 C    -2.531000000000E-01  5.907000000000E-02  3.804000000000E-01
     19 F   6 C    -5.907000000000E-02 -2.531000000000E-01 -3.804000000000E-01
     20 F   6 C     5.907000000000E-02  2.531000000000E-01 -3.804000000000E-01
     21 T   6 C    -3.448800000000E-01  2.353700000000E-01 -1.109500000000E-01
     22 F   6 C     3.448800000000E-01 -2.353700000000E-01 -1.109500000000E-01
     23 F   6 C     2.353700000000E-01  3.448800000000E-01  1.109500000000E-01
     24 F   6 C    -2.353700000000E-01 -3.448800000000E-01  1.109500000000E-01
     25 T   6 C    -2.132700000000E-01  6.010000000000E-02 -1.220400000000E-01
     26 F   6 C     2.132700000000E-01 -6.010000000000E-02 -1.220400000000E-01
     27 F   6 C     6.010000000000E-02  2.132700000000E-01  1.220400000000E-01
     28 F   6 C    -6.010000000000E-02 -2.132700000000E-01  1.220400000000E-01
     29 T   6 C    -1.234000000000E-01  2.496800000000E-01 -1.122100000000E-01
     30 F   6 C     1.234000000000E-01 -2.496800000000E-01 -1.122100000000E-01
     31 F   6 C     2.496800000000E-01  1.234000000000E-01  1.122100000000E-01
     32 F   6 C    -2.496800000000E-01 -1.234000000000E-01  1.122100000000E-01
     33 T   6 C     3.326800000000E-01 -1.085000000000E-01 -1.134400000000E-01
     34 F   6 C    -3.326800000000E-01  1.085000000000E-01 -1.134400000000E-01
     35 F   6 C    -1.085000000000E-01 -3.326800000000E-01  1.134400000000E-01
     36 F   6 C     1.085000000000E-01  3.326800000000E-01  1.134400000000E-01
     37 T   7 N     3.395900000000E-01  1.560000000000E-02  3.364900000000E-01
     38 F   7 N    -3.395900000000E-01 -1.560000000000E-02  3.364900000000E-01
     39 F   7 N     1.560000000000E-02 -3.395900000000E-01 -3.364900000000E-01
     40 F   7 N    -1.560000000000E-02  3.395900000000E-01 -3.364900000000E-01
     41 T   7 N    -2.078900000000E-01 -3.669800000000E-01 -1.598100000000E-01
     42 F   7 N     2.078900000000E-01  3.669800000000E-01 -1.598100000000E-01
     43 F   7 N    -3.669800000000E-01  2.078900000000E-01  1.598100000000E-01
     44 F   7 N     3.669800000000E-01 -2.078900000000E-01  1.598100000000E-01
     45 T   7 N     1.552600000000E-01  1.044000000000E-02  4.102000000000E-01
     46 F   7 N    -1.552600000000E-01 -1.044000000000E-02  4.102000000000E-01
     47 F   7 N     1.044000000000E-02 -1.552600000000E-01 -4.102000000000E-01
     48 F   7 N    -1.044000000000E-02  1.552600000000E-01 -4.102000000000E-01
     49 T   7 N     1.821400000000E-01  1.299100000000E-01  3.832000000000E-01
     50 F   7 N    -1.821400000000E-01 -1.299100000000E-01  3.832000000000E-01
     51 F   7 N     1.299100000000E-01 -1.821400000000E-01 -3.832000000000E-01
     52 F   7 N    -1.299100000000E-01  1.821400000000E-01 -3.832000000000E-01
     53 T   7 N    -1.114500000000E-01  1.275900000000E-01 -1.196900000000E-01
     54 F   7 N     1.114500000000E-01 -1.275900000000E-01 -1.196900000000E-01
     55 F   7 N     1.275900000000E-01  1.114500000000E-01  1.196900000000E-01
     56 F   7 N    -1.275900000000E-01 -1.114500000000E-01  1.196900000000E-01
     57 T  30 ZN   -5.000000000000E-01 -4.320412642875E-17  2.500000000000E-01
     58 T  30 ZN    0.000000000000E+00  0.000000000000E+00  5.000000000000E-01
     59 T  35 BR   -1.963700000000E-01 -1.107300000000E-01 -1.429000000000E-01
     60 F  35 BR    1.963700000000E-01  1.107300000000E-01 -1.429000000000E-01
     61 F  35 BR   -1.107300000000E-01  1.963700000000E-01  1.429000000000E-01
     62 F  35 BR    1.107300000000E-01 -1.963700000000E-01  1.429000000000E-01

 T = ATOM BELONGING TO THE ASYMMETRIC UNIT

 ****    4 SYMMOPS - TRANSLATORS IN FRACTIONAL UNITS
 **** MATRICES AND TRANSLATORS IN THE CRYSTALLOGRAPHIC REFERENCE FRAME
   V INV                    ROTATION MATRICES                   TRANSLATORS
   1   1  1.00  0.00  0.00  0.00  1.00  0.00  0.00  0.00  1.00  0.00  0.00  0.00
   2   2  0.00  1.00 -1.00  1.00 -0.00 -1.00  0.00  0.00 -1.00  0.00  0.00  0.00
   3   4  0.00 -1.00  0.00  0.00 -1.00  1.00  1.00 -1.00  0.00  0.00  0.00  0.00
   4   3 -1.00  0.00  1.00 -1.00  0.00 -0.00 -1.00  1.00  0.00  0.00  0.00  0.00

 DIRECT LATTICE VECTORS CARTESIAN COMPONENTS (ANGSTROM)
          X                    Y                    Z
  -0.543933896435E+01   0.543933896435E+01   0.637885844950E+01
   0.543933896435E+01  -0.543933896435E+01   0.637885844950E+01
   0.543933896435E+01   0.543933896435E+01  -0.637885844950E+01


 CARTESIAN COORDINATES - PRIMITIVE CELL
 *******************************************************************************
 *      ATOM          X(ANGSTROM)         Y(ANGSTROM)         Z(ANGSTROM)
 *******************************************************************************
    1     1 H     6.956914535404E-01 -2.421376133370E+00  4.942977412518E+00
    2     1 H    -6.956914535404E-01  2.421376133370E+00  4.942977412518E+00
    3     1 H    -2.421376133370E+00 -6.956914535404E-01 -4.942977412518E+00
    4     1 H     2.421376133370E+00  6.956914535404E-01 -4.942977412518E+00
    5     1 H    -4.055571131819E-01  3.283076212102E+00 -1.373240647008E+00
    6     1 H     4.055571131819E-01 -3.283076212102E+00 -1.373240647008E+00
    7     1 H     3.283076212102E+00  4.055571131819E-01  1.373240647008E+00
    8     1 H    -3.283076212102E+00 -4.055571131819E-01  1.373240647008E+00
    9     1 H    -4.484626189327E+00  5.174987090683E-01 -1.460503430598E+00
   10     1 H     4.484626189327E+00 -5.174987090683E-01 -1.460503430598E+00
   11     1 H     5.174987090683E-01  4.484626189327E+00  1.460503430598E+00
   12     1 H    -5.174987090683E-01 -4.484626189327E+00  1.460503430598E+00
   13     6 C    -2.591845016513E+00  3.358356663369E+00 -1.423761205928E+00
   14     6 C     2.591845016513E+00 -3.358356663369E+00 -1.423761205928E+00
   15     6 C     3.358356663369E+00  2.591845016513E+00  1.423761205928E+00
   16     6 C    -3.358356663369E+00 -2.591845016513E+00  1.423761205928E+00
   17     6 C     2.753393383754E+00 -6.426035052483E-01  4.853035508380E+00
   18     6 C    -2.753393383754E+00  6.426035052483E-01  4.853035508380E+00
   19     6 C    -6.426035052483E-01 -2.753393383754E+00 -4.853035508380E+00
   20     6 C     6.426035052483E-01  2.753393383754E+00 -4.853035508380E+00
   21     6 C    -3.751838444050E+00  2.560514424078E+00 -1.415468689944E+00
   22     6 C     3.751838444050E+00 -2.560514424078E+00 -1.415468689944E+00
   23     6 C     2.560514424078E+00  3.751838444050E+00  1.415468689944E+00
   24     6 C    -2.560514424078E+00 -3.751838444050E+00  1.415468689944E+00
   25     6 C    -2.320095641854E+00  6.538085435149E-01 -1.556951770354E+00
   26     6 C     2.320095641854E+00 -6.538085435149E-01 -1.556951770354E+00
   27     6 C     6.538085435149E-01  2.320095641854E+00  1.556951770354E+00
   28     6 C    -6.538085435149E-01 -2.320095641854E+00  1.556951770354E+00
   29     6 C    -1.342428856402E+00  2.716188305238E+00 -1.431543413237E+00
   30     6 C     1.342428856402E+00 -2.716188305238E+00 -1.431543413237E+00
   31     6 C     2.716188305238E+00  1.342428856402E+00  1.431543413237E+00
   32     6 C    -2.716188305238E+00 -1.342428856402E+00  1.431543413237E+00
   33     6 C     3.619118573320E+00 -1.180336555264E+00 -1.447235405023E+00
   34     6 C    -3.619118573320E+00  1.180336555264E+00 -1.447235405023E+00
   35     6 C    -1.180336555264E+00 -3.619118573320E+00  1.447235405023E+00
   36     6 C     1.180336555264E+00  3.619118573320E+00  1.447235405023E+00
   37     7 N     3.694290237807E+00  1.697073756877E-01  4.292844159345E+00
   38     7 N    -3.694290237807E+00 -1.697073756877E-01  4.292844159345E+00
   39     7 N     1.697073756877E-01 -3.694290237807E+00 -4.292844159345E+00
   40     7 N    -1.697073756877E-01  3.694290237807E+00 -4.292844159345E+00
   41     7 N    -2.261568354597E+00 -3.992257226274E+00 -2.038810737629E+00
   42     7 N     2.261568354597E+00  3.992257226274E+00 -2.038810737629E+00
   43     7 N    -3.992257226274E+00  2.261568354597E+00  2.038810737629E+00
   44     7 N     3.992257226274E+00 -2.261568354597E+00  2.038810737629E+00
   45     7 N     1.689023535210E+00  1.135733975756E-01  5.233215471970E+00
   46     7 N    -1.689023535210E+00 -1.135733975756E-01  5.233215471970E+00
   47     7 N     1.135733975756E-01 -1.689023535210E+00 -5.233215471970E+00
   48     7 N    -1.135733975756E-01  1.689023535210E+00 -5.233215471970E+00
   49     7 N     1.981442397933E+00  1.413249049717E+00  4.888757115697E+00
   50     7 N    -1.981442397933E+00 -1.413249049717E+00  4.888757115697E+00
   51     7 N     1.413249049717E+00 -1.981442397933E+00 -4.888757115697E+00
   52     7 N    -1.413249049717E+00  1.981442397933E+00 -4.888757115697E+00
   53     7 N    -1.212428655154E+00  1.388010516923E+00 -1.526971135641E+00
   54     7 N     1.212428655154E+00 -1.388010516923E+00 -1.526971135641E+00
   55     7 N     1.388010516923E+00  1.212428655154E+00  1.526971135641E+00
   56     7 N    -1.388010516923E+00 -1.212428655154E+00  1.526971135641E+00
   57    30 ZN    5.439338964350E+00 -4.700037766092E-16 -9.568287674250E+00
   58    30 ZN    0.000000000000E+00  0.000000000000E+00  6.378858449500E+00
   59    35 BR   -2.136245984859E+00 -1.204596007045E+00 -1.823077744867E+00
   60    35 BR    2.136245984859E+00  1.204596007045E+00 -1.823077744867E+00
   61    35 BR   -1.204596007045E+00  2.136245984859E+00  1.823077744867E+00
   62    35 BR    1.204596007045E+00 -2.136245984859E+00  1.823077744867E+00

 *******************************************************************************
 STARTING BASIS SET HANDLING 
 *******************************************************************************

 Loading internal basis set: POB-DZVPP           

 Please cite in your publication:
 Peintinger, M. F., Oliveira, D. V. and Bredow, T. (2013), Generally applicable 
 solid-state Gaussian basis sets, in preparation                                
                                                                                
                    

 *******************************************************************************
 LOCAL ATOMIC FUNCTIONS BASIS SET
 *******************************************************************************
   ATOM   X(AU)   Y(AU)   Z(AU)  N. TYPE  EXPONENT  S COEF   P COEF   D/F/G COEF
 *******************************************************************************
   1 H    1.315  -4.576   9.341
                                  1 S  
                                         2.263E+01 1.441E-02 0.000E+00 0.000E+00
                                         3.236E+00 1.072E-01 0.000E+00 0.000E+00
                                         7.304E-01 3.846E-01 0.000E+00 0.000E+00
                                  2 S  
                                         1.417E-01 1.000E+00 0.000E+00 0.000E+00
                           3-     5 P  
                                         3.944E-01 0.000E+00 1.000E+00 0.000E+00
                           6-     8 P  
                                         1.006E-01 0.000E+00 1.000E+00 0.000E+00
   2 H   -1.315   4.576   9.341
   3 H   -4.576  -1.315  -9.341
   4 H    4.576   1.315  -9.341
   5 H   -0.766   6.204  -2.595
   6 H    0.766  -6.204  -2.595
   7 H    6.204   0.766   2.595
   8 H   -6.204  -0.766   2.595
   9 H   -8.475   0.978  -2.760
  10 H    8.475  -0.978  -2.760
  11 H    0.978   8.475   2.760
  12 H   -0.978  -8.475   2.760
  13 C   -4.898   6.346  -2.691
                                 97 S  
                                         1.238E+03 5.457E-03 0.000E+00 0.000E+00
                                         1.863E+02 4.064E-02 0.000E+00 0.000E+00
                                         4.225E+01 1.803E-01 0.000E+00 0.000E+00
                                         1.168E+01 4.632E-01 0.000E+00 0.000E+00
                                         3.593E+00 4.409E-01 0.000E+00 0.000E+00
                                 98 S  
                                         5.281E+00 1.000E+00 0.000E+00 0.000E+00
                                 99 S  
                                         4.447E-01 1.000E+00 0.000E+00 0.000E+00
                         100-   102 P  
                                         9.468E+00 0.000E+00 3.839E-02 0.000E+00
                                         2.010E+00 0.000E+00 2.112E-01 0.000E+00
                                         5.477E-01 0.000E+00 5.133E-01 0.000E+00
                         103-   105 P  
                                         1.604E-01 0.000E+00 1.000E+00 0.000E+00
                         106-   110 D  
                                         6.070E-01 0.000E+00 0.000E+00 1.000E+00
                         111-   115 D  
                                         2.939E-01 0.000E+00 0.000E+00 1.000E+00
  14 C    4.898  -6.346  -2.691
  15 C    6.346   4.898   2.691
  16 C   -6.346  -4.898   2.691
  17 C    5.203  -1.214   9.171
  18 C   -5.203   1.214   9.171
  19 C   -1.214  -5.203  -9.171
  20 C    1.214   5.203  -9.171
  21 C   -7.090   4.839  -2.675
  22 C    7.090  -4.839  -2.675
  23 C    4.839   7.090   2.675
  24 C   -4.839  -7.090   2.675
  25 C   -4.384   1.236  -2.942
  26 C    4.384  -1.236  -2.942
  27 C    1.236   4.384   2.942
  28 C   -1.236  -4.384   2.942
  29 C   -2.537   5.133  -2.705
  30 C    2.537  -5.133  -2.705
  31 C    5.133   2.537   2.705
  32 C   -5.133  -2.537   2.705
  33 C    6.839  -2.231  -2.735
  34 C   -6.839   2.231  -2.735
  35 C   -2.231  -6.839   2.735
  36 C    2.231   6.839   2.735
  37 N    6.981   0.321   8.112
                                553 S  
                                         1.713E+03-5.393E-03 0.000E+00 0.000E+00
                                         2.576E+02-4.022E-02 0.000E+00 0.000E+00
                                         5.846E+01-1.793E-01 0.000E+00 0.000E+00
                                         1.620E+01-4.638E-01 0.000E+00 0.000E+00
                                         5.005E+00-4.417E-01 0.000E+00 0.000E+00
                                554 S  
                                         6.217E-01 1.000E+00 0.000E+00 0.000E+00
                                555 S  
                                         2.921E-01 1.000E+00 0.000E+00 0.000E+00
                         556-   558 P  
                                         1.357E+01 0.000E+00-4.007E-02 0.000E+00
                                         2.926E+00 0.000E+00-2.181E-01 0.000E+00
                                         7.993E-01 0.000E+00-5.129E-01 0.000E+00
                         559-   561 P  
                                         2.244E-01 0.000E+00 1.000E+00 0.000E+00
                         562-   566 D  
                                         3.118E-01 0.000E+00 0.000E+00 1.000E+00
  38 N   -6.981  -0.321   8.112
  39 N    0.321  -6.981  -8.112
  40 N   -0.321   6.981  -8.112
  41 N   -4.274  -7.544  -3.853
  42 N    4.274   7.544  -3.853
  43 N   -7.544   4.274   3.853
  44 N    7.544  -4.274   3.853
  45 N    3.192   0.215   9.889
  46 N   -3.192  -0.215   9.889
  47 N    0.215  -3.192  -9.889
  48 N   -0.215   3.192  -9.889
  49 N    3.744   2.671   9.238
  50 N   -3.744  -2.671   9.238
  51 N    2.671  -3.744  -9.238
  52 N   -2.671   3.744  -9.238
  53 N   -2.291   2.623  -2.886
  54 N    2.291  -2.623  -2.886
  55 N    2.623   2.291   2.886
  56 N   -2.623  -2.291   2.886
  57 ZN  10.279  -0.000 -18.081
                                833 S  
                                         8.200E+04 1.421E-03 0.000E+00 0.000E+00
                                         1.231E+04 1.089E-02 0.000E+00 0.000E+00
                                         2.801E+03 5.406E-02 0.000E+00 0.000E+00
                                         7.910E+02 1.885E-01 0.000E+00 0.000E+00
                                         2.576E+02 3.835E-01 0.000E+00 0.000E+00
                                         8.881E+01 2.972E-01 0.000E+00 0.000E+00
                                834 S  
                                         1.719E+02-1.105E-01 0.000E+00 0.000E+00
                                         2.030E+01 6.461E-01 0.000E+00 0.000E+00
                                         8.346E+00 4.422E-01 0.000E+00 0.000E+00
                                835 S  
                                         1.485E+01-2.271E-01 0.000E+00 0.000E+00
                                         2.450E+00 7.243E-01 0.000E+00 0.000E+00
                                         9.985E-01 4.484E-01 0.000E+00 0.000E+00
                                836 S  
                                         1.493E+00 1.000E+00 0.000E+00 0.000E+00
                                837 S  
                                         1.830E-01 1.000E+00 0.000E+00 0.000E+00
                         838-   840 P  
                                         1.072E+03 0.000E+00 9.277E-03 0.000E+00
                                         2.527E+02 0.000E+00 6.954E-02 0.000E+00
                                         8.010E+01 0.000E+00 2.716E-01 0.000E+00
                                         2.890E+01 0.000E+00 5.340E-01 0.000E+00
                                         1.077E+01 0.000E+00 3.450E-01 0.000E+00
                         841-   843 P  
                                         5.645E+00 0.000E+00 3.413E-01 0.000E+00
                                         2.168E+00 0.000E+00 5.639E-01 0.000E+00
                                         8.054E-01 0.000E+00 2.368E-01 0.000E+00
                         844-   846 P  
                                         2.721E-01 0.000E+00 1.000E+00 0.000E+00
                         847-   851 D  
                                         5.609E+01 0.000E+00 0.000E+00 2.959E-02
                                         1.575E+01 0.000E+00 0.000E+00 1.587E-01
                                         5.312E+00 0.000E+00 0.000E+00 3.798E-01
                                         1.774E+00 0.000E+00 0.000E+00 4.690E-01
                         852-   856 D  
                                         5.073E-01 0.000E+00 0.000E+00 1.000E+00
                         857-   863 F  
                                         2.814E+00 0.000E+00 0.000E+00 1.000E+00
                         864-   870 F  
                                         1.300E+00 0.000E+00 0.000E+00 1.000E+00
  58 ZN   0.000   0.000  12.054
  59 BR  -4.037  -2.276  -3.445
                                909 S  
                                         1.133E+05 1.428E-03 0.000E+00 0.000E+00
                                         1.701E+04 1.095E-02 0.000E+00 0.000E+00
                                         3.870E+03 5.442E-02 0.000E+00 0.000E+00
                                         1.093E+03 1.905E-01 0.000E+00 0.000E+00
                                         3.564E+02 3.902E-01 0.000E+00 0.000E+00
                                         1.231E+02 3.081E-01 0.000E+00 0.000E+00
                                910 S  
                                         2.367E+02-1.123E-01 0.000E+00 0.000E+00
                                         2.847E+01 6.478E-01 0.000E+00 0.000E+00
                                         1.188E+01 4.424E-01 0.000E+00 0.000E+00
                                911 S  
                                         2.127E+01-2.264E-01 0.000E+00 0.000E+00
                                         3.613E+00 7.382E-01 0.000E+00 0.000E+00
                                         1.663E+00 4.268E-01 0.000E+00 0.000E+00
                                912 S  
                                         3.641E-01 1.000E+00 0.000E+00 0.000E+00
                                913 S  
                                         1.243E-01 1.000E+00 0.000E+00 0.000E+00
                         914-   916 P  
                                         1.560E+03 0.000E+00 8.717E-03 0.000E+00
                                         3.685E+02 0.000E+00 6.624E-02 0.000E+00
                                         1.172E+02 0.000E+00 2.650E-01 0.000E+00
                                         4.265E+01 0.000E+00 5.384E-01 0.000E+00
                                         1.609E+01 0.000E+00 3.658E-01 0.000E+00
                         917-   919 P  
                                         8.635E+00 0.000E+00 3.425E-01 0.000E+00
                                         3.561E+00 0.000E+00 5.750E-01 0.000E+00
                                         1.529E+00 0.000E+00 2.433E-01 0.000E+00
                         920-   922 P  
                                         6.447E-01 0.000E+00 1.000E+00 0.000E+00
                         923-   925 P  
                                         2.103E-01 0.000E+00 1.000E+00 0.000E+00
                         926-   930 D  
                                         1.049E+02 0.000E+00 0.000E+00 2.265E-02
                                         3.028E+01 0.000E+00 0.000E+00 1.346E-01
                                         1.065E+01 0.000E+00 0.000E+00 3.647E-01
                                         3.870E+00 0.000E+00 0.000E+00 4.904E-01
                         931-   935 D  
                                         1.342E+00 0.000E+00 0.000E+00 1.000E+00
                         936-   940 D  
                                         4.101E-01 0.000E+00 0.000E+00 1.000E+00
                         941-   945 D  
                                         1.985E-01 0.000E+00 0.000E+00 1.000E+00
  60 BR   4.037   2.276  -3.445
  61 BR  -2.276   4.037   3.445
  62 BR   2.276  -4.037   3.445

 *******************************************************************************
 FINISHED BASIS SET HANDLING 
 *******************************************************************************

 INFORMATION **** SET_MPP **** PCRYSTAL CALCULATION
 INFORMATION **** READM2 **** NEW DEFAULT: FOCK/KS MATRIX MIXING SET TO 30 %
 INFORMATION **** READM2 **** NEW DEFAULT: FULL DIRECT SCF MODE
 INFORMATION **** READM2 **** NEW DEFAULT: COULOMB BIPOLAR BUFFER SET TO 32 Mb
 INFORMATION **** READM2 **** NEW DEFAULT: EXCHANGE BIPOLAR BUFFER SET TO 32 Mb

 *******************************************************************************
 NEW DEFAULT: DFT INTEGRATION GRID INCREASED TO XLGRID
 NEW DEFAULT: DIIS ACCELERATOR ACTIVE
 USE KEYWORD NODIIS TO TURN IT OFF
 *******************************************************************************

 INFORMATION **** DFTD3_INPUT **** PERFORM DISPERSION CORRECTION DFT-D3(BJ) IN THE BECKE-JOHNSON DAMPING SCHEME

 PLEASE CITE:
 (1) DFT-D3 Reference
  S. Grimme, J. Antony, S. Ehrlich, and H. Krieg, J. Chem. Phys. 132 (2010), 154104
 (2) BJ-Damping Reference
  S. Grimme, S. Ehrlich, and L. Goerigk, J. Comput. Chem. 32 (2011), 1456-1465
 (3) General DFT-D Review
  S. Grimme, A. Hansen, J. G. Brandenburg, and C. Bannwarth,
  Chem. Rev. 116 (2016), 5105-5154

 INFORMATION **** TOLINTEG **** COULOMB AND EXCHANGE SERIES TOLERANCES MODIFIED
 INFORMATION **** BIPOSIZE **** COULOMB BIPOLAR BUFFER SET TO   100000000
 INFORMATION **** MAXCYCLE **** MAX NUMBER OF SCF CYCLES SET TO          50
 *******************************************************************************
 N. OF ATOMS PER CELL        62  COULOMB OVERLAP TOL         (T1) 10**  -12
 NUMBER OF SHELLS           412  COULOMB PENETRATION TOL     (T2) 10**  -12
 NUMBER OF AO              1056  EXCHANGE OVERLAP TOL        (T3) 10**   20
 N. OF ELECTRONS PER CELL   496  EXCHANGE PSEUDO OVP (F(G))  (T4) 10**   20
 CORE ELECTRONS PER CELL    236  EXCHANGE PSEUDO OVP (P(G))  (T5) 10**   20
 N. OF SYMMETRY OPERATORS     4  POLE ORDER IN MONO ZONE                  4
 *******************************************************************************
 TYPE OF CALCULATION :  RESTRICTED CLOSED SHELL
 KOHN-SHAM HAMILTONIAN

 (EXCHANGE)[CORRELATION] FUNCTIONAL:(PERDEW-BURKE-ERNZERHOF)[PERDEW-BURKE-ERNZERHOF]


 CAPPA:IS1  3;IS2  3;IS3  3; K PTS MONK NET   6; SYMMOPS:K SPACE   8;G SPACE   4

 *******************************************************************************
 MAX NUMBER OF SCF CYCLES      50  CONVERGENCE ON DELTAP        10**-16
 WEIGHT OF F(I) IN F(I+1)      30% CONVERGENCE ON ENERGY        10**- 6
 SHRINK. FACT.(MONKH.)    3  3  3  NUMBER OF K POINTS IN THE IBZ      6
 SHRINKING FACTOR(GILAT NET)    3  NUMBER OF K POINTS(GILAT NET)      6
 *******************************************************************************
 *** K POINTS COORDINATES (OBLIQUE COORDINATES IN UNITS OF IS =  3)
   1-R(  0  0  0)   2-C(  1  0  0)   3-C(  1  1  0)   4-C(  2  1  0)
   5-C(  2  1  1)   6-C(  2  2  1)

 DIRECT LATTICE VECTORS COMPON. (A.U.)     RECIP. LATTICE VECTORS COMPON. (A.U.) 
        X            Y            Z              X            Y            Z
  -10.2788610   10.2788610   12.0542955      0.0000000    0.3056363    0.2606202
   10.2788610  -10.2788610   12.0542955      0.3056363    0.0000000    0.2606202
   10.2788610   10.2788610  -12.0542955      0.3056363    0.3056363    0.0000000

 DISK SPACE FOR EIGENVECTORS (FTN 10)    12266496 REALS

 SYMMETRY ADAPTION OF THE BLOCH FUNCTIONS ENABLED
 TTTTTTTTTTTTTTTTTTTTTTTTTTTTTT gordsh1     TELAPSE        7.89 TCPU        0.10

 MATRIX SIZE: P(G) 1927728, F(G)  964680, P(G) IRR  243662, F(G) IRR  243662
 MAX G-VECTOR INDEX FOR 1- AND 2-ELECTRON INTEGRALS  59

 TTTTTTTTTTTTTTTTTTTTTTTTTTTTTT INPUT       TELAPSE        8.08 TCPU        0.29

 NEIGHBORS OF THE NON-EQUIVALENT ATOMS

 N = NUMBER OF NEIGHBORS AT DISTANCE R
    ATOM  N     R/ANG      R/AU   NEIGHBORS (ATOM LABELS AND CELL INDICES)
   1 H    1     1.0924     2.0644   21 C    0 1 0
   1 H    1     2.1544     4.0713   34 C    0 1 0
   1 H    1     2.1786     4.1169   13 C    0 1 0
   1 H    1     2.5140     4.7507    9 H    0 1 0
   1 H    1     2.7214     5.1428   17 C    0 0 0
   1 H    1     2.7380     5.1742   45 N    0 0 0

   5 H    1     1.0966     2.0722   29 C    0 0 0
   5 H    1     2.0654     3.9031   53 N    0 0 0
   5 H    1     2.1882     4.1350   13 C    0 0 0
   5 H    1     2.7413     5.1803   17 C    0-1 0
   5 H    1     2.7771     5.2480   37 N    0-1 0
   5 H    1     2.8389     5.3648   42 N    0 0 0

   9 H    1     1.0902     2.0603   34 C    0 0 0
   9 H    1     2.1709     4.1025   21 C    0 0 0
   9 H    1     2.1710     4.1025   25 C    0 0 0
   9 H    1     2.1719     4.1043   10 H    0-1-1
   9 H    1     2.5140     4.7507    1 H    0-1 0
   9 H    1     2.9346     5.5456   59 BR   0 0 0

  13 C    1     1.4048     2.6547   29 C    0 0 0
  13 C    1     1.4079     2.6606   21 C    0 0 0
  13 C    1     1.4451     2.7308   17 C    0-1 0
  13 C    1     2.1786     4.1169    1 H    0-1 0
  13 C    1     2.1882     4.1350    5 H    0 0 0
  13 C    1     2.4074     4.5494   53 N    0 0 0

  17 C    1     1.3599     2.5698   45 N    0 0 0
  17 C    1     1.3634     2.5765   37 N    0 0 0
  17 C    1     1.4451     2.7308   13 C    0 1 0
  17 C    1     2.1932     4.1445   41 N    1 1 1
  17 C    1     2.1963     4.1504   49 N    0 0 0
  17 C    1     2.4784     4.6835   29 C    0 1 0

  21 C    1     1.0924     2.0644    1 H    0-1 0
  21 C    1     1.3869     2.6209   34 C    0 0 0
  21 C    1     1.4079     2.6606   13 C    0 0 0
  21 C    1     2.1709     4.1025    9 H    0 0 0
  21 C    1     2.3886     4.5138   25 C    0 0 0
  21 C    1     2.4145     4.5627   29 C    0 0 0

  25 C    1     1.3292     2.5119   53 N    0 0 0
  25 C    1     1.4060     2.6569   34 C    0 0 0
  25 C    1     1.8863     3.5647   59 BR   0 0 0
  25 C    1     2.1710     4.1025    9 H    0 0 0
  25 C    1     2.2858     4.3196   29 C    0 0 0
  25 C    1     2.3886     4.5138   21 C    0 0 0

  29 C    1     1.0966     2.0722    5 H    0 0 0
  29 C    1     1.3379     2.5283   53 N    0 0 0
  29 C    1     1.4048     2.6547   13 C    0 0 0
  29 C    1     2.2858     4.3196   25 C    0 0 0
  29 C    1     2.4145     4.5627   21 C    0 0 0
  29 C    1     2.4784     4.6835   17 C    0-1 0

  33 C    1     1.0902     2.0603   10 H    0 0 0
  33 C    1     1.3869     2.6209   22 C    0 0 0
  33 C    1     1.4060     2.6569   26 C    0 0 0
  33 C    1     2.1544     4.0713    2 H   -1 0 0
  33 C    1     2.4082     4.5509   14 C    0 0 0
  33 C    1     2.4169     4.5674   54 N    0 0 0

  37 N    1     1.3634     2.5765   17 C    0 0 0
  37 N    1     1.3787     2.6053   41 N    1 1 1
  37 N    1     2.0716     3.9148   57 ZN   1 1 0
  37 N    1     2.1989     4.1554   49 N    0 0 0
  37 N    1     2.2155     4.1867   45 N    0 0 0
  37 N    1     2.4942     4.7134   13 C    0 1 0

  41 N    1     1.3166     2.4880   49 N   -1-1-1
  41 N    1     1.3787     2.6053   37 N   -1-1-1
  41 N    1     2.1891     4.1369   45 N   -1-1-1
  41 N    1     2.1932     4.1445   17 C   -1-1-1
  41 N    1     2.7988     5.2890   59 BR   0 0 0
  41 N    1     2.8389     5.3648    6 H    0 0 0

  45 N    1     1.3599     2.5698   17 C    0 0 0
  45 N    1     1.3760     2.6002   49 N    0 0 0
  45 N    1     2.0441     3.8627   58 ZN   0 0 0
  45 N    1     2.1891     4.1369   41 N    1 1 1
  45 N    1     2.2155     4.1867   37 N    0 0 0
  45 N    1     2.4971     4.7188   13 C    0 1 0

  49 N    1     1.3166     2.4880   41 N    1 1 1
  49 N    1     1.3760     2.6002   45 N    0 0 0
  49 N    1     2.1963     4.1504   17 C    0 0 0
  49 N    1     2.1989     4.1554   37 N    0 0 0
  49 N    1     2.8537     5.3928   58 ZN   0 0 0
  49 N    1     2.8612     5.4068    2 H    0 0 0

  53 N    1     1.3292     2.5119   25 C    0 0 0
  53 N    1     1.3379     2.5283   29 C    0 0 0
  53 N    1     2.0654     3.9031    5 H    0 0 0
  53 N    1     2.4074     4.5494   13 C    0 0 0
  53 N    1     2.4169     4.5674   34 C    0 0 0
  53 N    1     2.7682     5.2311   59 BR   0 0 0

  57 ZN   4     2.0716     3.9148   37 N   -1-1 0   38 N   -1 0 1   39 N    0 0 1
                                    40 N   -1 0 0
  57 ZN   4     2.8482     5.3824    5 H   -1 0 0    6 H    0 0 1    7 H   -1-1 0
                                     8 H   -1 0 1
  57 ZN   4     2.9211     5.5200   41 N    0 0 1   42 N   -1 0 0   43 N   -1 0 1
                                    44 N   -1-1 0
  57 ZN   4     3.2241     6.0927   17 C   -1-1 0   18 C   -1 0 1   19 C    0 0 1
                                    20 C   -1 0 0
  57 ZN   4     3.5083     6.6296   29 C   -1 0 0   30 C    0 0 1   31 C   -1-1 0
                                    32 C   -1 0 1
  57 ZN   4     3.7637     7.1124   13 C   -1 0 0   14 C    0 0 1   15 C   -1-1 0
                                    16 C   -1 0 1

  58 ZN   4     2.0441     3.8627   45 N    0 0 0   46 N    0 0 0   47 N    1 1 0
                                    48 N    1 1 0
  58 ZN   4     2.8537     5.3928   49 N    0 0 0   50 N    0 0 0   51 N    1 1 0
                                    52 N    1 1 0
  58 ZN   4     2.8998     5.4798    1 H    0 0 0    2 H    0 0 0    3 H    1 1 0
                                     4 H    1 1 0
  58 ZN   4     3.2128     6.0714   17 C    0 0 0   18 C    0 0 0   19 C    1 1 0
                                    20 C    1 1 0
  58 ZN   4     3.6248     6.8498   21 C    0 1 0   22 C    1 0 0   23 C    0 0-1
                                    24 C    1 1 1
  58 ZN   4     3.8034     7.1874   13 C    0 1 0   14 C    1 0 0   15 C    0 0-1
                                    16 C    1 1 1

  59 BR   1     1.8863     3.5647   25 C    0 0 0
  59 BR   1     2.7682     5.2311   53 N    0 0 0
  59 BR   1     2.7988     5.2890   41 N    0 0 0
  59 BR   1     2.8334     5.3543   34 C    0 0 0
  59 BR   1     2.9346     5.5456    9 H    0 0 0
  59 BR   1     3.1334     5.9213   49 N   -1-1-1


 SYMMETRY ALLOWED INTERNAL DEGREE(S) OF FREEDOM:  45
 TTTTTTTTTTTTTTTTTTTTTTTTTTTTTT SYMM        TELAPSE        8.11 TCPU        0.31
 TTTTTTTTTTTTTTTTTTTTTTTTTTTTTT INT_SCREEN  TELAPSE        8.12 TCPU        0.32
 INFORMATION **** EXCBUF **** EXCH. BIPO BUFFER: WORDS USED =           0

 DFT PARAMETERS

     ATOM       ELECTRONS   NET CHARGE   R(ANGSTROM)
   1   1  H       1.0000      0.0000     1.11000000
  13   6  C       6.0000      0.0000     0.77000000
  37   7  N       7.0000      0.0000     0.74000000
  57  30  ZN     30.0000      0.0000     1.37000000
  59  35  BR     35.0000      0.0000     1.14000000

 SIZE OF GRID=     454944
 TTTTTTTTTTTTTTTTTTTTTTTTTTTTTT MAKE_GRID2  TELAPSE        8.96 TCPU        1.16
 BECKE WEIGHT FUNCTION
 RADSAFE =     2.00
 TOLERANCES - DENSITY:10**- 6; POTENTIAL:10**- 9; GRID WGT:10**-14

 RADIAL INTEGRATION  - INTERVALS (POINTS,UPPER LIMIT):            1( 75,  4.0*R)

 ANGULAR INTEGRATION - INTERVALS (ACCURACY LEVEL [N. POINTS] UPPER LIMIT):
  1(  4[  86]   0.2)  2(  8[ 194]   0.5)  3( 12[ 350]   0.9)  4( 16[ 974]   3.5)
  5( 12[ 350]9999.0)
 TTTTTTTTTTTTTTTTTTTTTTTTTTTTTT INT_CALC    TELAPSE        9.00 TCPU        1.21
 EEEEEEEEEE INT_CALC TERMINATION  DATE 08 03 2024 TIME 02:57:38.4

 *******************************************************************************
 Z:\home\sanoj\Downloads\tmp_p\newconn.mol                                       
 CRYSTAL - SCF - TYPE OF CALCULATION :  RESTRICTED CLOSED SHELL
 *******************************************************************************

 CAPPA:IS1  3;IS2  3;IS3  3; K PTS MONK NET   6; SYMMOPS:K SPACE   8;G SPACE   4

 TTTTTTTTTTTTTTTTTTTTTTTTTTTTTT SDIK        TELAPSE        9.17 TCPU        1.37

 AAAAAAAAAAAAAAAAAAAAAAAAAAAAAAAAAAAAAAAAAAAAAAAAAAAAAAAAAAAAAAAAAAAAAAAAAAAAAAA
         ATOMIC WAVEFUNCTION(S)


 NUCLEAR CHARGE  1.0  SYMMETRY SPECIES            S
 N. ELECTRONS    1.0  NUMBER OF PRIMITIVE GTOS    4
                      NUMBER OF CONTRACTED GTOS   2
                      NUMBER OF CLOSED SHELLS     0
                      OPEN SHELL OCCUPATION       1

  ZNUC SCFIT  TOTAL HF ENERGY   KINETIC ENERGY   VIRIAL THEOREM ACCURACY
   1.0   1   -4.946643675E-01  4.917913167E-01 -2.005842012E+00  9.4E-17

 NUCLEAR CHARGE  6.0  SYMMETRY SPECIES            S    P
 N. ELECTRONS    6.0  NUMBER OF PRIMITIVE GTOS    7    4
                      NUMBER OF CONTRACTED GTOS   3    2
                      NUMBER OF CLOSED SHELLS     2    0
                      OPEN SHELL OCCUPATION       0    2

  ZNUC SCFIT  TOTAL HF ENERGY   KINETIC ENERGY   VIRIAL THEOREM ACCURACY
   6.0   6   -3.750912652E+01  3.905246519E+01 -1.960480378E+00  3.7E-06

 NUCLEAR CHARGE  7.0  SYMMETRY SPECIES            S    P
 N. ELECTRONS    7.0  NUMBER OF PRIMITIVE GTOS    7    4
                      NUMBER OF CONTRACTED GTOS   3    2
                      NUMBER OF CLOSED SHELLS     2    0
                      OPEN SHELL OCCUPATION       0    3

  ZNUC SCFIT  TOTAL HF ENERGY   KINETIC ENERGY   VIRIAL THEOREM ACCURACY
   7.0   9   -5.432196661E+01  5.425066284E+01 -2.001314339E+00  1.2E-06

 NUCLEAR CHARGE 30.0  SYMMETRY SPECIES            S    P    D
 N. ELECTRONS   30.0  NUMBER OF PRIMITIVE GTOS   14    9    5
                      NUMBER OF CONTRACTED GTOS   5    3    2
                      NUMBER OF CLOSED SHELLS     4    2    1
                      OPEN SHELL OCCUPATION       0    0    0

  ZNUC SCFIT  TOTAL HF ENERGY   KINETIC ENERGY   VIRIAL THEOREM ACCURACY
  30.0  10   -1.777404290E+03  1.777325716E+03 -2.000044209E+00  2.5E-06

 NUCLEAR CHARGE 35.0  SYMMETRY SPECIES            S    P    D
 N. ELECTRONS   35.0  NUMBER OF PRIMITIVE GTOS   14   10    7
                      NUMBER OF CONTRACTED GTOS   5    4    4
                      NUMBER OF CLOSED SHELLS     4    2    1
                      OPEN SHELL OCCUPATION       0    5    0

  ZNUC SCFIT  TOTAL HF ENERGY   KINETIC ENERGY   VIRIAL THEOREM ACCURACY
  35.0  13   -2.572060514E+03  2.572021521E+03 -2.000015161E+00  3.6E-06

 AAAAAAAAAAAAAAAAAAAAAAAAAAAAAAAAAAAAAAAAAAAAAAAAAAAAAAAAAAAAAAAAAAAAAAAAAAAAAAA

 TOTAL ATOMIC CHARGES:
   1.0000000   1.0000000   1.0000000   1.0000000   1.0000000   1.0000000
   1.0000000   1.0000000   1.0000000   1.0000000   1.0000000   1.0000000
   6.0000000   6.0000000   6.0000000   6.0000000   6.0000000   6.0000000
   6.0000000   6.0000000   6.0000000   6.0000000   6.0000000   6.0000000
   6.0000000   6.0000000   6.0000000   6.0000000   6.0000000   6.0000000
   6.0000000   6.0000000   6.0000000   6.0000000   6.0000000   6.0000000
   7.0000000   7.0000000   7.0000000   7.0000000   7.0000000   7.0000000
   7.0000000   7.0000000   7.0000000   7.0000000   7.0000000   7.0000000
   7.0000000   7.0000000   7.0000000   7.0000000   7.0000000   7.0000000
   7.0000000   7.0000000  30.0000000  30.0000000  35.0000000  35.0000000
  35.0000000  35.0000000
 TTTTTTTTTTTTTTTTTTTTTTTTTTTTTT MOQGAD      TELAPSE       10.03 TCPU        2.04
 TTTTTTTTTTTTTTTTTTTTTTTTTTTTTT SHELLXN     TELAPSE       49.96 TCPU       27.50
 TTTTTTTTTTTTTTTTTTTTTTTTTTTTTT MONMO3      TELAPSE       62.45 TCPU       39.95
 NUMERICALLY INTEGRATED DENSITY    496.0001227989
 TTTTTTTTTTTTTTTTTTTTTTTTTTTTTT NUMDFT      TELAPSE       63.08 TCPU       40.56
 CYC   0 ETOT(AU) -1.586800168802E+04 DETOT -1.59E+04 tst  0.00E+00 PX  1.00E+00
 TTTTTTTTTTTTTTTTTTTTTTTTTTTTTT DIIS        TELAPSE       63.13 TCPU       40.62
 TTTTTTTTTTTTTTTTTTTTTTTTTTTTTT FDIK        TELAPSE       94.97 TCPU       57.67
 INSULATING STATE
 TOP OF VALENCE BANDS -    BAND    248; K    4; EIG -1.3533797E-01 AU
 TOP OF VALENCE BANDS -    BAND    248; K    1; EIG -1.3664094E-01 AU
 BOTTOM OF VIRTUAL BANDS - BAND    249; K    4; EIG -1.0285524E-01 AU
 DIRECT ENERGY BAND GAP:   0.8839 eV
 BOTTOM OF VIRTUAL BANDS - BAND    249; K    1; EIG -1.0252706E-01 AU
 TTTTTTTTTTTTTTTTTTTTTTTTTTTTTT PDIG        TELAPSE       95.53 TCPU       58.24
 TOTAL ATOMIC CHARGES:
   1.2702711   1.2702711   1.2702711   1.2702711   1.3168126   1.3168126
   1.3168126   1.3168126   1.0810717   1.0810717   1.0810717   1.0810717
   6.0601021   6.0601021   6.0601021   6.0601021   5.4426778   5.4426778
   5.4426778   5.4426778   6.0626639   6.0626639   6.0626639   6.0626639
   5.2915921   5.2915921   5.2915921   5.2915921   5.7709116   5.7709116
   5.7709116   5.7709116   6.1666978   6.1666978   6.1666978   6.1666978
   7.3921584   7.3921584   7.3921584   7.3921584   7.1508433   7.1508433
   7.1508433   7.1508433   7.3862891   7.3862891   7.3862891   7.3862891
   7.1545643   7.1545643   7.1545643   7.1545643   7.5551448   7.5551448
   7.5551448   7.5551448  27.7875434  27.8093152  34.9989848  34.9989848
  34.9989848  34.9989848
 TTTTTTTTTTTTTTTTTTTTTTTTTTTTTT MOQGAD      TELAPSE       95.56 TCPU       58.26
 TTTTTTTTTTTTTTTTTTTTTTTTTTTTTT SHELLXN     TELAPSE      127.31 TCPU       88.78
 TTTTTTTTTTTTTTTTTTTTTTTTTTTTTT MONMO3      TELAPSE      133.76 TCPU       95.22
 NUMERICALLY INTEGRATED DENSITY    496.0000922467
 TTTTTTTTTTTTTTTTTTTTTTTTTTTTTT NUMDFT      TELAPSE      135.69 TCPU       97.13
 CYC   1 ETOT(AU) -1.586327124852E+04 DETOT  4.73E+00 tst  0.00E+00 PX  1.00E+00
 TTTTTTTTTTTTTTTTTTTTTTTTTTTTTT DIIS        TELAPSE      135.80 TCPU       97.25
 DIIS TEST: 0.10874E+02 AT SCF   CYCLE   1 - MIX   30 %
 TTTTTTTTTTTTTTTTTTTTTTTTTTTTTT FDIK        TELAPSE      145.80 TCPU      103.36
 INSULATING STATE
 TOP OF VALENCE BANDS -    BAND    248; K    2; EIG -1.5307174E-01 AU
 TOP OF VALENCE BANDS -    BAND    248; K    1; EIG -1.5331134E-01 AU
 BOTTOM OF VIRTUAL BANDS - BAND    249; K    5; EIG -1.2259722E-01 AU
 INDIRECT ENERGY BAND GAP:   0.8293 eV
 BOTTOM OF VIRTUAL BANDS - BAND    249; K    1; EIG -1.1835846E-01 AU
 TTTTTTTTTTTTTTTTTTTTTTTTTTTTTT PDIG        TELAPSE      146.35 TCPU      103.91
 TOTAL ATOMIC CHARGES:
   1.2371249   1.2371249   1.2371249   1.2371249   1.3217975   1.3217975
   1.3217975   1.3217975   1.0594549   1.0594549   1.0594549   1.0594549
   6.0837834   6.0837834   6.0837834   6.0837834   6.1625381   6.1625381
   6.1625381   6.1625381   6.2144900   6.2144900   6.2144900   6.2144900
   6.3300950   6.3300950   6.3300950   6.3300950   6.2375259   6.2375259
   6.2375259   6.2375259   5.9437254   5.9437254   5.9437254   5.9437254
   6.9512259   6.9512259   6.9512259   6.9512259   6.8674394   6.8674394
   6.8674394   6.8674394   6.9168871   6.9168871   6.9168871   6.9168871
   6.8339970   6.8339970   6.8339970   6.8339970   6.1091564   6.1091564
   6.1091564   6.1091564  29.6872710  29.6650539  34.8926780  34.8926780
  34.8926780  34.8926780
 TTTTTTTTTTTTTTTTTTTTTTTTTTTTTT MOQGAD      TELAPSE      146.38 TCPU      103.93
 TTTTTTTTTTTTTTTTTTTTTTTTTTTTTT SHELLXN     TELAPSE      179.45 TCPU      134.64
 TTTTTTTTTTTTTTTTTTTTTTTTTTTTTT MONMO3      TELAPSE      183.92 TCPU      139.10
 NUMERICALLY INTEGRATED DENSITY    496.0000949463
 TTTTTTTTTTTTTTTTTTTTTTTTTTTTTT NUMDFT      TELAPSE      185.76 TCPU      140.92
 CYC   2 ETOT(AU) -1.586244696573E+04 DETOT  8.24E-01 tst  4.08E-02 PX  7.31E-01
 TTTTTTTTTTTTTTTTTTTTTTTTTTTTTT DIIS        TELAPSE      185.87 TCPU      141.04
 DIIS TEST: 0.14212E+02 AT SCF   CYCLE   2 - DIIS ACTIVE - HISTORY:     2 CYCLES
 TTTTTTTTTTTTTTTTTTTTTTTTTTTTTT FDIK        TELAPSE      198.92 TCPU      152.08
 INSULATING STATE
 TOP OF VALENCE BANDS -    BAND    248; K    4; EIG -2.3478791E-01 AU
 TOP OF VALENCE BANDS -    BAND    248; K    1; EIG -2.3537888E-01 AU
 BOTTOM OF VIRTUAL BANDS - BAND    249; K    1; EIG -1.2024517E-01 AU
 INDIRECT ENERGY BAND GAP:   3.1169 eV
 TTTTTTTTTTTTTTTTTTTTTTTTTTTTTT PDIG        TELAPSE      199.48 TCPU      152.64
 TOTAL ATOMIC CHARGES:
   1.1928750   1.1928750   1.1928750   1.1928750   1.2403711   1.2403711
   1.2403711   1.2403711   1.0233321   1.0233321   1.0233321   1.0233321
   5.8845529   5.8845529   5.8845529   5.8845529   5.7015841   5.7015841
   5.7015841   5.7015841   5.9976399   5.9976399   5.9976399   5.9976399
   5.7582027   5.7582027   5.7582027   5.7582027   5.9740144   5.9740144
   5.9740144   5.9740144   5.9846350   5.9846350   5.9846350   5.9846350
   7.0921589   7.0921589   7.0921589   7.0921589   7.1283334   7.1283334
   7.1283334   7.1283334   7.0937728   7.0937728   7.0937728   7.0937728
   7.0971367   7.0971367   7.0971367   7.0971367   7.4366294   7.4366294
   7.4366294   7.4366294  29.0022915  29.0160788  34.8901690  34.8901690
  34.8901690  34.8901690
 TTTTTTTTTTTTTTTTTTTTTTTTTTTTTT MOQGAD      TELAPSE      199.50 TCPU      152.66
 TTTTTTTTTTTTTTTTTTTTTTTTTTTTTT SHELLXN     TELAPSE      234.52 TCPU      183.37
 TTTTTTTTTTTTTTTTTTTTTTTTTTTTTT MONMO3      TELAPSE      239.02 TCPU      187.85
 NUMERICALLY INTEGRATED DENSITY    496.0000951867
 TTTTTTTTTTTTTTTTTTTTTTTTTTTTTT NUMDFT      TELAPSE      240.85 TCPU      189.67
 CYC   3 ETOT(AU) -1.586483426804E+04 DETOT -2.39E+00 tst  6.68E-03 PX  6.36E-01
 TTTTTTTTTTTTTTTTTTTTTTTTTTTTTT DIIS        TELAPSE      240.96 TCPU      189.78
 DIIS TEST: 0.24243E+01 AT SCF   CYCLE   3 - DIIS ACTIVE - HISTORY:     3 CYCLES
 TTTTTTTTTTTTTTTTTTTTTTTTTTTTTT FDIK        TELAPSE      248.71 TCPU      195.38
 INSULATING STATE
 TOP OF VALENCE BANDS -    BAND    248; K    2; EIG -2.1783493E-01 AU
 TOP OF VALENCE BANDS -    BAND    248; K    1; EIG -2.1792234E-01 AU
 BOTTOM OF VIRTUAL BANDS - BAND    249; K    3; EIG -1.2449372E-01 AU
 INDIRECT ENERGY BAND GAP:   2.5399 eV
 BOTTOM OF VIRTUAL BANDS - BAND    249; K    1; EIG -1.1913411E-01 AU
 TTTTTTTTTTTTTTTTTTTTTTTTTTTTTT PDIG        TELAPSE      249.27 TCPU      195.93
 TOTAL ATOMIC CHARGES:
   1.1843799   1.1843799   1.1843799   1.1843799   1.2621960   1.2621960
   1.2621960   1.2621960   1.0431516   1.0431516   1.0431516   1.0431516
   6.0777440   6.0777440   6.0777440   6.0777440   5.7300025   5.7300025
   5.7300025   5.7300025   6.2407260   6.2407260   6.2407260   6.2407260
   5.6478637   5.6478637   5.6478637   5.6478637   5.9430395   5.9430395
   5.9430395   5.9430395   6.1310600   6.1310600   6.1310600   6.1310600
   7.2199574   7.2199574   7.2199574   7.2199574   7.0245808   7.0245808
   7.0245808   7.0245808   7.2229220   7.2229220   7.2229220   7.2229220
   7.0472013   7.0472013   7.0472013   7.0472013   6.9246131   6.9246131
   6.9246131   6.9246131  28.7194164  28.7465783  34.9340637  34.9340637
  34.9340637  34.9340637
 TTTTTTTTTTTTTTTTTTTTTTTTTTTTTT MOQGAD      TELAPSE      249.29 TCPU      195.96
 TTTTTTTTTTTTTTTTTTTTTTTTTTTTTT SHELLXN     TELAPSE      282.26 TCPU      226.69
 TTTTTTTTTTTTTTTTTTTTTTTTTTTTTT MONMO3      TELAPSE      286.76 TCPU      231.17
 NUMERICALLY INTEGRATED DENSITY    496.0000964346
 TTTTTTTTTTTTTTTTTTTTTTTTTTTTTT NUMDFT      TELAPSE      288.59 TCPU      232.99
 CYC   4 ETOT(AU) -1.586500103893E+04 DETOT -1.67E-01 tst  1.88E-03 PX  1.52E-01
 TTTTTTTTTTTTTTTTTTTTTTTTTTTTTT DIIS        TELAPSE      288.70 TCPU      233.10
 DIIS TEST: 0.10673E+01 AT SCF   CYCLE   4 - DIIS ACTIVE - HISTORY:     4 CYCLES
 TTTTTTTTTTTTTTTTTTTTTTTTTTTTTT FDIK        TELAPSE      296.67 TCPU      238.95
 INSULATING STATE
 TOP OF VALENCE BANDS -    BAND    248; K    4; EIG -2.3739098E-01 AU
 TOP OF VALENCE BANDS -    BAND    248; K    1; EIG -2.3967423E-01 AU
 BOTTOM OF VIRTUAL BANDS - BAND    249; K    3; EIG -1.2414068E-01 AU
 INDIRECT ENERGY BAND GAP:   3.0817 eV
 BOTTOM OF VIRTUAL BANDS - BAND    249; K    1; EIG -1.1897984E-01 AU
 TTTTTTTTTTTTTTTTTTTTTTTTTTTTTT PDIG        TELAPSE      297.23 TCPU      239.51
 TOTAL ATOMIC CHARGES:
   1.1940779   1.1940779   1.1940779   1.1940779   1.2538326   1.2538326
   1.2538326   1.2538326   1.0389558   1.0389558   1.0389558   1.0389558
   6.0146527   6.0146527   6.0146527   6.0146527   5.7469652   5.7469652
   5.7469652   5.7469652   6.1293726   6.1293726   6.1293726   6.1293726
   5.8058672   5.8058672   5.8058672   5.8058672   6.0154018   6.0154018
   6.0154018   6.0154018   6.0613423   6.0613423   6.0613423   6.0613423
   7.1850428   7.1850428   7.1850428   7.1850428   7.0668863   7.0668863
   7.0668863   7.0668863   7.1211876   7.1211876   7.1211876   7.1211876
   7.0169286   7.0169286   7.0169286   7.0169286   7.0494127   7.0494127
   7.0494127   7.0494127  28.7837087  28.7895814  34.9067514  34.9067514
  34.9067514  34.9067514
 TTTTTTTTTTTTTTTTTTTTTTTTTTTTTT MOQGAD      TELAPSE      297.25 TCPU      239.53
 TTTTTTTTTTTTTTTTTTTTTTTTTTTTTT SHELLXN     TELAPSE      330.34 TCPU      270.24
 TTTTTTTTTTTTTTTTTTTTTTTTTTTTTT MONMO3      TELAPSE      334.72 TCPU      274.60
 NUMERICALLY INTEGRATED DENSITY    496.0000941957
 TTTTTTTTTTTTTTTTTTTTTTTTTTTTTT NUMDFT      TELAPSE      336.60 TCPU      276.47
 CYC   5 ETOT(AU) -1.586514501902E+04 DETOT -1.44E-01 tst  3.44E-04 PX  9.59E-02
 TTTTTTTTTTTTTTTTTTTTTTTTTTTTTT DIIS        TELAPSE      336.72 TCPU      276.59
 DIIS TEST: 0.85852E-01 AT SCF   CYCLE   5 - DIIS ACTIVE - HISTORY:     5 CYCLES
 TTTTTTTTTTTTTTTTTTTTTTTTTTTTTT FDIK        TELAPSE      344.03 TCPU      281.71
 INSULATING STATE
 TOP OF VALENCE BANDS -    BAND    248; K    4; EIG -2.3577705E-01 AU
 TOP OF VALENCE BANDS -    BAND    248; K    1; EIG -2.3807387E-01 AU
 BOTTOM OF VIRTUAL BANDS - BAND    249; K    3; EIG -1.2360547E-01 AU
 INDIRECT ENERGY BAND GAP:   3.0523 eV
 BOTTOM OF VIRTUAL BANDS - BAND    249; K    1; EIG -1.1899902E-01 AU
 TTTTTTTTTTTTTTTTTTTTTTTTTTTTTT PDIG        TELAPSE      344.59 TCPU      282.26
 TOTAL ATOMIC CHARGES:
   1.1958354   1.1958354   1.1958354   1.1958354   1.2549693   1.2549693
   1.2549693   1.2549693   1.0400581   1.0400581   1.0400581   1.0400581
   6.0246170   6.0246170   6.0246170   6.0246170   5.7456866   5.7456866
   5.7456866   5.7456866   6.1531443   6.1531443   6.1531443   6.1531443
   5.7403792   5.7403792   5.7403792   5.7403792   5.9790320   5.9790320
   5.9790320   5.9790320   6.0466587   6.0466587   6.0466587   6.0466587
   7.1315344   7.1315344   7.1315344   7.1315344   7.0354207   7.0354207
   7.0354207   7.0354207   7.1756854   7.1756854   7.1756854   7.1756854
   7.0687279   7.0687279   7.0687279   7.0687279   7.0732339   7.0732339
   7.0732339   7.0732339  28.8121978  28.8297057  34.9245414  34.9245414
  34.9245414  34.9245414
 TTTTTTTTTTTTTTTTTTTTTTTTTTTTTT MOQGAD      TELAPSE      344.62 TCPU      282.29
 TTTTTTTTTTTTTTTTTTTTTTTTTTTTTT SHELLXN     TELAPSE      379.78 TCPU      312.92
 TTTTTTTTTTTTTTTTTTTTTTTTTTTTTT MONMO3      TELAPSE      383.29 TCPU      316.41
 NUMERICALLY INTEGRATED DENSITY    496.0000957891
 TTTTTTTTTTTTTTTTTTTTTTTTTTTTTT NUMDFT      TELAPSE      385.16 TCPU      318.27
 CYC   6 ETOT(AU) -1.586515277690E+04 DETOT -7.76E-03 tst  4.70E-05 PX  2.77E-02
 TTTTTTTTTTTTTTTTTTTTTTTTTTTTTT DIIS        TELAPSE      385.28 TCPU      318.40
 DIIS TEST: 0.37427E-01 AT SCF   CYCLE   6 - DIIS ACTIVE - HISTORY:     6 CYCLES
 TTTTTTTTTTTTTTTTTTTTTTTTTTTTTT FDIK        TELAPSE      392.78 TCPU      323.72
 INSULATING STATE
 TOP OF VALENCE BANDS -    BAND    248; K    4; EIG -2.3515335E-01 AU
 TOP OF VALENCE BANDS -    BAND    248; K    1; EIG -2.3707702E-01 AU
 BOTTOM OF VIRTUAL BANDS - BAND    249; K    3; EIG -1.2380309E-01 AU
 INDIRECT ENERGY BAND GAP:   3.0300 eV
 BOTTOM OF VIRTUAL BANDS - BAND    249; K    1; EIG -1.1879059E-01 AU
 TTTTTTTTTTTTTTTTTTTTTTTTTTTTTT PDIG        TELAPSE      393.34 TCPU      324.27
 TOTAL ATOMIC CHARGES:
   1.1936187   1.1936187   1.1936187   1.1936187   1.2576495   1.2576495
   1.2576495   1.2576495   1.0366602   1.0366602   1.0366602   1.0366602
   6.0155388   6.0155388   6.0155388   6.0155388   5.7511797   5.7511797
   5.7511797   5.7511797   6.1445959   6.1445959   6.1445959   6.1445959
   5.7457562   5.7457562   5.7457562   5.7457562   5.9839906   5.9839906
   5.9839906   5.9839906   6.0576381   6.0576381   6.0576381   6.0576381
   7.1796543   7.1796543   7.1796543   7.1796543   7.0748884   7.0748884
   7.0748884   7.0748884   7.1320236   7.1320236   7.1320236   7.1320236
   7.0287858   7.0287858   7.0287858   7.0287858   7.0644403   7.0644403
   7.0644403   7.0644403  28.8185965  28.8313180  34.9211014  34.9211014
  34.9211014  34.9211014
 TTTTTTTTTTTTTTTTTTTTTTTTTTTTTT MOQGAD      TELAPSE      393.36 TCPU      324.29
 TTTTTTTTTTTTTTTTTTTTTTTTTTTTTT SHELLXN     TELAPSE      428.43 TCPU      355.01
 TTTTTTTTTTTTTTTTTTTTTTTTTTTTTT MONMO3      TELAPSE      432.83 TCPU      359.39
 NUMERICALLY INTEGRATED DENSITY    496.0000949657
 TTTTTTTTTTTTTTTTTTTTTTTTTTTTTT NUMDFT      TELAPSE      434.68 TCPU      361.23
 CYC   7 ETOT(AU) -1.586515575150E+04 DETOT -2.97E-03 tst  2.48E-05 PX  1.40E-02
 TTTTTTTTTTTTTTTTTTTTTTTTTTTTTT DIIS        TELAPSE      434.80 TCPU      361.35
 DIIS TEST: 0.17046E-01 AT SCF   CYCLE   7 - DIIS ACTIVE - HISTORY:     7 CYCLES
 TTTTTTTTTTTTTTTTTTTTTTTTTTTTTT FDIK        TELAPSE      442.49 TCPU      366.84
 INSULATING STATE
 TOP OF VALENCE BANDS -    BAND    248; K    4; EIG -2.3550536E-01 AU
 TOP OF VALENCE BANDS -    BAND    248; K    1; EIG -2.3753921E-01 AU
 BOTTOM OF VIRTUAL BANDS - BAND    249; K    3; EIG -1.2393883E-01 AU
 INDIRECT ENERGY BAND GAP:   3.0359 eV
 BOTTOM OF VIRTUAL BANDS - BAND    249; K    1; EIG -1.1917683E-01 AU
 TTTTTTTTTTTTTTTTTTTTTTTTTTTTTT PDIG        TELAPSE      443.05 TCPU      367.40
 TOTAL ATOMIC CHARGES:
   1.1937017   1.1937017   1.1937017   1.1937017   1.2547904   1.2547904
   1.2547904   1.2547904   1.0352620   1.0352620   1.0352620   1.0352620
   6.0110905   6.0110905   6.0110905   6.0110905   5.7525274   5.7525274
   5.7525274   5.7525274   6.1438209   6.1438209   6.1438209   6.1438209
   5.7692124   5.7692124   5.7692124   5.7692124   5.9875329   5.9875329
   5.9875329   5.9875329   6.0584464   6.0584464   6.0584464   6.0584464
   7.1578738   7.1578738   7.1578738   7.1578738   7.0510535   7.0510535
   7.0510535   7.0510535   7.1491925   7.1491925   7.1491925   7.1491925
   7.0467719   7.0467719   7.0467719   7.0467719   7.0624496   7.0624496
   7.0624496   7.0624496  28.8170865  28.8316074  34.9141005  34.9141005
  34.9141005  34.9141005
 TTTTTTTTTTTTTTTTTTTTTTTTTTTTTT MOQGAD      TELAPSE      443.08 TCPU      367.42
 TTTTTTTTTTTTTTTTTTTTTTTTTTTTTT SHELLXN     TELAPSE      476.10 TCPU      398.12
 TTTTTTTTTTTTTTTTTTTTTTTTTTTTTT MONMO3      TELAPSE      480.52 TCPU      402.53
 NUMERICALLY INTEGRATED DENSITY    496.0000948990
 TTTTTTTTTTTTTTTTTTTTTTTTTTTTTT NUMDFT      TELAPSE      482.39 TCPU      404.39
 CYC   8 ETOT(AU) -1.586515809044E+04 DETOT -2.34E-03 tst  4.89E-06 PX  7.92E-03
 TTTTTTTTTTTTTTTTTTTTTTTTTTTTTT DIIS        TELAPSE      482.52 TCPU      404.51
 DIIS TEST: 0.16263E-02 AT SCF   CYCLE   8 - DIIS ACTIVE - HISTORY:     8 CYCLES
 TTTTTTTTTTTTTTTTTTTTTTTTTTTTTT FDIK        TELAPSE      491.57 TCPU      409.24
 INSULATING STATE
 TOP OF VALENCE BANDS -    BAND    248; K    4; EIG -2.3560088E-01 AU
 TOP OF VALENCE BANDS -    BAND    248; K    1; EIG -2.3768478E-01 AU
 BOTTOM OF VIRTUAL BANDS - BAND    249; K    3; EIG -1.2380661E-01 AU
 INDIRECT ENERGY BAND GAP:   3.0421 eV
 BOTTOM OF VIRTUAL BANDS - BAND    249; K    1; EIG -1.1903029E-01 AU
 TTTTTTTTTTTTTTTTTTTTTTTTTTTTTT PDIG        TELAPSE      492.13 TCPU      409.79
 TOTAL ATOMIC CHARGES:
   1.1932514   1.1932514   1.1932514   1.1932514   1.2538707   1.2538707
   1.2538707   1.2538707   1.0367656   1.0367656   1.0367656   1.0367656
   6.0187353   6.0187353   6.0187353   6.0187353   5.7489259   5.7489259
   5.7489259   5.7489259   6.1453717   6.1453717   6.1453717   6.1453717
   5.7571234   5.7571234   5.7571234   5.7571234   5.9915068   5.9915068
   5.9915068   5.9915068   6.0513413   6.0513413   6.0513413   6.0513413
   7.1592000   7.1592000   7.1592000   7.1592000   7.0559623   7.0559623
   7.0559623   7.0559623   7.1486872   7.1486872   7.1486872   7.1486872
   7.0413787   7.0413787   7.0413787   7.0413787   7.0666484   7.0666484
   7.0666484   7.0666484  28.8210309  28.8346322  34.9173156  34.9173156
  34.9173156  34.9173156
 TTTTTTTTTTTTTTTTTTTTTTTTTTTTTT MOQGAD      TELAPSE      492.15 TCPU      409.81
 TTTTTTTTTTTTTTTTTTTTTTTTTTTTTT SHELLXN     TELAPSE      525.30 TCPU      440.53
 TTTTTTTTTTTTTTTTTTTTTTTTTTTTTT MONMO3      TELAPSE      529.68 TCPU      444.90
 NUMERICALLY INTEGRATED DENSITY    496.0000951384
 TTTTTTTTTTTTTTTTTTTTTTTTTTTTTT NUMDFT      TELAPSE      531.55 TCPU      446.77
 CYC   9 ETOT(AU) -1.586515823728E+04 DETOT -1.47E-04 tst  7.49E-07 PX  3.23E-03
 TTTTTTTTTTTTTTTTTTTTTTTTTTTTTT DIIS        TELAPSE      531.68 TCPU      446.90
 DIIS TEST: 0.59754E-03 AT SCF   CYCLE   9 - DIIS ACTIVE - HISTORY:     9 CYCLES
 TTTTTTTTTTTTTTTTTTTTTTTTTTTTTT FDIK        TELAPSE      538.79 TCPU      451.83
 INSULATING STATE
 TOP OF VALENCE BANDS -    BAND    248; K    4; EIG -2.3552419E-01 AU
 TOP OF VALENCE BANDS -    BAND    248; K    1; EIG -2.3763157E-01 AU
 BOTTOM OF VIRTUAL BANDS - BAND    249; K    3; EIG -1.2374745E-01 AU
 INDIRECT ENERGY BAND GAP:   3.0416 eV
 BOTTOM OF VIRTUAL BANDS - BAND    249; K    1; EIG -1.1890897E-01 AU
 TTTTTTTTTTTTTTTTTTTTTTTTTTTTTT PDIG        TELAPSE      539.35 TCPU      452.38
 TOTAL ATOMIC CHARGES:
   1.1933193   1.1933193   1.1933193   1.1933193   1.2547075   1.2547075
   1.2547075   1.2547075   1.0362897   1.0362897   1.0362897   1.0362897
   6.0143824   6.0143824   6.0143824   6.0143824   5.7487885   5.7487885
   5.7487885   5.7487885   6.1451650   6.1451650   6.1451650   6.1451650
   5.7603803   5.7603803   5.7603803   5.7603803   5.9852311   5.9852311
   5.9852311   5.9852311   6.0568668   6.0568668   6.0568668   6.0568668
   7.1600905   7.1600905   7.1600905   7.1600905   7.0552099   7.0552099
   7.0552099   7.0552099   7.1476253   7.1476253   7.1476253   7.1476253
   7.0448259   7.0448259   7.0448259   7.0448259   7.0664676   7.0664676
   7.0664676   7.0664676  28.8201472  28.8343719  34.9170205  34.9170205
  34.9170205  34.9170205
 TTTTTTTTTTTTTTTTTTTTTTTTTTTTTT MOQGAD      TELAPSE      539.37 TCPU      452.41
 TTTTTTTTTTTTTTTTTTTTTTTTTTTTTT SHELLXN     TELAPSE      572.47 TCPU      483.12
 TTTTTTTTTTTTTTTTTTTTTTTTTTTTTT MONMO3      TELAPSE      576.84 TCPU      487.47
 NUMERICALLY INTEGRATED DENSITY    496.0000950505
 TTTTTTTTTTTTTTTTTTTTTTTTTTTTTT NUMDFT      TELAPSE      578.67 TCPU      489.29
 CYC  10 ETOT(AU) -1.586515829191E+04 DETOT -5.46E-05 tst  3.80E-07 PX  2.05E-03
 TTTTTTTTTTTTTTTTTTTTTTTTTTTTTT DIIS        TELAPSE      578.80 TCPU      489.42
 DIIS TEST: 0.19645E-03 AT SCF   CYCLE  10 - DIIS ACTIVE - HISTORY:    10 CYCLES
 TTTTTTTTTTTTTTTTTTTTTTTTTTTTTT FDIK        TELAPSE      584.32 TCPU      494.75
 INSULATING STATE
 TOP OF VALENCE BANDS -    BAND    248; K    4; EIG -2.3558226E-01 AU
 TOP OF VALENCE BANDS -    BAND    248; K    1; EIG -2.3767474E-01 AU
 BOTTOM OF VIRTUAL BANDS - BAND    249; K    3; EIG -1.2387524E-01 AU
 INDIRECT ENERGY BAND GAP:   3.0397 eV
 BOTTOM OF VIRTUAL BANDS - BAND    249; K    1; EIG -1.1909455E-01 AU
 TTTTTTTTTTTTTTTTTTTTTTTTTTTTTT PDIG        TELAPSE      584.88 TCPU      495.31
 TOTAL ATOMIC CHARGES:
   1.1933416   1.1933416   1.1933416   1.1933416   1.2543569   1.2543569
   1.2543569   1.2543569   1.0361490   1.0361490   1.0361490   1.0361490
   6.0150231   6.0150231   6.0150231   6.0150231   5.7508936   5.7508936
   5.7508936   5.7508936   6.1447804   6.1447804   6.1447804   6.1447804
   5.7606123   5.7606123   5.7606123   5.7606123   5.9884816   5.9884816
   5.9884816   5.9884816   6.0542428   6.0542428   6.0542428   6.0542428
   7.1593123   7.1593123   7.1593123   7.1593123   7.0544383   7.0544383
   7.0544383   7.0544383   7.1486567   7.1486567   7.1486567   7.1486567
   7.0440993   7.0440993   7.0440993   7.0440993   7.0658083   7.0658083
   7.0658083   7.0658083  28.8188516  28.8328016  34.9168903  34.9168903
  34.9168903  34.9168903
 TTTTTTTTTTTTTTTTTTTTTTTTTTTTTT MOQGAD      TELAPSE      584.90 TCPU      495.33
 TTTTTTTTTTTTTTTTTTTTTTTTTTTTTT SHELLXN     TELAPSE      617.94 TCPU      526.01
 TTTTTTTTTTTTTTTTTTTTTTTTTTTTTT MONMO3      TELAPSE      622.62 TCPU      530.68
 NUMERICALLY INTEGRATED DENSITY    496.0000950543
 TTTTTTTTTTTTTTTTTTTTTTTTTTTTTT NUMDFT      TELAPSE      624.48 TCPU      532.53
 CYC  11 ETOT(AU) -1.586515831534E+04 DETOT -2.34E-05 tst  8.42E-08 PX  1.00E-03
 TTTTTTTTTTTTTTTTTTTTTTTTTTTTTT DIIS        TELAPSE      624.61 TCPU      532.66
 DIIS TEST: 0.24650E-04 AT SCF   CYCLE  11 - DIIS ACTIVE - HISTORY:    11 CYCLES
 TTTTTTTTTTTTTTTTTTTTTTTTTTTTTT FDIK        TELAPSE      634.37 TCPU      538.19
 INSULATING STATE
 TOP OF VALENCE BANDS -    BAND    248; K    4; EIG -2.3559061E-01 AU
 TOP OF VALENCE BANDS -    BAND    248; K    1; EIG -2.3769143E-01 AU
 BOTTOM OF VIRTUAL BANDS - BAND    249; K    3; EIG -1.2381217E-01 AU
 INDIRECT ENERGY BAND GAP:   3.0416 eV
 BOTTOM OF VIRTUAL BANDS - BAND    249; K    1; EIG -1.1900380E-01 AU
 TTTTTTTTTTTTTTTTTTTTTTTTTTTTTT PDIG        TELAPSE      634.92 TCPU      538.75
 TOTAL ATOMIC CHARGES:
   1.1932819   1.1932819   1.1932819   1.1932819   1.2543399   1.2543399
   1.2543399   1.2543399   1.0361572   1.0361572   1.0361572   1.0361572
   6.0155042   6.0155042   6.0155042   6.0155042   5.7491647   5.7491647
   5.7491647   5.7491647   6.1453689   6.1453689   6.1453689   6.1453689
   5.7600433   5.7600433   5.7600433   5.7600433   5.9879745   5.9879745
   5.9879745   5.9879745   6.0550722   6.0550722   6.0550722   6.0550722
   7.1590380   7.1590380   7.1590380   7.1590380   7.0554332   7.0554332
   7.0554332   7.0554332   7.1480513   7.1480513   7.1480513   7.1480513
   7.0441707   7.0441707   7.0441707   7.0441707   7.0661285   7.0661285
   7.0661285   7.0661285  28.8197405  28.8338761  34.9168676  34.9168676
  34.9168676  34.9168676
 TTTTTTTTTTTTTTTTTTTTTTTTTTTTTT MOQGAD      TELAPSE      634.95 TCPU      538.77
 TTTTTTTTTTTTTTTTTTTTTTTTTTTTTT SHELLXN     TELAPSE      667.95 TCPU      569.49
 TTTTTTTTTTTTTTTTTTTTTTTTTTTTTT MONMO3      TELAPSE      672.35 TCPU      573.88
 NUMERICALLY INTEGRATED DENSITY    496.0000950496
 TTTTTTTTTTTTTTTTTTTTTTTTTTTTTT NUMDFT      TELAPSE      674.20 TCPU      575.72
 CYC  12 ETOT(AU) -1.586515831673E+04 DETOT -1.38E-06 tst  1.57E-08 PX  4.80E-04
 TTTTTTTTTTTTTTTTTTTTTTTTTTTTTT DIIS        TELAPSE      674.32 TCPU      575.84
 DIIS TEST: 0.14354E-04 AT SCF   CYCLE  12 - DIIS ACTIVE - HISTORY:    12 CYCLES
 TTTTTTTTTTTTTTTTTTTTTTTTTTTTTT FDIK        TELAPSE      680.60 TCPU      580.74
 INSULATING STATE
 TOP OF VALENCE BANDS -    BAND    248; K    4; EIG -2.3557294E-01 AU
 TOP OF VALENCE BANDS -    BAND    248; K    1; EIG -2.3767668E-01 AU
 BOTTOM OF VIRTUAL BANDS - BAND    249; K    3; EIG -1.2382429E-01 AU
 INDIRECT ENERGY BAND GAP:   3.0408 eV
 BOTTOM OF VIRTUAL BANDS - BAND    249; K    1; EIG -1.1902441E-01 AU
 TTTTTTTTTTTTTTTTTTTTTTTTTTTTTT PDIG        TELAPSE      681.16 TCPU      581.30
 TOTAL ATOMIC CHARGES:
   1.1933675   1.1933675   1.1933675   1.1933675   1.2543893   1.2543893
   1.2543893   1.2543893   1.0362699   1.0362699   1.0362699   1.0362699
   6.0154597   6.0154597   6.0154597   6.0154597   5.7497406   5.7497406
   5.7497406   5.7497406   6.1449338   6.1449338   6.1449338   6.1449338
   5.7601581   5.7601581   5.7601581   5.7601581   5.9877804   5.9877804
   5.9877804   5.9877804   6.0547811   6.0547811   6.0547811   6.0547811
   7.1597293   7.1597293   7.1597293   7.1597293   7.0545229   7.0545229
   7.0545229   7.0545229   7.1485020   7.1485020   7.1485020   7.1485020
[...]
 CYCLE   2   ALPHA  526.959394  EPSILON    2.299856  DELTA    1.3470E+02
 TTTTTTTTTTTTTTTTTTTTTTTTTTTTTT MOQGAD      TELAPSE   112831.03 TCPU   111714.50
 TTTTTTTTTTTTTTTTTTTTTTTTTTTTTT CP_MONMON   TELAPSE   112836.06 TCPU   111719.51
 DIIS TEST: 0.56984E+02 AT CPHF  CYCLE   3 - DIIS ACTIVE - HISTORY:     3 CYCLES
 CYCLE   3   ALPHA  549.350638  EPSILON    2.355089  DELTA    2.2391E+01
 TTTTTTTTTTTTTTTTTTTTTTTTTTTTTT MOQGAD      TELAPSE   113083.30 TCPU   111964.98
 TTTTTTTTTTTTTTTTTTTTTTTTTTTTTT CP_MONMON   TELAPSE   113088.33 TCPU   111969.99
 DIIS TEST: 0.23273E+04 AT CPHF  CYCLE   4 - DIIS ACTIVE - HISTORY:     4 CYCLES
 CYCLE   4   ALPHA  562.474514  EPSILON    2.387461  DELTA    1.3124E+01
 TTTTTTTTTTTTTTTTTTTTTTTTTTTTTT MOQGAD      TELAPSE   113335.62 TCPU   112215.49
 TTTTTTTTTTTTTTTTTTTTTTTTTTTTTT CP_MONMON   TELAPSE   113340.65 TCPU   112220.50
 DIIS TEST: 0.61669E+02 AT CPHF  CYCLE   5 - DIIS ACTIVE - HISTORY:     5 CYCLES
 CYCLE   5   ALPHA  563.639256  EPSILON    2.390334  DELTA    1.1647E+00
 TTTTTTTTTTTTTTTTTTTTTTTTTTTTTT MOQGAD      TELAPSE   113587.80 TCPU   112465.91
 TTTTTTTTTTTTTTTTTTTTTTTTTTTTTT CP_MONMON   TELAPSE   113592.83 TCPU   112470.92
 DIIS TEST: 0.61483E+01 AT CPHF  CYCLE   6 - DIIS ACTIVE - HISTORY:     6 CYCLES
 CYCLE   6   ALPHA  565.239826  EPSILON    2.394283  DELTA    1.6006E+00
 TTTTTTTTTTTTTTTTTTTTTTTTTTTTTT MOQGAD      TELAPSE   113840.44 TCPU   112716.72
 TTTTTTTTTTTTTTTTTTTTTTTTTTTTTT CP_MONMON   TELAPSE   113845.47 TCPU   112721.73
 DIIS TEST: 0.39344E+00 AT CPHF  CYCLE   7 - DIIS ACTIVE - HISTORY:     7 CYCLES
 CYCLE   7   ALPHA  565.464984  EPSILON    2.394838  DELTA    2.2516E-01
 TTTTTTTTTTTTTTTTTTTTTTTTTTTTTT MOQGAD      TELAPSE   114092.87 TCPU   112967.36
 TTTTTTTTTTTTTTTTTTTTTTTTTTTTTT CP_MONMON   TELAPSE   114097.89 TCPU   112972.36
 DIIS TEST: 0.22806E+00 AT CPHF  CYCLE   8 - DIIS ACTIVE - HISTORY:     8 CYCLES
 CYCLE   8   ALPHA  565.610175  EPSILON    2.395196  DELTA    1.4519E-01
 TTTTTTTTTTTTTTTTTTTTTTTTTTTTTT MOQGAD      TELAPSE   114345.19 TCPU   113217.90
 TTTTTTTTTTTTTTTTTTTTTTTTTTTTTT CP_MONMON   TELAPSE   114350.22 TCPU   113222.90
 DIIS TEST: 0.12397E+01 AT CPHF  CYCLE   9 - DIIS ACTIVE - HISTORY:     9 CYCLES
 CYCLE   9   ALPHA  565.624539  EPSILON    2.395232  DELTA    1.4365E-02
 TTTTTTTTTTTTTTTTTTTTTTTTTTTTTT MOQGAD      TELAPSE   114597.61 TCPU   113468.48
 TTTTTTTTTTTTTTTTTTTTTTTTTTTTTT CP_MONMON   TELAPSE   114602.64 TCPU   113473.50
 DIIS TEST: 0.61295E+00 AT CPHF  CYCLE  10 - DIIS ACTIVE - HISTORY:    10 CYCLES
 CYCLE  10   ALPHA  565.647369  EPSILON    2.395288  DELTA    2.2830E-02
 TTTTTTTTTTTTTTTTTTTTTTTTTTTTTT MOQGAD      TELAPSE   114849.96 TCPU   113719.06
 TTTTTTTTTTTTTTTTTTTTTTTTTTTTTT CP_MONMON   TELAPSE   114854.99 TCPU   113724.07
 DIIS TEST: 0.42098E-01 AT CPHF  CYCLE  11 - DIIS ACTIVE - HISTORY:    11 CYCLES
 CYCLE  11   ALPHA  565.654586  EPSILON    2.395306  DELTA    7.2172E-03
 TTTTTTTTTTTTTTTTTTTTTTTTTTTTTT MOQGAD      TELAPSE   115104.11 TCPU   113969.62
 TTTTTTTTTTTTTTTTTTTTTTTTTTTTTT CP_MONMON   TELAPSE   115109.14 TCPU   113974.63
 DIIS TEST: 0.27782E-02 AT CPHF  CYCLE  12 - DIIS ACTIVE - HISTORY:    12 CYCLES
 CYCLE  12   ALPHA  565.654832  EPSILON    2.395306  DELTA    2.4612E-04
 TTTTTTTTTTTTTTTTTTTTTTTTTTTTTT CP_SC       TELAPSE   115121.17 TCPU   113985.58

 *******************************************************************************

 POLARIZABILITY (ALPHA), DIELECTRIC (EPSILON) AND FIRST-ORDER ELECTRIC
 SUSCEPTIBILITY (CHI(1)) TENSORS (INDEPENDENT COMPONENTS)

  FR.(eV) COMP.   ALPHA(Re,Im)           EPSILON(Re,Im)                CHI(1)
  1.435   XX    1212.4815       0.0000       3.9908       0.0000       2.9908
  1.435   ZZ     565.6548       0.0000       2.3953       0.0000       1.3953

 DIELECTRIC TENSOR

 TENSOR IN PRINCIPAL AXES SYSTEM
 AA  3.990840E+00 BB  3.990840E+00 CC  2.395306E+00

 REFRACTIVE INDICES 
 AA  1.547678E+00 BB  1.997709E+00 CC  1.997709E+00

 OPTICALLY ANISOTROPIC - UNIAXIAL CRYSTAL

 BIREFRINGENCE =  0.4500 (NEGATIVE) - OBLATE OPTICAL ELLIPSOID

 EPSILON=N**2=1+CHI(1)=1+ALPHA*4*PI/V,   4*PI/V=   0.00247 BOHR**(-3)
 ALPHA IN BOHR**3; EPSILON AND CHI(1) ARE DIMENSIONLESS.
 *******************************************************************************

 DYNAMIC FIELD: RUN 10/ 10 - RADIATION WAVELENGTH: 1064.0000 NM

 *******************************************************************************

 ELECTRIC FIELD APPLIED ALONG CARTESIAN DIRECTION X

 *******************************************************************************
 THE NUMBER OF SYMMETRY OPERATORS HAS BEEN REDUCED FROM  4 TO  1

 NEW GRID IN RECIPROCAL SPACE
 *******************************************************************************
 POINTS IN THE IBZ                  14 SHRINKING FACTORS               3  3  3
 *******************************************************************************
 *** K POINTS COORDINATES (OBLIQUE COORDINATES IN UNITS OF SHRINK FAC. )
   1-R(  0  0  0)   2-C(  1  0  0)   3-C(  0  1  2)   4-C(  2  0  1)
   5-C(  0  2  0)   6-C(  1  1  0)   7-C(  1  1  1)   8-C(  1  0  1)
   9-C(  0  1  1)  10-C(  2  1  0)  11-C(  0  0  2)  12-C(  2  1  1)
  13-C(  2  1  2)  14-C(  2  2  1)

 GCALCO - MAX INDICES DIRECT LATTICE VECTOR    14    14    16
 NO.OF VECTORS CREATED 6999 STARS  486 RMAX   204.94121 BOHR
 TTTTTTTTTTTTTTTTTTTTTTTTTTTTTT gordsh1     TELAPSE   115121.18 TCPU   113985.59

 MATRIX SIZE: P(G) 1927728, F(G)  964680, P(G) IRR  966478, F(G) IRR  966478
 MAX G-VECTOR INDEX FOR 1- AND 2-ELECTRON INTEGRALS  59

 TTTTTTTTTTTTTTTTTTTTTTTTTTTTTT INPUT       TELAPSE   115121.28 TCPU   113985.68
 TTTTTTTTTTTTTTTTTTTTTTTTTTTTTT SYMM        TELAPSE   115121.28 TCPU   113985.68

 ***** NEW REFERENCE GEOMETRY *****
 TTTTTTTTTTTTTTTTTTTTTTTTTTTTTT INT_SCREEN  TELAPSE   115121.29 TCPU   113985.69
 INFORMATION **** EXCBUF **** EXCH. BIPO BUFFER: WORDS USED =           0

 DFT PARAMETERS

     ATOM       ELECTRONS   NET CHARGE   R(ANGSTROM)
   1   1  H       1.0000      0.0000     1.11000000
  13   6  C       6.0000      0.0000     0.77000000
  37   7  N       7.0000      0.0000     0.74000000
  57  30  ZN     30.0000      0.0000     1.37000000
  59  35  BR     35.0000      0.0000     1.14000000

 SIZE OF GRID=    1819544
 TTTTTTTTTTTTTTTTTTTTTTTTTTTTTT MAKE_GRID2  TELAPSE   115122.56 TCPU   113986.96
 BECKE WEIGHT FUNCTION
 RADSAFE =     2.00
 TOLERANCES - DENSITY:10**- 6; POTENTIAL:10**- 9; GRID WGT:10**-14

 RADIAL INTEGRATION  - INTERVALS (POINTS,UPPER LIMIT):            1( 75,  4.0*R)

 ANGULAR INTEGRATION - INTERVALS (ACCURACY LEVEL [N. POINTS] UPPER LIMIT):
  1(  4[  86]   0.2)  2(  8[ 194]   0.5)  3( 12[ 350]   0.9)  4( 16[ 974]   3.5)
  5( 12[ 350]9999.0)
 TTTTTTTTTTTTTTTTTTTTTTTTTTTTTT INT_CALC    TELAPSE   115122.62 TCPU   113987.01
 CYCLE   0   ALPHA 1567.859208  EPSILON    4.867454  DELTA    1.5679E+03
 TTTTTTTTTTTTTTTTTTTTTTTTTTTTTT MOQGAD      TELAPSE   115613.47 TCPU   114475.19
 TTTTTTTTTTTTTTTTTTTTTTTTTTTTTT CP_MONMON   TELAPSE   115622.73 TCPU   114484.41
 DIIS TEST: 0.32827E+03 AT CPHF  CYCLE   1 - MIX    0 %
 CYCLE   1   ALPHA  399.054024  EPSILON    1.984350  DELTA   -1.1688E+03
 TTTTTTTTTTTTTTTTTTTTTTTTTTTTTT MOQGAD      TELAPSE   116113.67 TCPU   114971.71
 TTTTTTTTTTTTTTTTTTTTTTTTTTTTTT CP_MONMON   TELAPSE   116122.93 TCPU   114980.93
 DIIS TEST: 0.29117E+04 AT CPHF  CYCLE   2 - DIIS ACTIVE - HISTORY:     2 CYCLES
 CYCLE   2   ALPHA 1097.185489  EPSILON    3.706438  DELTA    6.9813E+02
 TTTTTTTTTTTTTTTTTTTTTTTTTTTTTT MOQGAD      TELAPSE   116614.29 TCPU   115468.69
 TTTTTTTTTTTTTTTTTTTTTTTTTTTTTT CP_MONMON   TELAPSE   116623.57 TCPU   115477.94
 DIIS TEST: 0.86926E+02 AT CPHF  CYCLE   3 - DIIS ACTIVE - HISTORY:     3 CYCLES
 CYCLE   3   ALPHA 1162.220256  EPSILON    3.866860  DELTA    6.5035E+01
 TTTTTTTTTTTTTTTTTTTTTTTTTTTTTT MOQGAD      TELAPSE   117114.99 TCPU   115965.57
 TTTTTTTTTTTTTTTTTTTTTTTTTTTTTT CP_MONMON   TELAPSE   117124.25 TCPU   115974.79
 DIIS TEST: 0.70111E+01 AT CPHF  CYCLE   4 - DIIS ACTIVE - HISTORY:     4 CYCLES
 CYCLE   4   ALPHA 1177.310028  EPSILON    3.904082  DELTA    1.5090E+01
 TTTTTTTTTTTTTTTTTTTTTTTTTTTTTT MOQGAD      TELAPSE   117616.71 TCPU   116462.43
 TTTTTTTTTTTTTTTTTTTTTTTTTTTTTT CP_MONMON   TELAPSE   117625.98 TCPU   116471.63
 DIIS TEST: 0.12026E+01 AT CPHF  CYCLE   5 - DIIS ACTIVE - HISTORY:     5 CYCLES
 CYCLE   5   ALPHA 1181.891056  EPSILON    3.915382  DELTA    4.5810E+00
 TTTTTTTTTTTTTTTTTTTTTTTTTTTTTT MOQGAD      TELAPSE   118119.96 TCPU   116958.86
 TTTTTTTTTTTTTTTTTTTTTTTTTTTTTT CP_MONMON   TELAPSE   118129.21 TCPU   116968.08
 DIIS TEST: 0.84373E-01 AT CPHF  CYCLE   6 - DIIS ACTIVE - HISTORY:     6 CYCLES
 CYCLE   6   ALPHA 1183.278325  EPSILON    3.918804  DELTA    1.3873E+00
 TTTTTTTTTTTTTTTTTTTTTTTTTTTTTT MOQGAD      TELAPSE   118621.38 TCPU   117455.52
 TTTTTTTTTTTTTTTTTTTTTTTTTTTTTT CP_MONMON   TELAPSE   118630.63 TCPU   117464.74
 DIIS TEST: 0.42211E-01 AT CPHF  CYCLE   7 - DIIS ACTIVE - HISTORY:     7 CYCLES
 CYCLE   7   ALPHA 1183.352238  EPSILON    3.918987  DELTA    7.3913E-02
 TTTTTTTTTTTTTTTTTTTTTTTTTTTTTT MOQGAD      TELAPSE   119123.39 TCPU   117952.50
 TTTTTTTTTTTTTTTTTTTTTTTTTTTTTT CP_MONMON   TELAPSE   119132.65 TCPU   117961.72
 DIIS TEST: 0.17746E+00 AT CPHF  CYCLE   8 - DIIS ACTIVE - HISTORY:     8 CYCLES
 CYCLE   8   ALPHA 1183.476546  EPSILON    3.919293  DELTA    1.2431E-01
 TTTTTTTTTTTTTTTTTTTTTTTTTTTTTT MOQGAD      TELAPSE   119624.21 TCPU   118449.89
 TTTTTTTTTTTTTTTTTTTTTTTTTTTTTT CP_MONMON   TELAPSE   119633.47 TCPU   118459.12
 DIIS TEST: 0.31212E-02 AT CPHF  CYCLE   9 - DIIS ACTIVE - HISTORY:     9 CYCLES
 CYCLE   9   ALPHA 1183.546627  EPSILON    3.919466  DELTA    7.0081E-02
 TTTTTTTTTTTTTTTTTTTTTTTTTTTTTT MOQGAD      TELAPSE   120127.60 TCPU   118946.66
 TTTTTTTTTTTTTTTTTTTTTTTTTTTTTT CP_MONMON   TELAPSE   120136.86 TCPU   118955.88
 DIIS TEST: 0.30484E-03 AT CPHF  CYCLE  10 - DIIS ACTIVE - HISTORY:    10 CYCLES
 CYCLE  10   ALPHA 1183.519805  EPSILON    3.919400  DELTA   -2.6822E-02
 TTTTTTTTTTTTTTTTTTTTTTTTTTTTTT MOQGAD      TELAPSE   120628.87 TCPU   119443.90
 TTTTTTTTTTTTTTTTTTTTTTTTTTTTTT CP_MONMON   TELAPSE   120638.13 TCPU   119453.12
 DIIS TEST: 0.49648E-04 AT CPHF  CYCLE  11 - DIIS ACTIVE - HISTORY:    11 CYCLES
 CYCLE  11   ALPHA 1183.499684  EPSILON    3.919350  DELTA   -2.0121E-02
 TTTTTTTTTTTTTTTTTTTTTTTTTTTTTT MOQGAD      TELAPSE   121135.23 TCPU   119944.59
 TTTTTTTTTTTTTTTTTTTTTTTTTTTTTT CP_MONMON   TELAPSE   121144.49 TCPU   119953.82
 DIIS TEST: 0.74443E-05 AT CPHF  CYCLE  12 - DIIS ACTIVE - HISTORY:    12 CYCLES
 CYCLE  12   ALPHA 1183.493529  EPSILON    3.919335  DELTA   -6.1550E-03
 TTTTTTTTTTTTTTTTTTTTTTTTTTTTTT MOQGAD      TELAPSE   121636.24 TCPU   120442.14
 TTTTTTTTTTTTTTTTTTTTTTTTTTTTTT CP_MONMON   TELAPSE   121645.51 TCPU   120451.37
 DIIS TEST: 0.10189E-05 AT CPHF  CYCLE  13 - DIIS ACTIVE - HISTORY:    13 CYCLES
 CYCLE  13   ALPHA 1183.491973  EPSILON    3.919331  DELTA   -1.5568E-03
 TTTTTTTTTTTTTTTTTTTTTTTTTTTTTT MOQGAD      TELAPSE   122138.29 TCPU   120939.33
 TTTTTTTTTTTTTTTTTTTTTTTTTTTTTT CP_MONMON   TELAPSE   122147.55 TCPU   120948.56
 DIIS TEST: 0.69750E-07 AT CPHF  CYCLE  14 - DIIS ACTIVE - HISTORY:    14 CYCLES
 CYCLE  14   ALPHA 1183.491194  EPSILON    3.919329  DELTA   -7.7890E-04
 TTTTTTTTTTTTTTTTTTTTTTTTTTTTTT CP_SC       TELAPSE   122164.46 TCPU   120960.93

 *******************************************************************************

 ELECTRIC FIELD APPLIED ALONG CARTESIAN DIRECTION Z

 *******************************************************************************
 THE NUMBER OF SYMMETRY OPERATORS HAS BEEN REDUCED FROM  4 TO  2

 NEW GRID IN RECIPROCAL SPACE
 *******************************************************************************
 POINTS IN THE IBZ                  10 SHRINKING FACTORS               3  3  3
 *******************************************************************************
 *** K POINTS COORDINATES (OBLIQUE COORDINATES IN UNITS OF SHRINK FAC. )
   1-R(  0  0  0)   2-C(  1  0  0)   3-C(  2  0  1)   4-C(  1  1  0)
   5-C(  1  0  1)   6-C(  2  1  0)   7-C(  0  0  2)   8-C(  2  1  1)
   9-C(  2  1  2)  10-C(  2  2  1)

 GCALCO - MAX INDICES DIRECT LATTICE VECTOR    14    14    16
 NO.OF VECTORS CREATED 6999 STARS  486 RMAX   204.94121 BOHR
 TTTTTTTTTTTTTTTTTTTTTTTTTTTTTT gordsh1     TELAPSE   122164.47 TCPU   120960.93

 MATRIX SIZE: P(G) 1927728, F(G)  964680, P(G) IRR  485700, F(G) IRR  485700
 MAX G-VECTOR INDEX FOR 1- AND 2-ELECTRON INTEGRALS  59

 TTTTTTTTTTTTTTTTTTTTTTTTTTTTTT INPUT       TELAPSE   122164.49 TCPU   120960.96
 TTTTTTTTTTTTTTTTTTTTTTTTTTTTTT SYMM        TELAPSE   122164.49 TCPU   120960.96

 ***** NEW REFERENCE GEOMETRY *****
 TTTTTTTTTTTTTTTTTTTTTTTTTTTTTT INT_SCREEN  TELAPSE   122164.50 TCPU   120960.97
 INFORMATION **** EXCBUF **** EXCH. BIPO BUFFER: WORDS USED =           0

 DFT PARAMETERS

     ATOM       ELECTRONS   NET CHARGE   R(ANGSTROM)
   1   1  H       1.0000      0.0000     1.11000000
  13   6  C       6.0000      0.0000     0.77000000
  37   7  N       7.0000      0.0000     0.74000000
  57  30  ZN     30.0000      0.0000     1.37000000
  59  35  BR     35.0000      0.0000     1.14000000

 SIZE OF GRID=     909888
 TTTTTTTTTTTTTTTTTTTTTTTTTTTTTT MAKE_GRID2  TELAPSE   122165.36 TCPU   120961.82
 BECKE WEIGHT FUNCTION
 RADSAFE =     2.00
 TOLERANCES - DENSITY:10**- 6; POTENTIAL:10**- 9; GRID WGT:10**-14

 RADIAL INTEGRATION  - INTERVALS (POINTS,UPPER LIMIT):            1( 75,  4.0*R)

 ANGULAR INTEGRATION - INTERVALS (ACCURACY LEVEL [N. POINTS] UPPER LIMIT):
  1(  4[  86]   0.2)  2(  8[ 194]   0.5)  3( 12[ 350]   0.9)  4( 16[ 974]   3.5)
  5( 12[ 350]9999.0)
 TTTTTTTTTTTTTTTTTTTTTTTTTTTTTT INT_CALC    TELAPSE   122165.40 TCPU   120961.86
 CYCLE   0   ALPHA  693.716977  EPSILON    2.711198  DELTA    6.9372E+02
 TTTTTTTTTTTTTTTTTTTTTTTTTTTTTT MOQGAD      TELAPSE   122412.58 TCPU   121207.84
 TTTTTTTTTTTTTTTTTTTTTTTTTTTTTT CP_MONMON   TELAPSE   122417.61 TCPU   121212.85
 DIIS TEST: 0.72889E+02 AT CPHF  CYCLE   1 - MIX    0 %
 CYCLE   1   ALPHA  392.036026  EPSILON    1.967039  DELTA   -3.0168E+02
 TTTTTTTTTTTTTTTTTTTTTTTTTTTTTT MOQGAD      TELAPSE   122666.77 TCPU   121460.28
 TTTTTTTTTTTTTTTTTTTTTTTTTTTTTT CP_MONMON   TELAPSE   122671.80 TCPU   121465.29
 DIIS TEST: 0.52367E+03 AT CPHF  CYCLE   2 - DIIS ACTIVE - HISTORY:     2 CYCLES
 CYCLE   2   ALPHA  522.321622  EPSILON    2.288416  DELTA    1.3029E+02
 TTTTTTTTTTTTTTTTTTTTTTTTTTTTTT MOQGAD      TELAPSE   122921.32 TCPU   121713.06
 TTTTTTTTTTTTTTTTTTTTTTTTTTTTTT CP_MONMON   TELAPSE   122926.35 TCPU   121718.07
 DIIS TEST: 0.46644E+02 AT CPHF  CYCLE   3 - DIIS ACTIVE - HISTORY:     3 CYCLES
 CYCLE   3   ALPHA  547.022328  EPSILON    2.349345  DELTA    2.4701E+01
 TTTTTTTTTTTTTTTTTTTTTTTTTTTTTT MOQGAD      TELAPSE   123178.71 TCPU   121968.71
 TTTTTTTTTTTTTTTTTTTTTTTTTTTTTT CP_MONMON   TELAPSE   123183.73 TCPU   121973.71
 DIIS TEST: 0.20325E+04 AT CPHF  CYCLE   4 - DIIS ACTIVE - HISTORY:     4 CYCLES
 CYCLE   4   ALPHA  557.219370  EPSILON    2.374498  DELTA    1.0197E+01
 TTTTTTTTTTTTTTTTTTTTTTTTTTTTTT MOQGAD      TELAPSE   123434.24 TCPU   122222.52
 TTTTTTTTTTTTTTTTTTTTTTTTTTTTTT CP_MONMON   TELAPSE   123439.26 TCPU   122227.52
 DIIS TEST: 0.40518E+02 AT CPHF  CYCLE   5 - DIIS ACTIVE - HISTORY:     5 CYCLES
 CYCLE   5   ALPHA  557.841080  EPSILON    2.376032  DELTA    6.2171E-01
 TTTTTTTTTTTTTTTTTTTTTTTTTTTTTT MOQGAD      TELAPSE   123688.94 TCPU   122475.23
 TTTTTTTTTTTTTTTTTTTTTTTTTTTTTT CP_MONMON   TELAPSE   123693.96 TCPU   122480.24
 DIIS TEST: 0.55605E+01 AT CPHF  CYCLE   6 - DIIS ACTIVE - HISTORY:     6 CYCLES
 CYCLE   6   ALPHA  559.231359  EPSILON    2.379461  DELTA    1.3903E+00
 TTTTTTTTTTTTTTTTTTTTTTTTTTTTTT MOQGAD      TELAPSE   123943.08 TCPU   122727.45
 TTTTTTTTTTTTTTTTTTTTTTTTTTTTTT CP_MONMON   TELAPSE   123948.11 TCPU   122732.46
 DIIS TEST: 0.31899E+00 AT CPHF  CYCLE   7 - DIIS ACTIVE - HISTORY:     7 CYCLES
 CYCLE   7   ALPHA  559.457704  EPSILON    2.380020  DELTA    2.2635E-01
 TTTTTTTTTTTTTTTTTTTTTTTTTTTTTT MOQGAD      TELAPSE   124197.20 TCPU   122979.85
 TTTTTTTTTTTTTTTTTTTTTTTTTTTTTT CP_MONMON   TELAPSE   124202.23 TCPU   122984.86
 DIIS TEST: 0.17538E+00 AT CPHF  CYCLE   8 - DIIS ACTIVE - HISTORY:     8 CYCLES
 CYCLE   8   ALPHA  559.597238  EPSILON    2.380364  DELTA    1.3953E-01
 TTTTTTTTTTTTTTTTTTTTTTTTTTTTTT MOQGAD      TELAPSE   124451.34 TCPU   123232.24
 TTTTTTTTTTTTTTTTTTTTTTTTTTTTTT CP_MONMON   TELAPSE   124456.36 TCPU   123237.24
 DIIS TEST: 0.96979E+00 AT CPHF  CYCLE   9 - DIIS ACTIVE - HISTORY:     9 CYCLES
 CYCLE   9   ALPHA  559.607548  EPSILON    2.380389  DELTA    1.0309E-02
 TTTTTTTTTTTTTTTTTTTTTTTTTTTTTT MOQGAD      TELAPSE   124705.48 TCPU   123484.69
 TTTTTTTTTTTTTTTTTTTTTTTTTTTTTT CP_MONMON   TELAPSE   124710.51 TCPU   123489.69
 DIIS TEST: 0.43245E+00 AT CPHF  CYCLE  10 - DIIS ACTIVE - HISTORY:    10 CYCLES
 CYCLE  10   ALPHA  559.623898  EPSILON    2.380430  DELTA    1.6350E-02
 TTTTTTTTTTTTTTTTTTTTTTTTTTTTTT MOQGAD      TELAPSE   124959.55 TCPU   123737.23
 TTTTTTTTTTTTTTTTTTTTTTTTTTTTTT CP_MONMON   TELAPSE   124964.58 TCPU   123742.23
 DIIS TEST: 0.27054E-01 AT CPHF  CYCLE  11 - DIIS ACTIVE - HISTORY:    11 CYCLES
 CYCLE  11   ALPHA  559.627765  EPSILON    2.380439  DELTA    3.8674E-03
 TTTTTTTTTTTTTTTTTTTTTTTTTTTTTT MOQGAD      TELAPSE   125213.77 TCPU   123989.73
 TTTTTTTTTTTTTTTTTTTTTTTTTTTTTT CP_MONMON   TELAPSE   125218.80 TCPU   123994.73
 DIIS TEST: 0.19096E-02 AT CPHF  CYCLE  12 - DIIS ACTIVE - HISTORY:    12 CYCLES
 CYCLE  12   ALPHA  559.626731  EPSILON    2.380437  DELTA   -1.0345E-03
 TTTTTTTTTTTTTTTTTTTTTTTTTTTTTT MOQGAD      TELAPSE   125469.98 TCPU   124242.17
 TTTTTTTTTTTTTTTTTTTTTTTTTTTTTT CP_MONMON   TELAPSE   125475.00 TCPU   124247.17
 DIIS TEST: 0.61766E-03 AT CPHF  CYCLE  13 - DIIS ACTIVE - HISTORY:    13 CYCLES
 CYCLE  13   ALPHA  559.619551  EPSILON    2.380419  DELTA   -7.1794E-03
 TTTTTTTTTTTTTTTTTTTTTTTTTTTTTT MOQGAD      TELAPSE   125724.09 TCPU   124494.52
 TTTTTTTTTTTTTTTTTTTTTTTTTTTTTT CP_MONMON   TELAPSE   125729.11 TCPU   124499.52
 DIIS TEST: 0.20533E-03 AT CPHF  CYCLE  14 - DIIS ACTIVE - HISTORY:    14 CYCLES
 CYCLE  14   ALPHA  559.615845  EPSILON    2.380410  DELTA   -3.7068E-03
 TTTTTTTTTTTTTTTTTTTTTTTTTTTTTT MOQGAD      TELAPSE   125978.08 TCPU   124746.78
 TTTTTTTTTTTTTTTTTTTTTTTTTTTTTT CP_MONMON   TELAPSE   125983.10 TCPU   124751.78
 DIIS TEST: 0.12273E-03 AT CPHF  CYCLE  15 - DIIS ACTIVE - HISTORY:    15 CYCLES
 CYCLE  15   ALPHA  559.615856  EPSILON    2.380410  DELTA    1.1507E-05
 TTTTTTTTTTTTTTTTTTTTTTTTTTTTTT CP_SC       TELAPSE   125995.15 TCPU   124762.99

 *******************************************************************************

 POLARIZABILITY (ALPHA), DIELECTRIC (EPSILON) AND FIRST-ORDER ELECTRIC
 SUSCEPTIBILITY (CHI(1)) TENSORS (INDEPENDENT COMPONENTS)

  FR.(eV) COMP.   ALPHA(Re,Im)           EPSILON(Re,Im)                CHI(1)
  1.165   XX    1183.4912       0.0000       3.9193       0.0000       2.9193
  1.165   ZZ     559.6159       0.0000       2.3804       0.0000       1.3804

 DIELECTRIC TENSOR

 TENSOR IN PRINCIPAL AXES SYSTEM
 AA  3.919329E+00 BB  3.919329E+00 CC  2.380410E+00

 REFRACTIVE INDICES 
 AA  1.542858E+00 BB  1.979730E+00 CC  1.979730E+00

 OPTICALLY ANISOTROPIC - UNIAXIAL CRYSTAL

 BIREFRINGENCE =  0.4369 (NEGATIVE) - OBLATE OPTICAL ELLIPSOID

 EPSILON=N**2=1+CHI(1)=1+ALPHA*4*PI/V,   4*PI/V=   0.00247 BOHR**(-3)
 ALPHA IN BOHR**3; EPSILON AND CHI(1) ARE DIMENSIONLESS.
 *******************************************************************************


 GCALCO - MAX INDICES DIRECT LATTICE VECTOR    14    14    16
 NO.OF VECTORS CREATED 6999 STARS  486 RMAX   204.94121 BOHR

 CAPPA:IS1  3;IS2  3;IS3  3; K PTS MONK NET   6; SYMMOPS:K SPACE   8;G SPACE   4

 TTTTTTTTTTTTTTTTTTTTTTTTTTTTTT END         TELAPSE   125995.21 TCPU   124762.99
 EEEEEEEEEE TERMINATION  DATE 09 03 2024 TIME 13:57:24.6
NODE    0 CPU TIME =    124762.992
    TOTAL CPU TIME =   7989500.355
