Loading crystal17/1.0.2/intel/19.0
  Loading requirement: intel/19.0 ompi/4.0.1/intel/19.0
          64 PROCESSORS WORKING

         
 *******************************************************************************
 *                                                                             *
 *                               CRYSTAL17                                     *
 *                      public : 1.0.2 - March 1st, 2018                       *
 *                       HTTP://WWW.CRYSTAL.UNITO.IT                           *
 *                                                                             *
 *                              MAIN AUTHORS                                   *
 *                                                                             *
 *  R. DOVESI(1,11), V.R. SAUNDERS(2), C. ROETTI(1,11), R. ORLANDO(1,11),      *
 *  C.M. ZICOVICH-WILSON(1,3), F. PASCALE(4), B. CIVALLERI(1,11),              *
 *  K. DOLL(5), N.M. HARRISON(2,6), I.J. BUSH(7), Ph. D'ARCO(8),               *
 *  M. LLUNELL(9), M. CAUSA'(10), Y. NOEL(8), L. MASCHIO(1,11), A. ERBA(1,11)  *
 *  M. RE'RAT(14), S. CASASSA(1,11)                                            *
 *                                                                             *
 *        CONTRIBUTIONS TO THE CODE HAVE ALSO BEEN GIVEN BY                    *
 *                                                                             *
 *  M. FERRABONE(1,11), M. DE LA PIERRE(1,11), M. FERRERO(1,11),               *
 *  J. BAIMA(1,11), E. ALBANESE(1,11), M.F. PEINTINGER(12), R. BAST(13),       *
 *  B. KIRTMAN(15), V. LACIVITA(1,11), R. DEMICHELIS(1,16)                     *
 *  G. BRANDEBURG(17), S. SALUSTRO(1,11), G. SANSONE(1,11)                     *
 *  M.T. RUGGIERO(18)                                                          *
 *                                                                             *
 * (1) THEORETICAL CHEMISTRY GROUP - UNIVERSITA' DI TORINO - TORINO (ITALY)    *
 * (2) COMPUTATIONAL SCIENCE & ENGINEERING DEPARTMENT - STFC DARESBURY (UK)    *
 * (3) UNIVERSIDAD AUTONOMA DEL ESTADO DE MORELOS - CUERNAVACA (MEXICO)        *
 * (4) UNIVERSITE' DE LORRAINE - NANCY (FRANCE)                                *
 * (5) UNIVERSITAET STUTTGART- STUTTGART (GERMANY)                             *
 * (6) IMPERIAL COLLEGE - LONDON (UK)                                          *
 * (7) OXFORD E-RESEARCH CENTRE - OXFORD (UK)                                  *
 * (8) UPMC - SORBONNE UNIVERSITES - PARIS (FRANCE)                            *
 * (9) UNIVERSIDAD DE BARCELONA - BARCELONA (SPAIN)                            *
 *(10) UNIVERSITA' DI NAPOLI "FEDERICO II" - NAPOLI (ITALY)                    *
 *(11) NIS - NANOSTRUCTURED INTERFACES AND SURFACES - TORINO (ITALY)           *
 *(12) MPI FUER CHEMISCHE ENERGIEKONVERSION - MUELHEIM AN DER RUHR (GERMANY)   *
 *(13) UNIVERSITY OF TROMSO - TROMSO (NORWAY)                                  *
 *(14) UNIVERSITE' DE PAU ET DES PAYS DE L'ADOUR - PAU (FRANCE)                *
 *(15) UNIVERSITY OF CALIFORNIA SANTA BARBARA - SANTA BARBARA (USA)            *
 *(16) CURTIN UNIVERSITY - PERTH (AUSTRALIA)                                   *
 *(17) UNIVERSITY COLLEGE LONDON - LONDON (UK)                                 *
 *(18) CAMBRIDGE UNIVERSITY - CAMBRIDGE (UK)                                   *
 *                                                                             *
 *******************************************************************************
 EEEEEEEEEE STARTING  DATE 08 03 2024 TIME 07:00:20.9
 Z:\home\sanoj\Downloads\tmp_p\newconn.mol                                       

 CRYSTAL CALCULATION
 (INPUT ACCORDING TO THE INTERNATIONAL TABLES FOR X-RAY CRYSTALLOGRAPHY)
 CRYSTAL FAMILY                       :  TETRAGONAL  
 CRYSTAL CLASS  (GROTH - 1921)        :  TETRAGONAL DISPHENOIDAL              

 SPACE GROUP (NONCENTROSYMMETRIC)     :  I -4            

 LATTICE PARAMETERS  (ANGSTROMS AND DEGREES) - CONVENTIONAL CELL
        A           B           C        ALPHA        BETA       GAMMA
    10.96825    10.96825    13.28475    90.00000    90.00000    90.00000


 NUMBER OF IRREDUCIBLE ATOMS IN THE CONVENTIONAL CELL:   17

 INPUT COORDINATES

 ATOM AT. N.              COORDINATES
   1   1    -1.502000000000E-02  6.447500000000E-01  9.334000000000E-02
   2   1    -9.281000000000E-02  1.562000000000E-02  1.158000000000E-01
   3   6     7.922400000000E-01  6.827100000000E-01  1.134300000000E-01
   4   6     7.622900000000E-01  5.533200000000E-01  1.223400000000E-01
   5   6     7.069900000000E-01  7.780400000000E-01  1.209700000000E-01
   6   6     8.750500000000E-01 -7.909000000000E-02  1.141300000000E-01
   7   6    -8.374000000000E-02  7.154700000000E-01  1.041400000000E-01
   8   6     2.502300000000E-01  1.016700000000E-01  1.198100000000E-01
   9   7     8.434100000000E-01  4.756900000000E-01  1.664100000000E-01
  10   7     7.942400000000E-01  3.607000000000E-01  1.613500000000E-01
  11   7     6.629800000000E-01  4.881100000000E-01  9.135000000000E-02
  12   7     6.873500000000E-01  3.683700000000E-01  1.166200000000E-01
  13   7    -4.264000000000E-02  8.305800000000E-01  1.061300000000E-01
  14  30     0.000000000000E+00  5.000000000000E-01  2.500000000000E-01
  15  30     0.000000000000E+00  0.000000000000E+00  5.000000000000E-01
  16  35     5.401600000000E-01  7.413500000000E-01  1.338800000000E-01
  17  35     6.464700000000E-01  3.434000000000E-02  1.261200000000E-01

 *******************************************************************************

 << INFORMATION >>: FROM NOW ON, ALL COORDINATES REFER TO THE PRIMITIVE CELL

 *******************************************************************************

 LATTICE PARAMETERS  (ANGSTROMS AND DEGREES) - PRIMITIVE CELL
       A          B          C        ALPHA      BETA     GAMMA        VOLUME
   10.21138   10.21138   10.21138   115.03260 115.03260  98.84329    799.093917

 COORDINATES OF THE EQUIVALENT ATOMS (FRACTIONAL UNITS)

 N. ATOM EQUIV AT. N.          X                  Y                  Z

   1   1   1    1 H    -2.61910000000E-01  7.83200000000E-02 -3.70270000000E-01
   2   1   2    1 H     4.48590000000E-01  1.08360000000E-01  3.70270000000E-01
   3   1   3    1 H    -7.83200000000E-02 -4.48590000000E-01 -3.40230000000E-01
   4   1   4    1 H    -1.08360000000E-01  2.61910000000E-01  3.40230000000E-01

   5   2   1    1 H     1.31420000000E-01  2.29900000000E-02 -7.71900000000E-02
   6   2   2    1 H     1.00180000000E-01  2.08610000000E-01  7.71900000000E-02
   7   2   3    1 H    -2.29900000000E-02 -1.00180000000E-01  1.08430000000E-01
   8   2   4    1 H    -2.08610000000E-01 -1.31420000000E-01 -1.08430000000E-01

   9   3   1    6 C    -2.03860000000E-01 -9.43300000000E-02  4.74950000000E-01
  10   3   2    6 C     4.30720000000E-01  3.21190000000E-01 -4.74950000000E-01
  11   3   3    6 C     9.43300000000E-02 -4.30720000000E-01 -1.09530000000E-01
  12   3   4    6 C    -3.21190000000E-01  2.03860000000E-01  1.09530000000E-01

  13   4   1    6 C    -3.24340000000E-01 -1.15370000000E-01  3.15610000000E-01
  14   4   2    6 C    -4.30980000000E-01  3.60050000000E-01 -3.15610000000E-01
  15   4   3    6 C     1.15370000000E-01  4.30980000000E-01 -2.08970000000E-01
  16   4   4    6 C    -3.60050000000E-01  3.24340000000E-01  2.08970000000E-01

  17   5   1    6 C    -1.00990000000E-01 -1.72040000000E-01  4.85030000000E-01
  18   5   2    6 C     3.42930000000E-01  4.13980000000E-01 -4.85030000000E-01
  19   5   3    6 C     1.72040000000E-01 -3.42930000000E-01  7.10500000000E-02
  20   5   4    6 C    -4.13980000000E-01  1.00990000000E-01 -7.10500000000E-02

  21   6   1    6 C     3.50400000000E-02 -1.08200000000E-02 -2.04040000000E-01
  22   6   2    6 C     1.93220000000E-01  2.39080000000E-01  2.04040000000E-01
  23   6   3    6 C     1.08200000000E-02 -1.93220000000E-01  4.58600000000E-02
  24   6   4    6 C    -2.39080000000E-01 -3.50400000000E-02 -4.58600000000E-02

  25   7   1    6 C    -1.80390000000E-01  2.04000000000E-02 -3.68270000000E-01
  26   7   2    6 C     3.88670000000E-01  1.87880000000E-01  3.68270000000E-01
  27   7   3    6 C    -2.04000000000E-02 -3.88670000000E-01 -2.00790000000E-01
  28   7   4    6 C    -1.87880000000E-01  1.80390000000E-01  2.00790000000E-01

  29   8   1    6 C     2.21480000000E-01  3.70040000000E-01  3.51900000000E-01
  30   8   2    6 C     1.81400000000E-02 -1.30420000000E-01 -3.51900000000E-01
  31   8   3    6 C    -3.70040000000E-01 -1.81400000000E-02 -1.48560000000E-01
  32   8   4    6 C     1.30420000000E-01 -2.21480000000E-01  1.48560000000E-01

  33   9   1    7 N    -3.57900000000E-01  9.82000000000E-03  3.19100000000E-01
  34   9   2    7 N    -3.09280000000E-01  3.23000000000E-01 -3.19100000000E-01
  35   9   3    7 N    -9.82000000000E-03  3.09280000000E-01 -3.67720000000E-01
  36   9   4    7 N    -3.23000000000E-01  3.57900000000E-01  3.67720000000E-01

  37  10   1    7 N    -4.77950000000E-01 -4.44100000000E-02  1.54940000000E-01
  38  10   2    7 N    -1.99350000000E-01  3.67110000000E-01 -1.54940000000E-01
  39  10   3    7 N     4.44100000000E-02  1.99350000000E-01 -4.33540000000E-01
  40  10   4    7 N    -3.67110000000E-01  4.77950000000E-01  4.33540000000E-01

  41  11   1    7 N    -4.20540000000E-01 -2.45670000000E-01  1.51090000000E-01
  42  11   2    7 N    -3.96760000000E-01  4.28370000000E-01 -1.51090000000E-01
  43  11   3    7 N     2.45670000000E-01  3.96760000000E-01 -1.74870000000E-01
  44  11   4    7 N    -4.28370000000E-01  4.20540000000E-01  1.74870000000E-01

  45  12   1    7 N     4.84990000000E-01 -1.96030000000E-01  5.57200000000E-02
  46  12   2    7 N    -2.51750000000E-01  4.29270000000E-01 -5.57200000000E-02
  47  12   3    7 N     1.96030000000E-01  2.51750000000E-01 -3.18980000000E-01
  48  12   4    7 N    -4.29270000000E-01 -4.84990000000E-01  3.18980000000E-01

  49  13   1    7 N    -6.32900000000E-02  6.34900000000E-02 -2.12060000000E-01
  50  13   2    7 N     2.75550000000E-01  1.48770000000E-01  2.12060000000E-01
  51  13   3    7 N    -6.34900000000E-02 -2.75550000000E-01 -1.26780000000E-01
  52  13   4    7 N    -1.48770000000E-01  6.32900000000E-02  1.26780000000E-01

  53  14   1   30 ZN   -2.50000000000E-01  2.50000000000E-01 -5.00000000000E-01

  54  15   1   30 ZN   -5.00000000000E-01 -5.00000000000E-01  0.00000000000E+00

  55  16   1   35 BR   -1.24770000000E-01 -3.25960000000E-01  2.81510000000E-01
  56  16   2   35 BR    3.92530000000E-01 -4.06280000000E-01 -2.81510000000E-01
  57  16   3   35 BR    3.25960000000E-01 -3.92530000000E-01  2.01190000000E-01
  58  16   4   35 BR    4.06280000000E-01  1.24770000000E-01 -2.01190000000E-01

  59  17   1   35 BR    1.60460000000E-01 -2.27410000000E-01 -3.19190000000E-01
  60  17   2   35 BR    9.17800000000E-02  4.79650000000E-01  3.19190000000E-01
  61  17   3   35 BR    2.27410000000E-01 -9.17800000000E-02  3.87870000000E-01
  62  17   4   35 BR   -4.79650000000E-01 -1.60460000000E-01 -3.87870000000E-01

 NUMBER OF SYMMETRY OPERATORS         :    4
 *******************************************************************************
 * GEOMETRY EDITING - INPUT COORDINATES ARE GIVEN IN ANGSTROM         
 *******************************************************************************

 GEOMETRY NOW FULLY CONSISTENT WITH THE GROUP

 GCALCO - MAX INDICES DIRECT LATTICE VECTOR    14    14    16
 NO.OF VECTORS CREATED 6999 STARS  484 RMAX   208.99211 BOHR

 GEOMETRY FOR WAVE FUNCTION - DIMENSIONALITY OF THE SYSTEM    3
 (NON PERIODIC DIRECTION: LATTICE PARAMETER FORMALLY SET TO 500)
 *******************************************************************************
 LATTICE PARAMETERS (ANGSTROMS AND DEGREES) - BOHR = 0.5291772083 ANGSTROM
 PRIMITIVE CELL - CENTRING CODE 6/0 VOLUME=   799.093917 - DENSITY  2.775 g/cm^3
         A              B              C           ALPHA      BETA       GAMMA 
    10.21138441    10.21138441    10.21138441   115.032596 115.032596  98.843287
 *******************************************************************************
 ATOMS IN THE ASYMMETRIC UNIT   17 - ATOMS IN THE UNIT CELL:   62
     ATOM                 X/A                 Y/B                 Z/C    
 *******************************************************************************
      1 T   1 H    -2.619100000000E-01  7.832000000000E-02 -3.702700000000E-01
      2 F   1 H     4.485900000000E-01  1.083600000000E-01  3.702700000000E-01
      3 F   1 H    -7.832000000000E-02 -4.485900000000E-01 -3.402300000000E-01
      4 F   1 H    -1.083600000000E-01  2.619100000000E-01  3.402300000000E-01
      5 T   1 H     1.314200000000E-01  2.299000000000E-02 -7.719000000000E-02
      6 F   1 H     1.001800000000E-01  2.086100000000E-01  7.719000000000E-02
      7 F   1 H    -2.299000000000E-02 -1.001800000000E-01  1.084300000000E-01
      8 F   1 H    -2.086100000000E-01 -1.314200000000E-01 -1.084300000000E-01
      9 T   6 C    -2.038600000000E-01 -9.433000000000E-02  4.749500000000E-01
     10 F   6 C     4.307200000000E-01  3.211900000000E-01 -4.749500000000E-01
     11 F   6 C     9.433000000000E-02 -4.307200000000E-01 -1.095300000000E-01
     12 F   6 C    -3.211900000000E-01  2.038600000000E-01  1.095300000000E-01
     13 T   6 C    -3.243400000000E-01 -1.153700000000E-01  3.156100000000E-01
     14 F   6 C    -4.309800000000E-01  3.600500000000E-01 -3.156100000000E-01
     15 F   6 C     1.153700000000E-01  4.309800000000E-01 -2.089700000000E-01
     16 F   6 C    -3.600500000000E-01  3.243400000000E-01  2.089700000000E-01
     17 T   6 C    -1.009900000000E-01 -1.720400000000E-01  4.850300000000E-01
     18 F   6 C     3.429300000000E-01  4.139800000000E-01 -4.850300000000E-01
     19 F   6 C     1.720400000000E-01 -3.429300000000E-01  7.105000000000E-02
     20 F   6 C    -4.139800000000E-01  1.009900000000E-01 -7.105000000000E-02
     21 T   6 C     3.504000000000E-02 -1.082000000000E-02 -2.040400000000E-01
     22 F   6 C     1.932200000000E-01  2.390800000000E-01  2.040400000000E-01
     23 F   6 C     1.082000000000E-02 -1.932200000000E-01  4.586000000000E-02
     24 F   6 C    -2.390800000000E-01 -3.504000000000E-02 -4.586000000000E-02
     25 T   6 C    -1.803900000000E-01  2.040000000000E-02 -3.682700000000E-01
     26 F   6 C     3.886700000000E-01  1.878800000000E-01  3.682700000000E-01
     27 F   6 C    -2.040000000000E-02 -3.886700000000E-01 -2.007900000000E-01
     28 F   6 C    -1.878800000000E-01  1.803900000000E-01  2.007900000000E-01
     29 T   6 C     2.214800000000E-01  3.700400000000E-01  3.519000000000E-01
     30 F   6 C     1.814000000000E-02 -1.304200000000E-01 -3.519000000000E-01
     31 F   6 C    -3.700400000000E-01 -1.814000000000E-02 -1.485600000000E-01
     32 F   6 C     1.304200000000E-01 -2.214800000000E-01  1.485600000000E-01
     33 T   7 N    -3.579000000000E-01  9.820000000000E-03  3.191000000000E-01
     34 F   7 N    -3.092800000000E-01  3.230000000000E-01 -3.191000000000E-01
     35 F   7 N    -9.820000000000E-03  3.092800000000E-01 -3.677200000000E-01
     36 F   7 N    -3.230000000000E-01  3.579000000000E-01  3.677200000000E-01
     37 T   7 N    -4.779500000000E-01 -4.441000000000E-02  1.549400000000E-01
     38 F   7 N    -1.993500000000E-01  3.671100000000E-01 -1.549400000000E-01
     39 F   7 N     4.441000000000E-02  1.993500000000E-01 -4.335400000000E-01
     40 F   7 N    -3.671100000000E-01  4.779500000000E-01  4.335400000000E-01
     41 T   7 N    -4.205400000000E-01 -2.456700000000E-01  1.510900000000E-01
     42 F   7 N    -3.967600000000E-01  4.283700000000E-01 -1.510900000000E-01
     43 F   7 N     2.456700000000E-01  3.967600000000E-01 -1.748700000000E-01
     44 F   7 N    -4.283700000000E-01  4.205400000000E-01  1.748700000000E-01
     45 T   7 N     4.849900000000E-01 -1.960300000000E-01  5.572000000000E-02
     46 F   7 N    -2.517500000000E-01  4.292700000000E-01 -5.572000000000E-02
     47 F   7 N     1.960300000000E-01  2.517500000000E-01 -3.189800000000E-01
     48 F   7 N    -4.292700000000E-01 -4.849900000000E-01  3.189800000000E-01
     49 T   7 N    -6.329000000000E-02  6.349000000000E-02 -2.120600000000E-01
     50 F   7 N     2.755500000000E-01  1.487700000000E-01  2.120600000000E-01
     51 F   7 N    -6.349000000000E-02 -2.755500000000E-01 -1.267800000000E-01
     52 F   7 N    -1.487700000000E-01  6.329000000000E-02  1.267800000000E-01
     53 T  30 ZN   -2.500000000000E-01  2.500000000000E-01 -5.000000000000E-01
     54 T  30 ZN   -5.000000000000E-01 -5.000000000000E-01  0.000000000000E+00
     55 T  35 BR   -1.247700000000E-01 -3.259600000000E-01  2.815100000000E-01
     56 F  35 BR    3.925300000000E-01 -4.062800000000E-01 -2.815100000000E-01
     57 F  35 BR    3.259600000000E-01 -3.925300000000E-01  2.011900000000E-01
     58 F  35 BR    4.062800000000E-01  1.247700000000E-01 -2.011900000000E-01
     59 T  35 BR    1.604600000000E-01 -2.274100000000E-01 -3.191900000000E-01
     60 F  35 BR    9.178000000000E-02  4.796500000000E-01  3.191900000000E-01
     61 F  35 BR    2.274100000000E-01 -9.178000000000E-02  3.878700000000E-01
     62 F  35 BR   -4.796500000000E-01 -1.604600000000E-01 -3.878700000000E-01

 TRANSFORMATION MATRIX PRIMITIVE-CRYSTALLOGRAPHIC CELL
  0.0000  1.0000  1.0000  1.0000  0.0000  1.0000  1.0000  1.0000  0.0000

 *******************************************************************************
 CRYSTALLOGRAPHIC CELL (VOLUME=       1598.18783439)
         A              B              C           ALPHA      BETA       GAMMA 
    10.96824569    10.96824569    13.28475288    90.000000  90.000000  90.000000

 COORDINATES IN THE CRYSTALLOGRAPHIC CELL
     ATOM                 X/A                 Y/B                 Z/C    
 *******************************************************************************
      1 T   1 H    -1.502000000000E-02 -3.552500000000E-01  9.334000000000E-02
      2 F   1 H     1.502000000000E-02  3.552500000000E-01  9.334000000000E-02
      3 F   1 H    -3.552500000000E-01  1.502000000000E-02 -9.334000000000E-02
      4 F   1 H     3.552500000000E-01 -1.502000000000E-02 -9.334000000000E-02
      5 T   1 H    -9.281000000000E-02  1.562000000000E-02  1.158000000000E-01
      6 F   1 H     9.281000000000E-02 -1.562000000000E-02  1.158000000000E-01
      7 F   1 H     1.562000000000E-02  9.281000000000E-02 -1.158000000000E-01
      8 F   1 H    -1.562000000000E-02 -9.281000000000E-02 -1.158000000000E-01
      9 T   6 C    -2.077600000000E-01 -3.172900000000E-01  1.134300000000E-01
     10 F   6 C     2.077600000000E-01  3.172900000000E-01  1.134300000000E-01
     11 F   6 C    -3.172900000000E-01  2.077600000000E-01 -1.134300000000E-01
     12 F   6 C     3.172900000000E-01 -2.077600000000E-01 -1.134300000000E-01
     13 T   6 C    -2.377100000000E-01 -4.466800000000E-01  1.223400000000E-01
     14 F   6 C     2.377100000000E-01  4.466800000000E-01  1.223400000000E-01
     15 F   6 C    -4.466800000000E-01  2.377100000000E-01 -1.223400000000E-01
     16 F   6 C     4.466800000000E-01 -2.377100000000E-01 -1.223400000000E-01
     17 T   6 C    -2.930100000000E-01 -2.219600000000E-01  1.209700000000E-01
     18 F   6 C     2.930100000000E-01  2.219600000000E-01  1.209700000000E-01
     19 F   6 C    -2.219600000000E-01  2.930100000000E-01 -1.209700000000E-01
     20 F   6 C     2.219600000000E-01 -2.930100000000E-01 -1.209700000000E-01
     21 T   6 C    -1.249500000000E-01 -7.909000000000E-02  1.141300000000E-01
     22 F   6 C     1.249500000000E-01  7.909000000000E-02  1.141300000000E-01
     23 F   6 C    -7.909000000000E-02  1.249500000000E-01 -1.141300000000E-01
     24 F   6 C     7.909000000000E-02 -1.249500000000E-01 -1.141300000000E-01
     25 T   6 C    -8.374000000000E-02 -2.845300000000E-01  1.041400000000E-01
     26 F   6 C     8.374000000000E-02  2.845300000000E-01  1.041400000000E-01
     27 F   6 C    -2.845300000000E-01  8.374000000000E-02 -1.041400000000E-01
     28 F   6 C     2.845300000000E-01 -8.374000000000E-02 -1.041400000000E-01
     29 T   6 C     2.502300000000E-01  1.016700000000E-01  1.198100000000E-01
     30 F   6 C    -2.502300000000E-01 -1.016700000000E-01  1.198100000000E-01
     31 F   6 C     1.016700000000E-01 -2.502300000000E-01 -1.198100000000E-01
     32 F   6 C    -1.016700000000E-01  2.502300000000E-01 -1.198100000000E-01
     33 T   7 N     3.434100000000E-01 -2.431000000000E-02 -3.335900000000E-01
     34 F   7 N    -3.434100000000E-01  2.431000000000E-02 -3.335900000000E-01
     35 F   7 N    -2.431000000000E-02 -3.434100000000E-01  3.335900000000E-01
     36 F   7 N     2.431000000000E-02  3.434100000000E-01  3.335900000000E-01
     37 T   7 N    -2.057600000000E-01  3.607000000000E-01  1.613500000000E-01
     38 F   7 N     2.057600000000E-01 -3.607000000000E-01  1.613500000000E-01
     39 F   7 N     3.607000000000E-01  2.057600000000E-01 -1.613500000000E-01
     40 F   7 N    -3.607000000000E-01 -2.057600000000E-01 -1.613500000000E-01
     41 T   7 N     1.629800000000E-01 -1.189000000000E-02 -4.086500000000E-01
     42 F   7 N    -1.629800000000E-01  1.189000000000E-02 -4.086500000000E-01
     43 F   7 N    -1.189000000000E-02 -1.629800000000E-01  4.086500000000E-01
     44 F   7 N     1.189000000000E-02  1.629800000000E-01  4.086500000000E-01
     45 T   7 N    -3.126500000000E-01  3.683700000000E-01  1.166200000000E-01
     46 F   7 N     3.126500000000E-01 -3.683700000000E-01  1.166200000000E-01
     47 F   7 N     3.683700000000E-01  3.126500000000E-01 -1.166200000000E-01
     48 F   7 N    -3.683700000000E-01 -3.126500000000E-01 -1.166200000000E-01
     49 T   7 N    -4.264000000000E-02 -1.694200000000E-01  1.061300000000E-01
     50 F   7 N     4.264000000000E-02  1.694200000000E-01  1.061300000000E-01
     51 F   7 N    -1.694200000000E-01  4.264000000000E-02 -1.061300000000E-01
     52 F   7 N     1.694200000000E-01 -4.264000000000E-02 -1.061300000000E-01
     53 T  30 ZN    0.000000000000E+00 -5.000000000000E-01  2.500000000000E-01
     54 T  30 ZN    0.000000000000E+00  0.000000000000E+00 -5.000000000000E-01
     55 T  35 BR    4.016000000000E-02  2.413500000000E-01 -3.661200000000E-01
     56 F  35 BR   -4.016000000000E-02 -2.413500000000E-01 -3.661200000000E-01
     57 F  35 BR    2.413500000000E-01 -4.016000000000E-02  3.661200000000E-01
     58 F  35 BR   -2.413500000000E-01  4.016000000000E-02  3.661200000000E-01
     59 T  35 BR   -3.535300000000E-01  3.434000000000E-02  1.261200000000E-01
     60 F  35 BR    3.535300000000E-01 -3.434000000000E-02  1.261200000000E-01
     61 F  35 BR    3.434000000000E-02  3.535300000000E-01 -1.261200000000E-01
     62 F  35 BR   -3.434000000000E-02 -3.535300000000E-01 -1.261200000000E-01

 T = ATOM BELONGING TO THE ASYMMETRIC UNIT

 ****    4 SYMMOPS - TRANSLATORS IN FRACTIONAL UNITS
 **** MATRICES AND TRANSLATORS IN THE CRYSTALLOGRAPHIC REFERENCE FRAME
   V INV                    ROTATION MATRICES                   TRANSLATORS
   1   1  1.00  0.00  0.00  0.00  1.00  0.00  0.00  0.00  1.00  0.00  0.00  0.00
   2   2  0.00  1.00 -1.00  1.00  0.00 -1.00  0.00  0.00 -1.00  0.00  0.00  0.00
   3   4  0.00 -1.00  0.00  0.00 -1.00  1.00  1.00 -1.00  0.00  0.00  0.00  0.00
   4   3 -1.00  0.00  1.00 -1.00  0.00  0.00 -1.00  1.00  0.00  0.00  0.00  0.00

 DIRECT LATTICE VECTORS CARTESIAN COMPONENTS (ANGSTROM)
          X                    Y                    Z
  -0.548412284580E+01   0.548412284580E+01   0.664237643790E+01
   0.548412284580E+01  -0.548412284580E+01   0.664237643790E+01
   0.548412284580E+01   0.548412284580E+01  -0.664237643790E+01


 CARTESIAN COORDINATES - PRIMITIVE CELL
 *******************************************************************************
 *      ATOM          X(ANGSTROM)         Y(ANGSTROM)         Z(ANGSTROM)
 *******************************************************************************
    1     1 H    -1.647430502878E-01 -3.896469281941E+00  1.239998833427E+00
    2     1 H     1.647430502878E-01  3.896469281941E+00  1.239998833427E+00
    3     1 H    -3.896469281941E+00  1.647430502878E-01 -1.239998833427E+00
    4     1 H     3.896469281941E+00 -1.647430502878E-01 -1.239998833427E+00
    5     1 H    -1.017962882637E+00  1.713239977028E-01  1.538374383018E+00
    6     1 H     1.017962882637E+00 -1.713239977028E-01  1.538374383018E+00
    7     1 H     1.713239977028E-01  1.017962882637E+00 -1.538374383018E+00
    8     1 H    -1.713239977028E-01 -1.017962882637E+00 -1.538374383018E+00
    9     6 C    -2.278762724887E+00 -3.480114675488E+00  1.506889518702E+00
   10     6 C     2.278762724887E+00  3.480114675488E+00  1.506889518702E+00
   11     6 C    -3.480114675488E+00  2.278762724887E+00 -1.506889518702E+00
   12     6 C     3.480114675488E+00 -2.278762724887E+00 -1.506889518702E+00
   13     6 C    -2.607261683350E+00 -4.899295985524E+00  1.625256666825E+00
   14     6 C     2.607261683350E+00  4.899295985524E+00  1.625256666825E+00
   15     6 C    -4.899295985524E+00  2.607261683350E+00 -1.625256666825E+00
   16     6 C     4.899295985524E+00 -2.607261683350E+00 -1.625256666825E+00
   17     6 C    -3.213805670096E+00 -2.434511813708E+00  1.607056555386E+00
   18     6 C     3.213805670096E+00  2.434511813708E+00  1.607056555386E+00
   19     6 C    -2.434511813708E+00  3.213805670096E+00 -1.607056555386E+00
   20     6 C     2.434511813708E+00 -3.213805670096E+00 -1.607056555386E+00
   21     6 C    -1.370482299165E+00 -8.674785517486E-01  1.516188845715E+00
   22     6 C     1.370482299165E+00  8.674785517486E-01  1.516188845715E+00
   23     6 C    -8.674785517486E-01  1.370482299165E+00 -1.516188845715E+00
   24     6 C     8.674785517486E-01 -1.370482299165E+00 -1.516188845715E+00
   25     6 C    -9.184808942146E-01 -3.120794946631E+00  1.383474164486E+00
   26     6 C     9.184808942146E-01  3.120794946631E+00  1.383474164486E+00
   27     6 C    -3.120794946631E+00  9.184808942146E-01 -1.383474164486E+00
   28     6 C     3.120794946631E+00 -9.184808942146E-01 -1.383474164486E+00
   29     6 C     2.744584119409E+00  1.115141539465E+00  1.591646242050E+00
   30     6 C    -2.744584119409E+00 -1.115141539465E+00  1.591646242050E+00
   31     6 C     1.115141539465E+00 -2.744584119409E+00 -1.591646242050E+00
   32     6 C    -1.115141539465E+00  2.744584119409E+00 -1.591646242050E+00
   33     7 N     3.766605252952E+00 -2.666380527628E-01 -4.431660711838E+00
   34     7 N    -3.766605252952E+00  2.666380527628E-01 -4.431660711838E+00
   35     7 N    -2.666380527628E-01 -3.766605252952E+00  4.431660711838E+00
   36     7 N     2.666380527628E-01  3.766605252952E+00  4.431660711838E+00
   37     7 N    -2.256826233504E+00  3.956246220960E+00  2.143494876510E+00
   38     7 N     2.256826233504E+00 -3.956246220960E+00  2.143494876510E+00
   39     7 N     3.956246220960E+00  2.256826233504E+00 -2.143494876510E+00
   40     7 N    -3.956246220960E+00 -2.256826233504E+00 -2.143494876510E+00
   41     7 N     1.787604682817E+00 -1.304124412731E-01 -5.428814262696E+00
   42     7 N    -1.787604682817E+00  1.304124412731E-01 -5.428814262696E+00
   43     7 N    -1.304124412731E-01 -1.787604682817E+00  5.428814262696E+00
   44     7 N     1.304124412731E-01  1.787604682817E+00  5.428814262696E+00
   45     7 N    -3.429222015479E+00  4.040372665415E+00  1.549267880376E+00
   46     7 N     3.429222015479E+00 -4.040372665415E+00  1.549267880376E+00
   47     7 N     4.040372665415E+00  3.429222015479E+00 -1.549267880376E+00
   48     7 N    -4.040372665415E+00 -3.429222015479E+00 -1.549267880376E+00
   49     7 N    -4.676859962898E-01 -1.858240185071E+00  1.409910822709E+00
   50     7 N     4.676859962898E-01  1.858240185071E+00  1.409910822709E+00
   51     7 N    -1.858240185071E+00  4.676859962898E-01 -1.409910822709E+00
   52     7 N     1.858240185071E+00 -4.676859962898E-01 -1.409910822709E+00
   53    30 ZN    0.000000000000E+00  5.484122845800E+00 -9.963564656850E+00
   54    30 ZN    0.000000000000E+00  0.000000000000E+00  6.642376437900E+00
   55    35 BR    4.404847469747E-01  2.647186097668E+00 -4.863813722888E+00
   56    35 BR   -4.404847469747E-01 -2.647186097668E+00 -4.863813722888E+00
   57    35 BR    2.647186097668E+00 -4.404847469747E-01  4.863813722888E+00
   58    35 BR   -2.647186097668E+00  4.404847469747E-01  4.863813722888E+00
   59    35 BR   -3.877603899351E+00  3.766495570495E-01  1.675473032696E+00
   60    35 BR    3.877603899351E+00 -3.766495570495E-01  1.675473032696E+00
   61    35 BR    3.766495570495E-01  3.877603899351E+00 -1.675473032696E+00
   62    35 BR   -3.766495570495E-01 -3.877603899351E+00 -1.675473032696E+00

 *******************************************************************************
 STARTING BASIS SET HANDLING 
 *******************************************************************************

 Loading internal basis set: POB-DZVPP           

 Please cite in your publication:
 Peintinger, M. F., Oliveira, D. V. and Bredow, T. (2013), Generally applicable 
 solid-state Gaussian basis sets, in preparation                                
                                                                                
                    

 *******************************************************************************
 LOCAL ATOMIC FUNCTIONS BASIS SET
 *******************************************************************************
   ATOM   X(AU)   Y(AU)   Z(AU)  N. TYPE  EXPONENT  S COEF   P COEF   D/F/G COEF
 *******************************************************************************
   1 H   -0.311  -7.363   2.343
                                  1 S  
                                         2.263E+01 1.441E-02 0.000E+00 0.000E+00
                                         3.236E+00 1.072E-01 0.000E+00 0.000E+00
                                         7.304E-01 3.846E-01 0.000E+00 0.000E+00
                                  2 S  
                                         1.417E-01 1.000E+00 0.000E+00 0.000E+00
                           3-     5 P  
                                         3.944E-01 0.000E+00 1.000E+00 0.000E+00
                           6-     8 P  
                                         1.006E-01 0.000E+00 1.000E+00 0.000E+00
   2 H    0.311   7.363   2.343
   3 H   -7.363   0.311  -2.343
   4 H    7.363  -0.311  -2.343
   5 H   -1.924   0.324   2.907
   6 H    1.924  -0.324   2.907
   7 H    0.324   1.924  -2.907
   8 H   -0.324  -1.924  -2.907
   9 C   -4.306  -6.576   2.848
                                 65 S  
                                         1.238E+03 5.457E-03 0.000E+00 0.000E+00
                                         1.863E+02 4.064E-02 0.000E+00 0.000E+00
                                         4.225E+01 1.803E-01 0.000E+00 0.000E+00
                                         1.168E+01 4.632E-01 0.000E+00 0.000E+00
                                         3.593E+00 4.409E-01 0.000E+00 0.000E+00
                                 66 S  
                                         5.281E+00 1.000E+00 0.000E+00 0.000E+00
                                 67 S  
                                         4.447E-01 1.000E+00 0.000E+00 0.000E+00
                          68-    70 P  
                                         9.468E+00 0.000E+00 3.839E-02 0.000E+00
                                         2.010E+00 0.000E+00 2.112E-01 0.000E+00
                                         5.477E-01 0.000E+00 5.133E-01 0.000E+00
                          71-    73 P  
                                         1.604E-01 0.000E+00 1.000E+00 0.000E+00
                          74-    78 D  
                                         6.070E-01 0.000E+00 0.000E+00 1.000E+00
                          79-    83 D  
                                         2.939E-01 0.000E+00 0.000E+00 1.000E+00
  10 C    4.306   6.576   2.848
  11 C   -6.576   4.306  -2.848
  12 C    6.576  -4.306  -2.848
  13 C   -4.927  -9.258   3.071
  14 C    4.927   9.258   3.071
  15 C   -9.258   4.927  -3.071
  16 C    9.258  -4.927  -3.071
  17 C   -6.073  -4.601   3.037
  18 C    6.073   4.601   3.037
  19 C   -4.601   6.073  -3.037
  20 C    4.601  -6.073  -3.037
  21 C   -2.590  -1.639   2.865
  22 C    2.590   1.639   2.865
  23 C   -1.639   2.590  -2.865
  24 C    1.639  -2.590  -2.865
  25 C   -1.736  -5.897   2.614
  26 C    1.736   5.897   2.614
  27 C   -5.897   1.736  -2.614
  28 C    5.897  -1.736  -2.614
  29 C    5.187   2.107   3.008
  30 C   -5.187  -2.107   3.008
  31 C    2.107  -5.187  -3.008
  32 C   -2.107   5.187  -3.008
  33 N    7.118  -0.504  -8.375
                                521 S  
                                         1.713E+03-5.393E-03 0.000E+00 0.000E+00
                                         2.576E+02-4.022E-02 0.000E+00 0.000E+00
                                         5.846E+01-1.793E-01 0.000E+00 0.000E+00
                                         1.620E+01-4.638E-01 0.000E+00 0.000E+00
                                         5.005E+00-4.417E-01 0.000E+00 0.000E+00
                                522 S  
                                         6.217E-01 1.000E+00 0.000E+00 0.000E+00
                                523 S  
                                         2.921E-01 1.000E+00 0.000E+00 0.000E+00
                         524-   526 P  
                                         1.357E+01 0.000E+00-4.007E-02 0.000E+00
                                         2.926E+00 0.000E+00-2.181E-01 0.000E+00
                                         7.993E-01 0.000E+00-5.129E-01 0.000E+00
                         527-   529 P  
                                         2.244E-01 0.000E+00 1.000E+00 0.000E+00
                         530-   534 D  
                                         3.118E-01 0.000E+00 0.000E+00 1.000E+00
  34 N   -7.118   0.504  -8.375
  35 N   -0.504  -7.118   8.375
  36 N    0.504   7.118   8.375
  37 N   -4.265   7.476   4.051
  38 N    4.265  -7.476   4.051
  39 N    7.476   4.265  -4.051
  40 N   -7.476  -4.265  -4.051
  41 N    3.378  -0.246 -10.259
  42 N   -3.378   0.246 -10.259
  43 N   -0.246  -3.378  10.259
  44 N    0.246   3.378  10.259
  45 N   -6.480   7.635   2.928
  46 N    6.480  -7.635   2.928
  47 N    7.635   6.480  -2.928
  48 N   -7.635  -6.480  -2.928
  49 N   -0.884  -3.512   2.664
  50 N    0.884   3.512   2.664
  51 N   -3.512   0.884  -2.664
  52 N    3.512  -0.884  -2.664
  53 ZN   0.000  10.363 -18.828
                                801 S  
                                         8.200E+04 1.421E-03 0.000E+00 0.000E+00
                                         1.231E+04 1.089E-02 0.000E+00 0.000E+00
                                         2.801E+03 5.406E-02 0.000E+00 0.000E+00
                                         7.910E+02 1.885E-01 0.000E+00 0.000E+00
                                         2.576E+02 3.835E-01 0.000E+00 0.000E+00
                                         8.881E+01 2.972E-01 0.000E+00 0.000E+00
                                802 S  
                                         1.719E+02-1.105E-01 0.000E+00 0.000E+00
                                         2.030E+01 6.461E-01 0.000E+00 0.000E+00
                                         8.346E+00 4.422E-01 0.000E+00 0.000E+00
                                803 S  
                                         1.485E+01-2.271E-01 0.000E+00 0.000E+00
                                         2.450E+00 7.243E-01 0.000E+00 0.000E+00
                                         9.985E-01 4.484E-01 0.000E+00 0.000E+00
                                804 S  
                                         1.493E+00 1.000E+00 0.000E+00 0.000E+00
                                805 S  
                                         1.830E-01 1.000E+00 0.000E+00 0.000E+00
                         806-   808 P  
                                         1.072E+03 0.000E+00 9.277E-03 0.000E+00
                                         2.527E+02 0.000E+00 6.954E-02 0.000E+00
                                         8.010E+01 0.000E+00 2.716E-01 0.000E+00
                                         2.890E+01 0.000E+00 5.340E-01 0.000E+00
                                         1.077E+01 0.000E+00 3.450E-01 0.000E+00
                         809-   811 P  
                                         5.645E+00 0.000E+00 3.413E-01 0.000E+00
                                         2.168E+00 0.000E+00 5.639E-01 0.000E+00
                                         8.054E-01 0.000E+00 2.368E-01 0.000E+00
                         812-   814 P  
                                         2.721E-01 0.000E+00 1.000E+00 0.000E+00
                         815-   819 D  
                                         5.609E+01 0.000E+00 0.000E+00 2.959E-02
                                         1.575E+01 0.000E+00 0.000E+00 1.587E-01
                                         5.312E+00 0.000E+00 0.000E+00 3.798E-01
                                         1.774E+00 0.000E+00 0.000E+00 4.690E-01
                         820-   824 D  
                                         5.073E-01 0.000E+00 0.000E+00 1.000E+00
                         825-   831 F  
                                         2.814E+00 0.000E+00 0.000E+00 1.000E+00
                         832-   838 F  
                                         1.300E+00 0.000E+00 0.000E+00 1.000E+00
  54 ZN   0.000   0.000  12.552
  55 BR   0.832   5.002  -9.191
                                877 S  
                                         1.133E+05 1.428E-03 0.000E+00 0.000E+00
                                         1.701E+04 1.095E-02 0.000E+00 0.000E+00
                                         3.870E+03 5.442E-02 0.000E+00 0.000E+00
                                         1.093E+03 1.905E-01 0.000E+00 0.000E+00
                                         3.564E+02 3.902E-01 0.000E+00 0.000E+00
                                         1.231E+02 3.081E-01 0.000E+00 0.000E+00
                                878 S  
                                         2.367E+02-1.123E-01 0.000E+00 0.000E+00
                                         2.847E+01 6.478E-01 0.000E+00 0.000E+00
                                         1.188E+01 4.424E-01 0.000E+00 0.000E+00
                                879 S  
                                         2.127E+01-2.264E-01 0.000E+00 0.000E+00
                                         3.613E+00 7.382E-01 0.000E+00 0.000E+00
                                         1.663E+00 4.268E-01 0.000E+00 0.000E+00
                                880 S  
                                         3.641E-01 1.000E+00 0.000E+00 0.000E+00
                                881 S  
                                         1.243E-01 1.000E+00 0.000E+00 0.000E+00
                         882-   884 P  
                                         1.560E+03 0.000E+00 8.717E-03 0.000E+00
                                         3.685E+02 0.000E+00 6.624E-02 0.000E+00
                                         1.172E+02 0.000E+00 2.650E-01 0.000E+00
                                         4.265E+01 0.000E+00 5.384E-01 0.000E+00
                                         1.609E+01 0.000E+00 3.658E-01 0.000E+00
                         885-   887 P  
                                         8.635E+00 0.000E+00 3.425E-01 0.000E+00
                                         3.561E+00 0.000E+00 5.750E-01 0.000E+00
                                         1.529E+00 0.000E+00 2.433E-01 0.000E+00
                         888-   890 P  
                                         6.447E-01 0.000E+00 1.000E+00 0.000E+00
                         891-   893 P  
                                         2.103E-01 0.000E+00 1.000E+00 0.000E+00
                         894-   898 D  
                                         1.049E+02 0.000E+00 0.000E+00 2.265E-02
                                         3.028E+01 0.000E+00 0.000E+00 1.346E-01
                                         1.065E+01 0.000E+00 0.000E+00 3.647E-01
                                         3.870E+00 0.000E+00 0.000E+00 4.904E-01
                         899-   903 D  
                                         1.342E+00 0.000E+00 0.000E+00 1.000E+00
                         904-   908 D  
                                         4.101E-01 0.000E+00 0.000E+00 1.000E+00
                         909-   913 D  
                                         1.985E-01 0.000E+00 0.000E+00 1.000E+00
  56 BR  -0.832  -5.002  -9.191
  57 BR   5.002  -0.832   9.191
  58 BR  -5.002   0.832   9.191
  59 BR  -7.328   0.712   3.166
  60 BR   7.328  -0.712   3.166
  61 BR   0.712   7.328  -3.166
  62 BR  -0.712  -7.328  -3.166

 *******************************************************************************
 FINISHED BASIS SET HANDLING 
 *******************************************************************************

 INFORMATION **** SET_MPP **** PCRYSTAL CALCULATION
 INFORMATION **** READM2 **** NEW DEFAULT: FOCK/KS MATRIX MIXING SET TO 30 %
 INFORMATION **** READM2 **** NEW DEFAULT: FULL DIRECT SCF MODE
 INFORMATION **** READM2 **** NEW DEFAULT: COULOMB BIPOLAR BUFFER SET TO 32 Mb
 INFORMATION **** READM2 **** NEW DEFAULT: EXCHANGE BIPOLAR BUFFER SET TO 32 Mb

 *******************************************************************************
 NEW DEFAULT: DFT INTEGRATION GRID INCREASED TO XLGRID
 NEW DEFAULT: DIIS ACCELERATOR ACTIVE
 USE KEYWORD NODIIS TO TURN IT OFF
 *******************************************************************************

 INFORMATION **** DFTD3_INPUT **** PERFORM DISPERSION CORRECTION DFT-D3(BJ) IN THE BECKE-JOHNSON DAMPING SCHEME

 PLEASE CITE:
 (1) DFT-D3 Reference
  S. Grimme, J. Antony, S. Ehrlich, and H. Krieg, J. Chem. Phys. 132 (2010), 154104
 (2) BJ-Damping Reference
  S. Grimme, S. Ehrlich, and L. Goerigk, J. Comput. Chem. 32 (2011), 1456-1465
 (3) General DFT-D Review
  S. Grimme, A. Hansen, J. G. Brandenburg, and C. Bannwarth,
  Chem. Rev. 116 (2016), 5105-5154

 INFORMATION **** TOLINTEG **** COULOMB AND EXCHANGE SERIES TOLERANCES MODIFIED
 INFORMATION **** BIPOSIZE **** COULOMB BIPOLAR BUFFER SET TO   100000000
 INFORMATION **** MAXCYCLE **** MAX NUMBER OF SCF CYCLES SET TO          50
 *******************************************************************************
 N. OF ATOMS PER CELL        62  COULOMB OVERLAP TOL         (T1) 10**  -12
 NUMBER OF SHELLS           448  COULOMB PENETRATION TOL     (T2) 10**  -12
 NUMBER OF AO              1172  EXCHANGE OVERLAP TOL        (T3) 10**   20
 N. OF ELECTRONS PER CELL   632  EXCHANGE PSEUDO OVP (F(G))  (T4) 10**   20
 CORE ELECTRONS PER CELL    348  EXCHANGE PSEUDO OVP (P(G))  (T5) 10**   20
 N. OF SYMMETRY OPERATORS     4  POLE ORDER IN MONO ZONE                  4
 *******************************************************************************
 TYPE OF CALCULATION :  RESTRICTED CLOSED SHELL
 KOHN-SHAM HAMILTONIAN

 (EXCHANGE)[CORRELATION] FUNCTIONAL:(PERDEW-BURKE-ERNZERHOF)[PERDEW-BURKE-ERNZERHOF]


 CAPPA:IS1  3;IS2  3;IS3  3; K PTS MONK NET   6; SYMMOPS:K SPACE   8;G SPACE   4

 *******************************************************************************
 MAX NUMBER OF SCF CYCLES      50  CONVERGENCE ON DELTAP        10**-16
 WEIGHT OF F(I) IN F(I+1)      30% CONVERGENCE ON ENERGY        10**- 6
 SHRINK. FACT.(MONKH.)    3  3  3  NUMBER OF K POINTS IN THE IBZ      6
 SHRINKING FACTOR(GILAT NET)    3  NUMBER OF K POINTS(GILAT NET)      6
 *******************************************************************************
 *** K POINTS COORDINATES (OBLIQUE COORDINATES IN UNITS OF IS =  3)
   1-R(  0  0  0)   2-C(  1  0  0)   3-C(  1  1  0)   4-C(  2  1  0)
   5-C(  2  1  1)   6-C(  2  2  1)

 DIRECT LATTICE VECTORS COMPON. (A.U.)     RECIP. LATTICE VECTORS COMPON. (A.U.) 
        X            Y            Z              X            Y            Z
  -10.3634903   10.3634903   12.5522723      0.0000000    0.3031404    0.2502808
   10.3634903  -10.3634903   12.5522723      0.3031404    0.0000000    0.2502808
   10.3634903   10.3634903  -12.5522723      0.3031404    0.3031404    0.0000000

 DISK SPACE FOR EIGENVECTORS (FTN 10)    15109424 REALS

 SYMMETRY ADAPTION OF THE BLOCH FUNCTIONS ENABLED
 TTTTTTTTTTTTTTTTTTTTTTTTTTTTTT gordsh1     TELAPSE        7.88 TCPU        0.09

 MATRIX SIZE: P(G) 2036324, F(G) 1018972, P(G) IRR  257223, F(G) IRR  257223
 MAX G-VECTOR INDEX FOR 1- AND 2-ELECTRON INTEGRALS  59

 TTTTTTTTTTTTTTTTTTTTTTTTTTTTTT INPUT       TELAPSE        7.98 TCPU        0.19

 NEIGHBORS OF THE NON-EQUIVALENT ATOMS

 N = NUMBER OF NEIGHBORS AT DISTANCE R
    ATOM  N     R/ANG      R/AU   NEIGHBORS (ATOM LABELS AND CELL INDICES)
   1 H    1     1.0910     2.0618   25 C    0 0 0
   1 H    1     2.0676     3.9072   49 N    0 0 0
   1 H    1     2.1711     4.1028    9 C    0 0 0
   1 H    1     2.4961     4.7169   34 N    0 1 0
   1 H    1     2.5853     4.8855   38 N    0 0 0
   1 H    1     2.6061     4.9248   33 N    0 0-1

   5 H    1     1.0972     2.0734   21 C    0 0 0
   5 H    1     2.0646     3.9014    6 H    0 0 0
   5 H    1     2.1068     3.9812   49 N    0 0 0
   5 H    1     2.1538     4.0702   30 C    0 0 0
   5 H    1     2.2515     4.2548   50 N    0 0 0
   5 H    1     2.4879     4.7015   22 C    0 0 0

   9 C    1     1.4063     2.6575   17 C    0 0 0
   9 C    1     1.4123     2.6689   25 C    0 0 0
   9 C    1     1.4615     2.7618   13 C    0 0 0
   9 C    1     2.1711     4.1028    1 H    0 0 0
   9 C    1     2.4119     4.5578   30 C    0 0 0
   9 C    1     2.4331     4.5979   49 N    0 0 0

  13 C    1     1.3636     2.5768   33 N    0 0-1
  13 C    1     1.3666     2.5825   41 N    0 0-1
  13 C    1     1.4615     2.7618    9 C    0 0 0
  13 C    1     2.1901     4.1387   45 N   -1 0-1
  13 C    1     2.2034     4.1638   37 N   -1 0-1
  13 C    1     2.4644     4.6571   25 C    0 0 0

  17 C    1     1.4004     2.6464   30 C    0 0 0
  17 C    1     1.4063     2.6575    9 C    0 0 0
  17 C    1     1.8814     3.5553   55 BR   0 0-1
  17 C    1     2.4061     4.5469   25 C    0 0 0
  17 C    1     2.4211     4.5752   21 C    0 0 0
  17 C    1     2.5384     4.7968   13 C    0 0 0

  21 C    1     1.0972     2.0734    5 H    0 0 0
  21 C    1     1.3446     2.5409   49 N    0 0 0
  21 C    1     1.3983     2.6424   30 C    0 0 0
  21 C    1     2.3020     4.3502   25 C    0 0 0
  21 C    1     2.4211     4.5752   17 C    0 0 0
  21 C    1     2.4879     4.7015    6 H    0 0 0

  25 C    1     1.0910     2.0618    1 H    0 0 0
  25 C    1     1.3409     2.5339   49 N    0 0 0
  25 C    1     1.4123     2.6689    9 C    0 0 0
  25 C    1     2.3020     4.3502   21 C    0 0 0
  25 C    1     2.4061     4.5469   17 C    0 0 0
  25 C    1     2.4644     4.6571   13 C    0 0 0

  29 C    1     1.3983     2.6424   22 C    0 0 0
  29 C    1     1.4004     2.6464   18 C    0 0 0
  29 C    1     1.8752     3.5435   60 BR   0 0 0
  29 C    1     2.1538     4.0702    6 H    0 0 0
  29 C    1     2.4020     4.5391   50 N    0 0 0
  29 C    1     2.4119     4.5578   10 C    0 0 0

  33 N    1     1.3636     2.5768   13 C    0 0 1
  33 N    1     1.3734     2.5953   37 N   -1 0 0
  33 N    1     2.0625     3.8977   53 ZN   0 1 0
  33 N    1     2.1801     4.1199   45 N   -1 0 0
  33 N    1     2.2202     4.1956   41 N    0 0 0
  33 N    1     2.4426     4.6158    9 C    0 0 1

  37 N    1     1.3171     2.4889   45 N    0 0 0
  37 N    1     1.3734     2.5953   33 N    1 0 0
  37 N    1     2.2034     4.1638   13 C    1 0 1
  37 N    1     2.2114     4.1790   41 N    1 0 0
  37 N    1     2.5853     4.8855    2 H    0 0 0
  37 N    1     2.9689     5.6105   53 ZN   1 1 0

  41 N    1     1.3666     2.5825   13 C    0 0 1
  41 N    1     1.3817     2.6110   45 N   -1 0 0
  41 N    1     2.1645     4.0904   54 ZN  -1-1 0
  41 N    1     2.2114     4.1790   37 N   -1 0 0
  41 N    1     2.2202     4.1956   33 N    0 0 0
  41 N    1     2.5791     4.8738    9 C    0 0 1

  45 N    1     1.3171     2.4889   37 N    0 0 0
  45 N    1     1.3817     2.6110   41 N    1 0 0
  45 N    1     2.1801     4.1199   33 N    1 0 0
  45 N    1     2.1901     4.1387   13 C    1 0 1
  45 N    1     2.7799     5.2532   56 BR   1 0 0
  45 N    1     2.9508     5.5762   54 ZN   0-1 0

  49 N    1     1.3409     2.5339   25 C    0 0 0
  49 N    1     1.3446     2.5409   21 C    0 0 0
  49 N    1     2.0676     3.9072    1 H    0 0 0
  49 N    1     2.1068     3.9812    5 H    0 0 0
  49 N    1     2.2515     4.2548    6 H    0 0 0
  49 N    1     2.4020     4.5391   30 C    0 0 0

  53 ZN   4     2.0625     3.8977   33 N    0-1 0   34 N    0 0 1   35 N    0-1 1
                                    36 N   -1-1 0
  53 ZN   4     2.6228     4.9564    1 H    0-1 1    2 H   -1-1 0    3 H    0 0 1
                                     4 H    0-1 0
  53 ZN   4     2.9689     5.6105   37 N   -1-1 0   38 N    0-1 1   39 N    0-1 0
                                    40 N    0 0 1
  53 ZN   4     3.1648     5.9806   13 C    0-1 1   14 C   -1-1 0   15 C    0 0 1
                                    16 C    0-1 0
  53 ZN   4     3.1912     6.0305   25 C    0-1 1   26 C   -1-1 0   27 C    0 0 1
                                    28 C    0-1 0
  53 ZN   4     3.5356     6.6813    9 C    0-1 1   10 C   -1-1 0   11 C    0 0 1
                                    12 C    0-1 0

  54 ZN   4     2.1645     4.0904   41 N    1 1 0   42 N    1 1 0   43 N    0 0 0
                                    44 N    0 0 0
  54 ZN   4     2.9508     5.5762   45 N    0 1 0   46 N    1 0 0   47 N    0 0-1
                                    48 N    1 1 1
  54 ZN   4     3.2195     6.0839   55 BR   1 1 0   56 BR   1 1 0   57 BR   0 0 0
                                    58 BR   0 0 0
  54 ZN   4     3.3556     6.3411   13 C    1 1 1   14 C    0 0-1   15 C    0 1 0
                                    16 C    1 0 0
  54 ZN   4     4.0695     7.6903    9 C    1 1 1   10 C    0 0-1   11 C    0 1 0
                                    12 C    1 0 0
  54 ZN   4     4.1276     7.8000   17 C    1 1 1   18 C    0 0-1   19 C    0 1 0
                                    20 C    1 0 0

  55 BR   1     1.8814     3.5553   17 C    0 0 1
  55 BR   1     2.7799     5.2532   46 N    0-1 0
  55 BR   1     2.8517     5.3889    9 C    0 0 1
  55 BR   1     2.8784     5.4394   30 C    0 0 1
  55 BR   1     3.1286     5.9121   44 N   -1-1 0
  55 BR   1     3.1383     5.9306   41 N    0 0 0

  59 BR   1     1.8752     3.5435   30 C    0 0 0
  59 BR   1     2.8034     5.2976   21 C    0 0 0
  59 BR   1     2.8703     5.4240    5 H    0 0 0
  59 BR   1     2.8893     5.4599   17 C    0 0 0
  59 BR   1     2.9232     5.5241    3 H    0 0 0
  59 BR   1     3.1974     6.0422   27 C    0 0 0


 SYMMETRY ALLOWED INTERNAL DEGREE(S) OF FREEDOM:  45
 TTTTTTTTTTTTTTTTTTTTTTTTTTTTTT SYMM        TELAPSE        8.05 TCPU        0.26
 TTTTTTTTTTTTTTTTTTTTTTTTTTTTTT INT_SCREEN  TELAPSE        8.06 TCPU        0.27
 INFORMATION **** EXCBUF **** EXCH. BIPO BUFFER: WORDS USED =           0

 DFT PARAMETERS

     ATOM       ELECTRONS   NET CHARGE   R(ANGSTROM)
   1   1  H       1.0000      0.0000     1.11000000
   9   6  C       6.0000      0.0000     0.77000000
  33   7  N       7.0000      0.0000     0.74000000
  53  30  ZN     30.0000      0.0000     1.37000000
  55  35  BR     35.0000      0.0000     1.14000000

 SIZE OF GRID=     462729
 TTTTTTTTTTTTTTTTTTTTTTTTTTTTTT MAKE_GRID2  TELAPSE        8.82 TCPU        1.03
 BECKE WEIGHT FUNCTION
 RADSAFE =     2.00
 TOLERANCES - DENSITY:10**- 6; POTENTIAL:10**- 9; GRID WGT:10**-14

 RADIAL INTEGRATION  - INTERVALS (POINTS,UPPER LIMIT):            1( 75,  4.0*R)

 ANGULAR INTEGRATION - INTERVALS (ACCURACY LEVEL [N. POINTS] UPPER LIMIT):
  1(  4[  86]   0.2)  2(  8[ 194]   0.5)  3( 12[ 350]   0.9)  4( 16[ 974]   3.5)
  5( 12[ 350]9999.0)
 TTTTTTTTTTTTTTTTTTTTTTTTTTTTTT INT_CALC    TELAPSE        8.86 TCPU        1.06
 EEEEEEEEEE INT_CALC TERMINATION  DATE 08 03 2024 TIME 07:00:29.7

 *******************************************************************************
 Z:\home\sanoj\Downloads\tmp_p\newconn.mol                                       
 CRYSTAL - SCF - TYPE OF CALCULATION :  RESTRICTED CLOSED SHELL
 *******************************************************************************

 CAPPA:IS1  3;IS2  3;IS3  3; K PTS MONK NET   6; SYMMOPS:K SPACE   8;G SPACE   4

 TTTTTTTTTTTTTTTTTTTTTTTTTTTTTT SDIK        TELAPSE        9.04 TCPU        1.24

 AAAAAAAAAAAAAAAAAAAAAAAAAAAAAAAAAAAAAAAAAAAAAAAAAAAAAAAAAAAAAAAAAAAAAAAAAAAAAAA
         ATOMIC WAVEFUNCTION(S)


 NUCLEAR CHARGE  1.0  SYMMETRY SPECIES            S
 N. ELECTRONS    1.0  NUMBER OF PRIMITIVE GTOS    4
                      NUMBER OF CONTRACTED GTOS   2
                      NUMBER OF CLOSED SHELLS     0
                      OPEN SHELL OCCUPATION       1

  ZNUC SCFIT  TOTAL HF ENERGY   KINETIC ENERGY   VIRIAL THEOREM ACCURACY
   1.0   1   -4.946643675E-01  4.917913167E-01 -2.005842012E+00  9.4E-17

 NUCLEAR CHARGE  6.0  SYMMETRY SPECIES            S    P
 N. ELECTRONS    6.0  NUMBER OF PRIMITIVE GTOS    7    4
                      NUMBER OF CONTRACTED GTOS   3    2
                      NUMBER OF CLOSED SHELLS     2    0
                      OPEN SHELL OCCUPATION       0    2

  ZNUC SCFIT  TOTAL HF ENERGY   KINETIC ENERGY   VIRIAL THEOREM ACCURACY
   6.0   6   -3.750912652E+01  3.905246519E+01 -1.960480378E+00  3.7E-06

 NUCLEAR CHARGE  7.0  SYMMETRY SPECIES            S    P
 N. ELECTRONS    7.0  NUMBER OF PRIMITIVE GTOS    7    4
                      NUMBER OF CONTRACTED GTOS   3    2
                      NUMBER OF CLOSED SHELLS     2    0
                      OPEN SHELL OCCUPATION       0    3

  ZNUC SCFIT  TOTAL HF ENERGY   KINETIC ENERGY   VIRIAL THEOREM ACCURACY
   7.0   9   -5.432196661E+01  5.425066284E+01 -2.001314339E+00  1.2E-06

 NUCLEAR CHARGE 30.0  SYMMETRY SPECIES            S    P    D
 N. ELECTRONS   30.0  NUMBER OF PRIMITIVE GTOS   14    9    5
                      NUMBER OF CONTRACTED GTOS   5    3    2
                      NUMBER OF CLOSED SHELLS     4    2    1
                      OPEN SHELL OCCUPATION       0    0    0

  ZNUC SCFIT  TOTAL HF ENERGY   KINETIC ENERGY   VIRIAL THEOREM ACCURACY
  30.0  10   -1.777404290E+03  1.777325716E+03 -2.000044209E+00  2.5E-06

 NUCLEAR CHARGE 35.0  SYMMETRY SPECIES            S    P    D
 N. ELECTRONS   35.0  NUMBER OF PRIMITIVE GTOS   14   10    7
                      NUMBER OF CONTRACTED GTOS   5    4    4
                      NUMBER OF CLOSED SHELLS     4    2    1
                      OPEN SHELL OCCUPATION       0    5    0

  ZNUC SCFIT  TOTAL HF ENERGY   KINETIC ENERGY   VIRIAL THEOREM ACCURACY
  35.0  13   -2.572060514E+03  2.572021521E+03 -2.000015161E+00  3.6E-06

 AAAAAAAAAAAAAAAAAAAAAAAAAAAAAAAAAAAAAAAAAAAAAAAAAAAAAAAAAAAAAAAAAAAAAAAAAAAAAAA

 TOTAL ATOMIC CHARGES:
   1.0000000   1.0000000   1.0000000   1.0000000   1.0000000   1.0000000
   1.0000000   1.0000000   6.0000000   6.0000000   6.0000000   6.0000000
   6.0000000   6.0000000   6.0000000   6.0000000   6.0000000   6.0000000
   6.0000000   6.0000000   6.0000000   6.0000000   6.0000000   6.0000000
   6.0000000   6.0000000   6.0000000   6.0000000   6.0000000   6.0000000
   6.0000000   6.0000000   7.0000000   7.0000000   7.0000000   7.0000000
   7.0000000   7.0000000   7.0000000   7.0000000   7.0000000   7.0000000
   7.0000000   7.0000000   7.0000000   7.0000000   7.0000000   7.0000000
   7.0000000   7.0000000   7.0000000   7.0000000  30.0000000  30.0000000
  35.0000000  35.0000000  35.0000000  35.0000000  35.0000000  35.0000000
  35.0000000  35.0000000
 TTTTTTTTTTTTTTTTTTTTTTTTTTTTTT MOQGAD      TELAPSE       12.20 TCPU        4.39
 TTTTTTTTTTTTTTTTTTTTTTTTTTTTTT SHELLXN     TELAPSE       56.10 TCPU       31.60
 TTTTTTTTTTTTTTTTTTTTTTTTTTTTTT MONMO3      TELAPSE       56.50 TCPU       32.00
 NUMERICALLY INTEGRATED DENSITY    632.0001083116
 TTTTTTTTTTTTTTTTTTTTTTTTTTTTTT NUMDFT      TELAPSE       57.12 TCPU       32.61
 CYC   0 ETOT(AU) -2.615989535273E+04 DETOT -2.62E+04 tst  0.00E+00 PX  1.00E+00
 TTTTTTTTTTTTTTTTTTTTTTTTTTTTTT DIIS        TELAPSE       57.18 TCPU       32.67
 TTTTTTTTTTTTTTTTTTTTTTTTTTTTTT FDIK        TELAPSE       92.78 TCPU       56.06
 INSULATING STATE
 TOP OF VALENCE BANDS -    BAND    316; K    4; EIG -1.3530199E-01 AU
 TOP OF VALENCE BANDS -    BAND    316; K    1; EIG -1.3618704E-01 AU
 BOTTOM OF VIRTUAL BANDS - BAND    317; K    6; EIG -9.5841899E-02 AU
 INDIRECT ENERGY BAND GAP:   1.0738 eV
 BOTTOM OF VIRTUAL BANDS - BAND    317; K    1; EIG -9.5000830E-02 AU
 TTTTTTTTTTTTTTTTTTTTTTTTTTTTTT PDIG        TELAPSE       93.59 TCPU       56.86
 TOTAL ATOMIC CHARGES:
   1.3918418   1.3918418   1.3918418   1.3918418   1.2516575   1.2516575
   1.2516575   1.2516575   6.1513223   6.1513223   6.1513223   6.1513223
   5.4620685   5.4620685   5.4620685   5.4620685   5.7287853   5.7287853
   5.7287853   5.7287853   5.8540058   5.8540058   5.8540058   5.8540058
   5.8816192   5.8816192   5.8816192   5.8816192   5.6575711   5.6575711
   5.6575711   5.6575711   7.4035408   7.4035408   7.4035408   7.4035408
   7.1947588   7.1947588   7.1947588   7.1947588   7.4290659   7.4290659
   7.4290659   7.4290659   7.1270331   7.1270331   7.1270331   7.1270331
   7.4991557   7.4991557   7.4991557   7.4991557  27.6974235  27.9815813
  35.0350748  35.0350748  35.0350748  35.0350748  35.0127482  35.0127482
  35.0127482  35.0127482
 TTTTTTTTTTTTTTTTTTTTTTTTTTTTTT MOQGAD      TELAPSE       93.61 TCPU       56.88
 TTTTTTTTTTTTTTTTTTTTTTTTTTTTTT SHELLXN     TELAPSE      128.66 TCPU       89.41
 TTTTTTTTTTTTTTTTTTTTTTTTTTTTTT MONMO3      TELAPSE      129.51 TCPU       90.25
 NUMERICALLY INTEGRATED DENSITY    632.0000997680
 TTTTTTTTTTTTTTTTTTTTTTTTTTTTTT NUMDFT      TELAPSE      131.37 TCPU       92.11
 CYC   1 ETOT(AU) -2.615470316431E+04 DETOT  5.19E+00 tst  0.00E+00 PX  1.00E+00
 TTTTTTTTTTTTTTTTTTTTTTTTTTTTTT DIIS        TELAPSE      131.53 TCPU       92.27
 DIIS TEST: 0.11065E+02 AT SCF   CYCLE   1 - MIX   30 %
 TTTTTTTTTTTTTTTTTTTTTTTTTTTTTT FDIK        TELAPSE      141.06 TCPU       99.64
 INSULATING STATE
 TOP OF VALENCE BANDS -    BAND    316; K    3; EIG -1.2930539E-01 AU
 TOP OF VALENCE BANDS -    BAND    316; K    1; EIG -1.3100610E-01 AU
 BOTTOM OF VIRTUAL BANDS - BAND    317; K    1; EIG -1.2412411E-01 AU
 INDIRECT ENERGY BAND GAP:   0.1410 eV
 TTTTTTTTTTTTTTTTTTTTTTTTTTTTTT PDIG        TELAPSE      141.87 TCPU      100.44
 TOTAL ATOMIC CHARGES:
   1.4016470   1.4016470   1.4016470   1.4016470   1.2029085   1.2029085
   1.2029085   1.2029085   6.2428031   6.2428031   6.2428031   6.2428031
   6.2855117   6.2855117   6.2855117   6.2855117   6.4379809   6.4379809
   6.4379809   6.4379809   5.9386607   5.9386607   5.9386607   5.9386607
   6.2604601   6.2604601   6.2604601   6.2604601   6.0006876   6.0006876
   6.0006876   6.0006876   7.0086962   7.0086962   7.0086962   7.0086962
   6.8459413   6.8459413   6.8459413   6.8459413   6.9078281   6.9078281
   6.9078281   6.9078281   6.8677430   6.8677430   6.8677430   6.8677430
   5.8951346   5.8951346   5.8951346   5.8951346  29.8329758  29.4518281
  34.9807296  34.9807296  34.9807296  34.9807296  34.9020667  34.9020667
  34.9020667  34.9020667
 TTTTTTTTTTTTTTTTTTTTTTTTTTTTTT MOQGAD      TELAPSE      141.89 TCPU      100.47
 TTTTTTTTTTTTTTTTTTTTTTTTTTTTTT SHELLXN     TELAPSE      178.74 TCPU      132.85
 TTTTTTTTTTTTTTTTTTTTTTTTTTTTTT MONMO3      TELAPSE      179.14 TCPU      133.24
 NUMERICALLY INTEGRATED DENSITY    632.0001129819
 TTTTTTTTTTTTTTTTTTTTTTTTTTTTTT NUMDFT      TELAPSE      180.95 TCPU      135.05
 CYC   2 ETOT(AU) -2.615290505228E+04 DETOT  1.80E+00 tst  5.02E-02 PX  8.41E-01
 TTTTTTTTTTTTTTTTTTTTTTTTTTTTTT DIIS        TELAPSE      181.12 TCPU      135.21
 DIIS TEST: 0.23637E+02 AT SCF   CYCLE   2 - DIIS ACTIVE - HISTORY:     2 CYCLES
 TTTTTTTTTTTTTTTTTTTTTTTTTTTTTT FDIK        TELAPSE      189.86 TCPU      141.70
 INSULATING STATE
 TOP OF VALENCE BANDS -    BAND    316; K    4; EIG -2.2830435E-01 AU
 TOP OF VALENCE BANDS -    BAND    316; K    1; EIG -2.3058972E-01 AU
 BOTTOM OF VIRTUAL BANDS - BAND    317; K    1; EIG -1.2634244E-01 AU
 INDIRECT ENERGY BAND GAP:   2.7745 eV
 TTTTTTTTTTTTTTTTTTTTTTTTTTTTTT PDIG        TELAPSE      190.66 TCPU      142.50
 TOTAL ATOMIC CHARGES:
   1.2956608   1.2956608   1.2956608   1.2956608   1.1632232   1.1632232
   1.1632232   1.1632232   5.8991878   5.8991878   5.8991878   5.8991878
   5.8378568   5.8378568   5.8378568   5.8378568   5.7943100   5.7943100
   5.7943100   5.7943100   6.1457896   6.1457896   6.1457896   6.1457896
   6.0040490   6.0040490   6.0040490   6.0040490   5.7903678   5.7903678
   5.7903678   5.7903678   6.9972998   6.9972998   6.9972998   6.9972998
   7.1060048   7.1060048   7.1060048   7.1060048   7.0433468   7.0433468
   7.0433468   7.0433468   7.0782505   7.0782505   7.0782505   7.0782505
   7.4020847   7.4020847   7.4020847   7.4020847  29.2658712  29.0998989
  34.9859012  34.9859012  34.9859012  34.9859012  34.8652245  34.8652245
  34.8652245  34.8652245
 TTTTTTTTTTTTTTTTTTTTTTTTTTTTTT MOQGAD      TELAPSE      190.68 TCPU      142.52
 TTTTTTTTTTTTTTTTTTTTTTTTTTTTTT SHELLXN     TELAPSE      225.57 TCPU      175.08
 TTTTTTTTTTTTTTTTTTTTTTTTTTTTTT MONMO3      TELAPSE      226.34 TCPU      175.85
 NUMERICALLY INTEGRATED DENSITY    632.0001019932
 TTTTTTTTTTTTTTTTTTTTTTTTTTTTTT NUMDFT      TELAPSE      228.11 TCPU      177.61
 CYC   3 ETOT(AU) -2.615591885245E+04 DETOT -3.01E+00 tst  7.87E-02 PX  5.26E-01
 TTTTTTTTTTTTTTTTTTTTTTTTTTTTTT DIIS        TELAPSE      228.26 TCPU      177.76
 DIIS TEST: 0.40322E+01 AT SCF   CYCLE   3 - DIIS ACTIVE - HISTORY:     3 CYCLES
 TTTTTTTTTTTTTTTTTTTTTTTTTTTTTT FDIK        TELAPSE      237.64 TCPU      184.94
 INSULATING STATE
 TOP OF VALENCE BANDS -    BAND    316; K    4; EIG -2.1820920E-01 AU
 TOP OF VALENCE BANDS -    BAND    316; K    1; EIG -2.2015172E-01 AU
 BOTTOM OF VIRTUAL BANDS - BAND    317; K    6; EIG -1.2527789E-01 AU
 INDIRECT ENERGY BAND GAP:   2.5288 eV
 BOTTOM OF VIRTUAL BANDS - BAND    317; K    1; EIG -1.2112847E-01 AU
 TTTTTTTTTTTTTTTTTTTTTTTTTTTTTT PDIG        TELAPSE      238.44 TCPU      185.74
 TOTAL ATOMIC CHARGES:
   1.3172408   1.3172408   1.3172408   1.3172408   1.1833740   1.1833740
   1.1833740   1.1833740   6.2203251   6.2203251   6.2203251   6.2203251
   5.7452419   5.7452419   5.7452419   5.7452419   6.0598982   6.0598982
   6.0598982   6.0598982   5.7776538   5.7776538   5.7776538   5.7776538
   6.0356936   6.0356936   6.0356936   6.0356936   5.7707716   5.7707716
   5.7707716   5.7707716   7.2650208   7.2650208   7.2650208   7.2650208
   7.0601630   7.0601630   7.0601630   7.0601630   7.2539765   7.2539765
   7.2539765   7.2539765   7.0178265   7.0178265   7.0178265   7.0178265
   6.9698279   6.9698279   6.9698279   6.9698279  28.6970859  28.7025682
  34.9944986  34.9944986  34.9944986  34.9944986  34.9785742  34.9785742
  34.9785742  34.9785742
 TTTTTTTTTTTTTTTTTTTTTTTTTTTTTT MOQGAD      TELAPSE      238.46 TCPU      185.76
 TTTTTTTTTTTTTTTTTTTTTTTTTTTTTT SHELLXN     TELAPSE      273.38 TCPU      218.33
 TTTTTTTTTTTTTTTTTTTTTTTTTTTTTT MONMO3      TELAPSE      274.13 TCPU      219.07
 NUMERICALLY INTEGRATED DENSITY    632.0001018823
 TTTTTTTTTTTTTTTTTTTTTTTTTTTTTT NUMDFT      TELAPSE      275.91 TCPU      220.85
 CYC   4 ETOT(AU) -2.615636605054E+04 DETOT -4.47E-01 tst  4.67E-03 PX  3.17E-01
 TTTTTTTTTTTTTTTTTTTTTTTTTTTTTT DIIS        TELAPSE      276.07 TCPU      221.00
 DIIS TEST: 0.11875E+01 AT SCF   CYCLE   4 - DIIS ACTIVE - HISTORY:     4 CYCLES
 TTTTTTTTTTTTTTTTTTTTTTTTTTTTTT FDIK        TELAPSE      286.32 TCPU      228.24
 INSULATING STATE
 TOP OF VALENCE BANDS -    BAND    316; K    4; EIG -2.2898672E-01 AU
 TOP OF VALENCE BANDS -    BAND    316; K    1; EIG -2.3283188E-01 AU
 BOTTOM OF VIRTUAL BANDS - BAND    317; K    6; EIG -1.2532481E-01 AU
 INDIRECT ENERGY BAND GAP:   2.8208 eV
 BOTTOM OF VIRTUAL BANDS - BAND    317; K    1; EIG -1.2212843E-01 AU
 TTTTTTTTTTTTTTTTTTTTTTTTTTTTTT PDIG        TELAPSE      287.12 TCPU      229.04
 TOTAL ATOMIC CHARGES:
   1.3093201   1.3093201   1.3093201   1.3093201   1.1746750   1.1746750
   1.1746750   1.1746750   6.1160065   6.1160065   6.1160065   6.1160065
   5.7959523   5.7959523   5.7959523   5.7959523   6.0153651   6.0153651
   6.0153651   6.0153651   5.9877379   5.9877379   5.9877379   5.9877379
   6.0533401   6.0533401   6.0533401   6.0533401   5.8487623   5.8487623
   5.8487623   5.8487623   7.1858355   7.1858355   7.1858355   7.1858355
   7.0886343   7.0886343   7.0886343   7.0886343   7.1268866   7.1268866
   7.1268866   7.1268866   7.0473284   7.0473284   7.0473284   7.0473284
   6.9909967   6.9909967   6.9909967   6.9909967  28.7882654  28.7446943
  34.9639775  34.9639775  34.9639775  34.9639775  34.9119419  34.9119419
  34.9119419  34.9119419
 TTTTTTTTTTTTTTTTTTTTTTTTTTTTTT MOQGAD      TELAPSE      287.15 TCPU      229.06
 TTTTTTTTTTTTTTTTTTTTTTTTTTTTTT SHELLXN     TELAPSE      322.07 TCPU      261.59
 TTTTTTTTTTTTTTTTTTTTTTTTTTTTTT MONMO3      TELAPSE      322.82 TCPU      262.34
 NUMERICALLY INTEGRATED DENSITY    632.0001025100
 TTTTTTTTTTTTTTTTTTTTTTTTTTTTTT NUMDFT      TELAPSE      324.58 TCPU      264.09
 CYC   5 ETOT(AU) -2.615654000045E+04 DETOT -1.74E-01 tst  7.17E-04 PX  1.39E-01
 TTTTTTTTTTTTTTTTTTTTTTTTTTTTTT DIIS        TELAPSE      324.72 TCPU      264.23
 DIIS TEST: 0.11276E+00 AT SCF   CYCLE   5 - DIIS ACTIVE - HISTORY:     5 CYCLES
 TTTTTTTTTTTTTTTTTTTTTTTTTTTTTT FDIK        TELAPSE      333.60 TCPU      271.05
 INSULATING STATE
 TOP OF VALENCE BANDS -    BAND    316; K    4; EIG -2.2710253E-01 AU
 TOP OF VALENCE BANDS -    BAND    316; K    1; EIG -2.3126784E-01 AU
 BOTTOM OF VIRTUAL BANDS - BAND    317; K    6; EIG -1.2431084E-01 AU
 INDIRECT ENERGY BAND GAP:   2.7971 eV
 BOTTOM OF VIRTUAL BANDS - BAND    317; K    1; EIG -1.2114643E-01 AU
 TTTTTTTTTTTTTTTTTTTTTTTTTTTTTT PDIG        TELAPSE      334.40 TCPU      271.85
 TOTAL ATOMIC CHARGES:
   1.3072171   1.3072171   1.3072171   1.3072171   1.1742735   1.1742735
   1.1742735   1.1742735   6.1267207   6.1267207   6.1267207   6.1267207
   5.7962361   5.7962361   5.7962361   5.7962361   5.9888015   5.9888015
   5.9888015   5.9888015   5.9089582   5.9089582   5.9089582   5.9089582
   6.0493222   6.0493222   6.0493222   6.0493222   5.7700821   5.7700821
   5.7700821   5.7700821   7.1610337   7.1610337   7.1610337   7.1610337
   7.0405196   7.0405196   7.0405196   7.0405196   7.2035099   7.2035099
   7.2035099   7.2035099   7.0526705   7.0526705   7.0526705   7.0526705
   7.0696799   7.0696799   7.0696799   7.0696799  28.8281973  28.7920167
  35.0034987  35.0034987  35.0034987  35.0034987  34.9424230  34.9424230
  34.9424230  34.9424230
 TTTTTTTTTTTTTTTTTTTTTTTTTTTTTT MOQGAD      TELAPSE      334.43 TCPU      271.87
 TTTTTTTTTTTTTTTTTTTTTTTTTTTTTT SHELLXN     TELAPSE      369.30 TCPU      304.43
 TTTTTTTTTTTTTTTTTTTTTTTTTTTTTT MONMO3      TELAPSE      370.04 TCPU      305.16
 NUMERICALLY INTEGRATED DENSITY    632.0001036651
 TTTTTTTTTTTTTTTTTTTTTTTTTTTTTT NUMDFT      TELAPSE      371.81 TCPU      306.92
 CYC   6 ETOT(AU) -2.615654968545E+04 DETOT -9.68E-03 tst  9.91E-05 PX  3.13E-02
 TTTTTTTTTTTTTTTTTTTTTTTTTTTTTT DIIS        TELAPSE      371.96 TCPU      307.08
 DIIS TEST: 0.56902E-01 AT SCF   CYCLE   6 - DIIS ACTIVE - HISTORY:     6 CYCLES
 TTTTTTTTTTTTTTTTTTTTTTTTTTTTTT FDIK        TELAPSE      380.62 TCPU      313.72
 INSULATING STATE
 TOP OF VALENCE BANDS -    BAND    316; K    4; EIG -2.2840107E-01 AU
 TOP OF VALENCE BANDS -    BAND    316; K    1; EIG -2.3241132E-01 AU
 BOTTOM OF VIRTUAL BANDS - BAND    317; K    6; EIG -1.2468018E-01 AU
 INDIRECT ENERGY BAND GAP:   2.8224 eV
 BOTTOM OF VIRTUAL BANDS - BAND    317; K    1; EIG -1.2131978E-01 AU
 TTTTTTTTTTTTTTTTTTTTTTTTTTTTTT PDIG        TELAPSE      381.42 TCPU      314.52
 TOTAL ATOMIC CHARGES:
   1.3058577   1.3058577   1.3058577   1.3058577   1.1688722   1.1688722
   1.1688722   1.1688722   6.1101062   6.1101062   6.1101062   6.1101062
   5.7958488   5.7958488   5.7958488   5.7958488   6.0038057   6.0038057
   6.0038057   6.0038057   5.9226141   5.9226141   5.9226141   5.9226141
   6.0494771   6.0494771   6.0494771   6.0494771   5.8020836   5.8020836
   5.8020836   5.8020836   7.1906512   7.1906512   7.1906512   7.1906512
   7.0908401   7.0908401   7.0908401   7.0908401   7.1429106   7.1429106
   7.1429106   7.1429106   7.0262013   7.0262013   7.0262013   7.0262013
   7.0605086   7.0605086   7.0605086   7.0605086  28.8330039  28.7968386
  34.9883671  34.9883671  34.9883671  34.9883671  34.9343951  34.9343951
  34.9343951  34.9343951
 TTTTTTTTTTTTTTTTTTTTTTTTTTTTTT MOQGAD      TELAPSE      381.44 TCPU      314.54
 TTTTTTTTTTTTTTTTTTTTTTTTTTTTTT SHELLXN     TELAPSE      416.31 TCPU      347.09
 TTTTTTTTTTTTTTTTTTTTTTTTTTTTTT MONMO3      TELAPSE      417.05 TCPU      347.83
 NUMERICALLY INTEGRATED DENSITY    632.0001029947
 TTTTTTTTTTTTTTTTTTTTTTTTTTTTTT NUMDFT      TELAPSE      418.86 TCPU      349.63
 CYC   7 ETOT(AU) -2.615655601547E+04 DETOT -6.33E-03 tst  3.46E-05 PX  1.76E-02
 TTTTTTTTTTTTTTTTTTTTTTTTTTTTTT DIIS        TELAPSE      419.02 TCPU      349.79
 DIIS TEST: 0.18087E-01 AT SCF   CYCLE   7 - DIIS ACTIVE - HISTORY:     7 CYCLES
 TTTTTTTTTTTTTTTTTTTTTTTTTTTTTT FDIK        TELAPSE      425.86 TCPU      356.44
 INSULATING STATE
 TOP OF VALENCE BANDS -    BAND    316; K    4; EIG -2.2837313E-01 AU
 TOP OF VALENCE BANDS -    BAND    316; K    1; EIG -2.3221804E-01 AU
 BOTTOM OF VIRTUAL BANDS - BAND    317; K    6; EIG -1.2511280E-01 AU
 INDIRECT ENERGY BAND GAP:   2.8099 eV
 BOTTOM OF VIRTUAL BANDS - BAND    317; K    1; EIG -1.2202872E-01 AU
 TTTTTTTTTTTTTTTTTTTTTTTTTTTTTT PDIG        TELAPSE      426.66 TCPU      357.24
 TOTAL ATOMIC CHARGES:
   1.3038600   1.3038600   1.3038600   1.3038600   1.1688930   1.1688930
   1.1688930   1.1688930   6.1121136   6.1121136   6.1121136   6.1121136
   5.7940167   5.7940167   5.7940167   5.7940167   6.0022176   6.0022176
   6.0022176   6.0022176   5.9399731   5.9399731   5.9399731   5.9399731
   6.0462524   6.0462524   6.0462524   6.0462524   5.8065116   5.8065116
   5.8065116   5.8065116   7.1693291   7.1693291   7.1693291   7.1693291
   7.0649713   7.0649713   7.0649713   7.0649713   7.1679849   7.1679849
   7.1679849   7.1679849   7.0500112   7.0500112   7.0500112   7.0500112
   7.0476409   7.0476409   7.0476409   7.0476409  28.8306085  28.7940151
  34.9896954  34.9896954  34.9896954  34.9896954  34.9303733  34.9303733
  34.9303733  34.9303733
 TTTTTTTTTTTTTTTTTTTTTTTTTTTTTT MOQGAD      TELAPSE      426.69 TCPU      357.26
 TTTTTTTTTTTTTTTTTTTTTTTTTTTTTT SHELLXN     TELAPSE      461.66 TCPU      389.81
 TTTTTTTTTTTTTTTTTTTTTTTTTTTTTT MONMO3      TELAPSE      462.37 TCPU      390.53
 NUMERICALLY INTEGRATED DENSITY    632.0001029591
 TTTTTTTTTTTTTTTTTTTTTTTTTTTTTT NUMDFT      TELAPSE      464.14 TCPU      392.29
 CYC   8 ETOT(AU) -2.615655834194E+04 DETOT -2.33E-03 tst  1.28E-05 PX  8.58E-03
 TTTTTTTTTTTTTTTTTTTTTTTTTTTTTT DIIS        TELAPSE      464.31 TCPU      392.45
 DIIS TEST: 0.27558E-02 AT SCF   CYCLE   8 - DIIS ACTIVE - HISTORY:     8 CYCLES
 TTTTTTTTTTTTTTTTTTTTTTTTTTTTTT FDIK        TELAPSE      470.80 TCPU      398.76
 INSULATING STATE
 TOP OF VALENCE BANDS -    BAND    316; K    4; EIG -2.2836489E-01 AU
 TOP OF VALENCE BANDS -    BAND    316; K    1; EIG -2.3237556E-01 AU
 BOTTOM OF VIRTUAL BANDS - BAND    317; K    6; EIG -1.2531641E-01 AU
 INDIRECT ENERGY BAND GAP:   2.8041 eV
 BOTTOM OF VIRTUAL BANDS - BAND    317; K    1; EIG -1.2211256E-01 AU
 TTTTTTTTTTTTTTTTTTTTTTTTTTTTTT PDIG        TELAPSE      471.61 TCPU      399.55
 TOTAL ATOMIC CHARGES:
   1.3031935   1.3031935   1.3031935   1.3031935   1.1696015   1.1696015
   1.1696015   1.1696015   6.1186745   6.1186745   6.1186745   6.1186745
   5.7936622   5.7936622   5.7936622   5.7936622   5.9961543   5.9961543
   5.9961543   5.9961543   5.9397544   5.9397544   5.9397544   5.9397544
   6.0544673   6.0544673   6.0544673   6.0544673   5.7974921   5.7974921
   5.7974921   5.7974921   7.1795682   7.1795682   7.1795682   7.1795682
   7.0672287   7.0672287   7.0672287   7.0672287   7.1645731   7.1645731
   7.1645731   7.1645731   7.0406684   7.0406684   7.0406684   7.0406684
   7.0495873   7.0495873   7.0495873   7.0495873  28.8337916  28.7910401
  34.9884787  34.9884787  34.9884787  34.9884787  34.9306880  34.9306880
  34.9306880  34.9306880
 TTTTTTTTTTTTTTTTTTTTTTTTTTTTTT MOQGAD      TELAPSE      471.63 TCPU      399.58
 TTTTTTTTTTTTTTTTTTTTTTTTTTTTTT SHELLXN     TELAPSE      504.51 TCPU      432.15
 TTTTTTTTTTTTTTTTTTTTTTTTTTTTTT MONMO3      TELAPSE      505.28 TCPU      432.92
 NUMERICALLY INTEGRATED DENSITY    632.0001030644
 TTTTTTTTTTTTTTTTTTTTTTTTTTTTTT NUMDFT      TELAPSE      507.08 TCPU      434.70
 CYC   9 ETOT(AU) -2.615655855169E+04 DETOT -2.10E-04 tst  1.32E-06 PX  2.92E-03
 TTTTTTTTTTTTTTTTTTTTTTTTTTTTTT DIIS        TELAPSE      507.24 TCPU      434.86
 DIIS TEST: 0.12356E-02 AT SCF   CYCLE   9 - DIIS ACTIVE - HISTORY:     9 CYCLES
 TTTTTTTTTTTTTTTTTTTTTTTTTTTTTT FDIK        TELAPSE      513.85 TCPU      441.31
 INSULATING STATE
 TOP OF VALENCE BANDS -    BAND    316; K    4; EIG -2.2856619E-01 AU
 TOP OF VALENCE BANDS -    BAND    316; K    1; EIG -2.3253844E-01 AU
 BOTTOM OF VIRTUAL BANDS - BAND    317; K    6; EIG -1.2513967E-01 AU
 INDIRECT ENERGY BAND GAP:   2.8144 eV
 BOTTOM OF VIRTUAL BANDS - BAND    317; K    1; EIG -1.2198092E-01 AU
 TTTTTTTTTTTTTTTTTTTTTTTTTTTTTT PDIG        TELAPSE      514.65 TCPU      442.11
 TOTAL ATOMIC CHARGES:
   1.3036086   1.3036086   1.3036086   1.3036086   1.1693898   1.1693898
   1.1693898   1.1693898   6.1148153   6.1148153   6.1148153   6.1148153
   5.7929287   5.7929287   5.7929287   5.7929287   6.0010643   6.0010643
   6.0010643   6.0010643   5.9358676   5.9358676   5.9358676   5.9358676
   6.0481637   6.0481637   6.0481637   6.0481637   5.8021747   5.8021747
   5.8021747   5.8021747   7.1743599   7.1743599   7.1743599   7.1743599
   7.0705156   7.0705156   7.0705156   7.0705156   7.1635502   7.1635502
   7.1635502   7.1635502   7.0437261   7.0437261   7.0437261   7.0437261
   7.0525506   7.0525506   7.0525506   7.0525506  28.8326315  28.7928263
  34.9892734  34.9892734  34.9892734  34.9892734  34.9316470  34.9316470
  34.9316470  34.9316470
 TTTTTTTTTTTTTTTTTTTTTTTTTTTTTT MOQGAD      TELAPSE      514.68 TCPU      442.13
 TTTTTTTTTTTTTTTTTTTTTTTTTTTTTT SHELLXN     TELAPSE      549.59 TCPU      474.67
 TTTTTTTTTTTTTTTTTTTTTTTTTTTTTT MONMO3      TELAPSE      549.98 TCPU      475.06
 NUMERICALLY INTEGRATED DENSITY    632.0001029800
 TTTTTTTTTTTTTTTTTTTTTTTTTTTTTT NUMDFT      TELAPSE      551.75 TCPU      476.82
 CYC  10 ETOT(AU) -2.615655869023E+04 DETOT -1.39E-04 tst  5.36E-07 PX  2.24E-03
 TTTTTTTTTTTTTTTTTTTTTTTTTTTTTT DIIS        TELAPSE      551.93 TCPU      476.99
 DIIS TEST: 0.17124E-03 AT SCF   CYCLE  10 - DIIS ACTIVE - HISTORY:    10 CYCLES
 TTTTTTTTTTTTTTTTTTTTTTTTTTTTTT FDIK        TELAPSE      561.29 TCPU      484.13
 INSULATING STATE
 TOP OF VALENCE BANDS -    BAND    316; K    4; EIG -2.2849451E-01 AU
 TOP OF VALENCE BANDS -    BAND    316; K    1; EIG -2.3248139E-01 AU
 BOTTOM OF VIRTUAL BANDS - BAND    317; K    6; EIG -1.2524951E-01 AU
 INDIRECT ENERGY BAND GAP:   2.8094 eV
 BOTTOM OF VIRTUAL BANDS - BAND    317; K    1; EIG -1.2209184E-01 AU
 TTTTTTTTTTTTTTTTTTTTTTTTTTTTTT PDIG        TELAPSE      562.10 TCPU      484.93
 TOTAL ATOMIC CHARGES:
   1.3036084   1.3036084   1.3036084   1.3036084   1.1690916   1.1690916
   1.1690916   1.1690916   6.1139858   6.1139858   6.1139858   6.1139858
   5.7945102   5.7945102   5.7945102   5.7945102   5.9998113   5.9998113
   5.9998113   5.9998113   5.9375940   5.9375940   5.9375940   5.9375940
   6.0498899   6.0498899   6.0498899   6.0498899   5.8021314   5.8021314
   5.8021314   5.8021314   7.1765256   7.1765256   7.1765256   7.1765256
   7.0677438   7.0677438   7.0677438   7.0677438   7.1642035   7.1642035
   7.1642035   7.1642035   7.0435217   7.0435217   7.0435217   7.0435217
   7.0518860   7.0518860   7.0518860   7.0518860  28.8312659  28.7925809
  34.9890063  34.9890063  34.9890063  34.9890063  34.9305286  34.9305286
  34.9305286  34.9305286
 TTTTTTTTTTTTTTTTTTTTTTTTTTTTTT MOQGAD      TELAPSE      562.12 TCPU      484.95
 TTTTTTTTTTTTTTTTTTTTTTTTTTTTTT SHELLXN     TELAPSE      595.09 TCPU      517.51
 TTTTTTTTTTTTTTTTTTTTTTTTTTTTTT MONMO3      TELAPSE      597.83 TCPU      520.24
 NUMERICALLY INTEGRATED DENSITY    632.0001030382
 TTTTTTTTTTTTTTTTTTTTTTTTTTTTTT NUMDFT      TELAPSE      599.63 TCPU      522.04
 CYC  11 ETOT(AU) -2.615655870623E+04 DETOT -1.60E-05 tst  5.88E-08 PX  8.09E-04
 TTTTTTTTTTTTTTTTTTTTTTTTTTTTTT DIIS        TELAPSE      599.81 TCPU      522.21
 DIIS TEST: 0.47017E-04 AT SCF   CYCLE  11 - DIIS ACTIVE - HISTORY:    11 CYCLES
 TTTTTTTTTTTTTTTTTTTTTTTTTTTTTT FDIK        TELAPSE      608.40 TCPU      528.49
 INSULATING STATE
 TOP OF VALENCE BANDS -    BAND    316; K    4; EIG -2.2851632E-01 AU
 TOP OF VALENCE BANDS -    BAND    316; K    1; EIG -2.3248384E-01 AU
 BOTTOM OF VIRTUAL BANDS - BAND    317; K    6; EIG -1.2516638E-01 AU
 INDIRECT ENERGY BAND GAP:   2.8123 eV
 BOTTOM OF VIRTUAL BANDS - BAND    317; K    1; EIG -1.2200730E-01 AU
 TTTTTTTTTTTTTTTTTTTTTTTTTTTTTT PDIG        TELAPSE      609.20 TCPU      529.29
 TOTAL ATOMIC CHARGES:
   1.3034770   1.3034770   1.3034770   1.3034770   1.1692477   1.1692477
   1.1692477   1.1692477   6.1157086   6.1157086   6.1157086   6.1157086
   5.7933238   5.7933238   5.7933238   5.7933238   5.9999422   5.9999422
   5.9999422   5.9999422   5.9372686   5.9372686   5.9372686   5.9372686
   6.0499269   6.0499269   6.0499269   6.0499269   5.8004740   5.8004740
   5.8004740   5.8004740   7.1742490   7.1742490   7.1742490   7.1742490
   7.0702160   7.0702160   7.0702160   7.0702160   7.1636982   7.1636982
   7.1636982   7.1636982   7.0438901   7.0438901   7.0438901   7.0438901
   7.0513367   7.0513367   7.0513367   7.0513367  28.8326765  28.7924630
  34.9891882  34.9891882  34.9891882  34.9891882  34.9317681  34.9317681
  34.9317681  34.9317681
 TTTTTTTTTTTTTTTTTTTTTTTTTTTTTT MOQGAD      TELAPSE      609.23 TCPU      529.31
 TTTTTTTTTTTTTTTTTTTTTTTTTTTTTT SHELLXN     TELAPSE      644.09 TCPU      561.77
 TTTTTTTTTTTTTTTTTTTTTTTTTTTTTT MONMO3      TELAPSE      644.48 TCPU      562.17
 NUMERICALLY INTEGRATED DENSITY    632.0001029839
 TTTTTTTTTTTTTTTTTTTTTTTTTTTTTT NUMDFT      TELAPSE      646.25 TCPU      563.93
 CYC  12 ETOT(AU) -2.615655870717E+04 DETOT -9.42E-07 tst  4.90E-08 PX  6.28E-04
 TTTTTTTTTTTTTTTTTTTTTTTTTTTTTT DIIS        TELAPSE      646.42 TCPU      564.10
 DIIS TEST: 0.35712E-04 AT SCF   CYCLE  12 - DIIS ACTIVE - HISTORY:    12 CYCLES
 TTTTTTTTTTTTTTTTTTTTTTTTTTTTTT FDIK        TELAPSE      657.31 TCPU      570.88
 INSULATING STATE
 TOP OF VALENCE BANDS -    BAND    316; K    4; EIG -2.2851781E-01 AU
 TOP OF VALENCE BANDS -    BAND    316; K    1; EIG -2.3249522E-01 AU
 BOTTOM OF VIRTUAL BANDS - BAND    317; K    6; EIG -1.2520804E-01 AU
 INDIRECT ENERGY BAND GAP:   2.8112 eV
 BOTTOM OF VIRTUAL BANDS - BAND    317; K    1; EIG -1.2204507E-01 AU
 TTTTTTTTTTTTTTTTTTTTTTTTTTTTTT PDIG        TELAPSE      658.11 TCPU      571.68
 TOTAL ATOMIC CHARGES:
   1.3035523   1.3035523   1.3035523   1.3035523   1.1692396   1.1692396
   1.1692396   1.1692396   6.1150981   6.1150981   6.1150981   6.1150981
   5.7934777   5.7934777   5.7934777   5.7934777   6.0001525   6.0001525
   6.0001525   6.0001525   5.9370038   5.9370038   5.9370038   5.9370038
   6.0493135   6.0493135   6.0493135   6.0493135   5.8016873   5.8016873
   5.8016873   5.8016873   7.1760322   7.1760322   7.1760322   7.1760322
   7.0685184   7.0685184   7.0685184   7.0685184   7.1643233   7.1643233
   7.1643233   7.1643233   7.0433018   7.0433018   7.0433018   7.0433018
   7.0519357   7.0519357   7.0519357   7.0519357  28.8321552  28.7925648
[...]
 CYCLE  22   ALPHA  686.764437  EPSILON    2.600380  DELTA   -4.7467E-03
 TTTTTTTTTTTTTTTTTTTTTTTTTTTTTT MOQGAD      TELAPSE   135276.99 TCPU   133955.57
 TTTTTTTTTTTTTTTTTTTTTTTTTTTTTT CP_MONMON   TELAPSE   135281.97 TCPU   133960.54
 DIIS TEST: 0.12256E-04 AT CPHF  CYCLE  23 - DIIS ACTIVE - HISTORY:    23 CYCLES
 CYCLE  23   ALPHA  686.763319  EPSILON    2.600378  DELTA   -1.1188E-03
 TTTTTTTTTTTTTTTTTTTTTTTTTTTTTT MOQGAD      TELAPSE   135535.79 TCPU   134212.36
 TTTTTTTTTTTTTTTTTTTTTTTTTTTTTT CP_MONMON   TELAPSE   135540.78 TCPU   134217.32
 DIIS TEST: 0.14814E-05 AT CPHF  CYCLE  24 - DIIS ACTIVE - HISTORY:    24 CYCLES
 CYCLE  24   ALPHA  686.763219  EPSILON    2.600378  DELTA   -9.9286E-05
 TTTTTTTTTTTTTTTTTTTTTTTTTTTTTT CP_SC       TELAPSE   135559.36 TCPU   134234.99

 *******************************************************************************

 POLARIZABILITY (ALPHA), DIELECTRIC (EPSILON) AND FIRST-ORDER ELECTRIC
 SUSCEPTIBILITY (CHI(1)) TENSORS (INDEPENDENT COMPONENTS)

  FR.(eV) COMP.   ALPHA(Re,Im)           EPSILON(Re,Im)                CHI(1)
  1.435   XX    1417.2865       0.0000       4.3027       0.0000       3.3027
  1.435   ZZ     686.7632       0.0000       2.6004       0.0000       1.6004

 DIELECTRIC TENSOR

 TENSOR IN PRINCIPAL AXES SYSTEM
 AA  4.302730E+00 BB  4.302730E+00 CC  2.600378E+00

 REFRACTIVE INDICES 
 AA  1.612569E+00 BB  2.074302E+00 CC  2.074302E+00

 OPTICALLY ANISOTROPIC - UNIAXIAL CRYSTAL

 BIREFRINGENCE =  0.4617 (NEGATIVE) - OBLATE OPTICAL ELLIPSOID

 EPSILON=N**2=1+CHI(1)=1+ALPHA*4*PI/V,   4*PI/V=   0.00233 BOHR**(-3)
 ALPHA IN BOHR**3; EPSILON AND CHI(1) ARE DIMENSIONLESS.
 *******************************************************************************

 DYNAMIC FIELD: RUN 10/ 10 - RADIATION WAVELENGTH: 1064.0000 NM

 *******************************************************************************

 ELECTRIC FIELD APPLIED ALONG CARTESIAN DIRECTION X

 *******************************************************************************
 THE NUMBER OF SYMMETRY OPERATORS HAS BEEN REDUCED FROM  4 TO  1

 NEW GRID IN RECIPROCAL SPACE
 *******************************************************************************
 POINTS IN THE IBZ                  14 SHRINKING FACTORS               3  3  3
 *******************************************************************************
 *** K POINTS COORDINATES (OBLIQUE COORDINATES IN UNITS OF SHRINK FAC. )
   1-R(  0  0  0)   2-C(  1  0  0)   3-C(  0  1  2)   4-C(  2  0  1)
   5-C(  0  2  0)   6-C(  1  1  0)   7-C(  1  1  1)   8-C(  1  0  1)
   9-C(  0  1  1)  10-C(  2  1  0)  11-C(  0  0  2)  12-C(  2  1  1)
  13-C(  2  1  2)  14-C(  2  2  1)

 GCALCO - MAX INDICES DIRECT LATTICE VECTOR    14    14    16
 NO.OF VECTORS CREATED 6999 STARS  484 RMAX   208.99211 BOHR
 TTTTTTTTTTTTTTTTTTTTTTTTTTTTTT gordsh1     TELAPSE   135559.37 TCPU   134235.00

 MATRIX SIZE: P(G) 2036324, F(G) 1018972, P(G) IRR 1020810, F(G) IRR 1020810
 MAX G-VECTOR INDEX FOR 1- AND 2-ELECTRON INTEGRALS  59

 TTTTTTTTTTTTTTTTTTTTTTTTTTTTTT INPUT       TELAPSE   135559.49 TCPU   134235.11
 TTTTTTTTTTTTTTTTTTTTTTTTTTTTTT SYMM        TELAPSE   135559.49 TCPU   134235.11

 ***** NEW REFERENCE GEOMETRY *****
 TTTTTTTTTTTTTTTTTTTTTTTTTTTTTT INT_SCREEN  TELAPSE   135559.50 TCPU   134235.12
 INFORMATION **** EXCBUF **** EXCH. BIPO BUFFER: WORDS USED =           0

 DFT PARAMETERS

     ATOM       ELECTRONS   NET CHARGE   R(ANGSTROM)
   1   1  H       1.0000      0.0000     1.11000000
   9   6  C       6.0000      0.0000     0.77000000
  33   7  N       7.0000      0.0000     0.74000000
  53  30  ZN     30.0000      0.0000     1.37000000
  55  35  BR     35.0000      0.0000     1.14000000

 SIZE OF GRID=    1850688
 TTTTTTTTTTTTTTTTTTTTTTTTTTTTTT MAKE_GRID2  TELAPSE   135560.77 TCPU   134236.39
 BECKE WEIGHT FUNCTION
 RADSAFE =     2.00
 TOLERANCES - DENSITY:10**- 6; POTENTIAL:10**- 9; GRID WGT:10**-14

 RADIAL INTEGRATION  - INTERVALS (POINTS,UPPER LIMIT):            1( 75,  4.0*R)

 ANGULAR INTEGRATION - INTERVALS (ACCURACY LEVEL [N. POINTS] UPPER LIMIT):
  1(  4[  86]   0.2)  2(  8[ 194]   0.5)  3( 12[ 350]   0.9)  4( 16[ 974]   3.5)
  5( 12[ 350]9999.0)
 TTTTTTTTTTTTTTTTTTTTTTTTTTTTTT INT_CALC    TELAPSE   135560.83 TCPU   134236.44
 CYCLE   0   ALPHA 1804.086478  EPSILON    5.204098  DELTA    1.8041E+03
 TTTTTTTTTTTTTTTTTTTTTTTTTTTTTT MOQGAD      TELAPSE   136044.25 TCPU   134716.83
 TTTTTTTTTTTTTTTTTTTTTTTTTTTTTT CP_MONMON   TELAPSE   136053.39 TCPU   134725.91
 DIIS TEST: 0.32511E+03 AT CPHF  CYCLE   1 - MIX    0 %
 CYCLE   1   ALPHA  588.907737  EPSILON    2.372343  DELTA   -1.2152E+03
 TTTTTTTTTTTTTTTTTTTTTTTTTTTTTT MOQGAD      TELAPSE   136539.51 TCPU   135207.51
 TTTTTTTTTTTTTTTTTTTTTTTTTTTTTT CP_MONMON   TELAPSE   136548.63 TCPU   135216.59
 DIIS TEST: 0.24929E+04 AT CPHF  CYCLE   2 - DIIS ACTIVE - HISTORY:     2 CYCLES
 CYCLE   2   ALPHA 1302.202227  EPSILON    4.034547  DELTA    7.1329E+02
 TTTTTTTTTTTTTTTTTTTTTTTTTTTTTT MOQGAD      TELAPSE   137035.54 TCPU   135699.07
 TTTTTTTTTTTTTTTTTTTTTTTTTTTTTT CP_MONMON   TELAPSE   137044.65 TCPU   135708.15
 DIIS TEST: 0.82180E+02 AT CPHF  CYCLE   3 - DIIS ACTIVE - HISTORY:     3 CYCLES
 CYCLE   3   ALPHA 1367.196600  EPSILON    4.186005  DELTA    6.4994E+01
 TTTTTTTTTTTTTTTTTTTTTTTTTTTTTT MOQGAD      TELAPSE   137528.42 TCPU   136188.18
 TTTTTTTTTTTTTTTTTTTTTTTTTTTTTT CP_MONMON   TELAPSE   137537.53 TCPU   136197.26
 DIIS TEST: 0.62048E+01 AT CPHF  CYCLE   4 - DIIS ACTIVE - HISTORY:     4 CYCLES
 CYCLE   4   ALPHA 1382.729690  EPSILON    4.222202  DELTA    1.5533E+01
 TTTTTTTTTTTTTTTTTTTTTTTTTTTTTT MOQGAD      TELAPSE   138025.54 TCPU   136678.24
 TTTTTTTTTTTTTTTTTTTTTTTTTTTTTT CP_MONMON   TELAPSE   138034.66 TCPU   136687.32
 DIIS TEST: 0.14619E+01 AT CPHF  CYCLE   5 - DIIS ACTIVE - HISTORY:     5 CYCLES
 CYCLE   5   ALPHA 1386.940724  EPSILON    4.232015  DELTA    4.2110E+00
 TTTTTTTTTTTTTTTTTTTTTTTTTTTTTT MOQGAD      TELAPSE   138522.73 TCPU   137168.66
 TTTTTTTTTTTTTTTTTTTTTTTTTTTTTT CP_MONMON   TELAPSE   138531.85 TCPU   137177.74
 DIIS TEST: 0.12672E+00 AT CPHF  CYCLE   6 - DIIS ACTIVE - HISTORY:     6 CYCLES
 CYCLE   6   ALPHA 1388.284493  EPSILON    4.235146  DELTA    1.3438E+00
 TTTTTTTTTTTTTTTTTTTTTTTTTTTTTT MOQGAD      TELAPSE   139017.91 TCPU   137660.19
 TTTTTTTTTTTTTTTTTTTTTTTTTTTTTT CP_MONMON   TELAPSE   139027.03 TCPU   137669.27
 DIIS TEST: 0.23580E-01 AT CPHF  CYCLE   7 - DIIS ACTIVE - HISTORY:     7 CYCLES
 CYCLE   7   ALPHA 1388.731384  EPSILON    4.236188  DELTA    4.4689E-01
 TTTTTTTTTTTTTTTTTTTTTTTTTTTTTT MOQGAD      TELAPSE   139513.10 TCPU   138151.59
 TTTTTTTTTTTTTTTTTTTTTTTTTTTTTT CP_MONMON   TELAPSE   139522.22 TCPU   138160.68
 DIIS TEST: 0.29387E-02 AT CPHF  CYCLE   8 - DIIS ACTIVE - HISTORY:     8 CYCLES
 CYCLE   8   ALPHA 1388.771635  EPSILON    4.236281  DELTA    4.0251E-02
 TTTTTTTTTTTTTTTTTTTTTTTTTTTTTT MOQGAD      TELAPSE   140007.98 TCPU   138642.82
 TTTTTTTTTTTTTTTTTTTTTTTTTTTTTT CP_MONMON   TELAPSE   140017.10 TCPU   138651.90
 DIIS TEST: 0.26806E-03 AT CPHF  CYCLE   9 - DIIS ACTIVE - HISTORY:     9 CYCLES
 CYCLE   9   ALPHA 1388.748263  EPSILON    4.236227  DELTA   -2.3372E-02
 TTTTTTTTTTTTTTTTTTTTTTTTTTTTTT MOQGAD      TELAPSE   140506.48 TCPU   139134.45
 TTTTTTTTTTTTTTTTTTTTTTTTTTTTTT CP_MONMON   TELAPSE   140515.60 TCPU   139143.53
 DIIS TEST: 0.56579E-04 AT CPHF  CYCLE  10 - DIIS ACTIVE - HISTORY:    10 CYCLES
 CYCLE  10   ALPHA 1388.721118  EPSILON    4.236164  DELTA   -2.7145E-02
 TTTTTTTTTTTTTTTTTTTTTTTTTTTTTT MOQGAD      TELAPSE   141002.91 TCPU   139626.16
 TTTTTTTTTTTTTTTTTTTTTTTTTTTTTT CP_MONMON   TELAPSE   141012.03 TCPU   139635.25
 DIIS TEST: 0.53635E-05 AT CPHF  CYCLE  11 - DIIS ACTIVE - HISTORY:    11 CYCLES
 CYCLE  11   ALPHA 1388.715157  EPSILON    4.236150  DELTA   -5.9617E-03
 TTTTTTTTTTTTTTTTTTTTTTTTTTTTTT MOQGAD      TELAPSE   141496.73 TCPU   140116.14
 TTTTTTTTTTTTTTTTTTTTTTTTTTTTTT CP_MONMON   TELAPSE   141505.86 TCPU   140125.23
 DIIS TEST: 0.10353E-05 AT CPHF  CYCLE  12 - DIIS ACTIVE - HISTORY:    12 CYCLES
 CYCLE  12   ALPHA 1388.712219  EPSILON    4.236143  DELTA   -2.9375E-03
 TTTTTTTTTTTTTTTTTTTTTTTTTTTTTT MOQGAD      TELAPSE   141989.95 TCPU   140605.66
 TTTTTTTTTTTTTTTTTTTTTTTTTTTTTT CP_MONMON   TELAPSE   141999.07 TCPU   140614.74
 DIIS TEST: 0.75603E-07 AT CPHF  CYCLE  13 - DIIS ACTIVE - HISTORY:    13 CYCLES
 CYCLE  13   ALPHA 1388.711691  EPSILON    4.236142  DELTA   -5.2847E-04
 TTTTTTTTTTTTTTTTTTTTTTTTTTTTTT CP_SC       TELAPSE   142020.43 TCPU   140632.88

 *******************************************************************************

 ELECTRIC FIELD APPLIED ALONG CARTESIAN DIRECTION Z

 *******************************************************************************
 THE NUMBER OF SYMMETRY OPERATORS HAS BEEN REDUCED FROM  4 TO  2

 NEW GRID IN RECIPROCAL SPACE
 *******************************************************************************
 POINTS IN THE IBZ                  10 SHRINKING FACTORS               3  3  3
 *******************************************************************************
 *** K POINTS COORDINATES (OBLIQUE COORDINATES IN UNITS OF SHRINK FAC. )
   1-R(  0  0  0)   2-C(  1  0  0)   3-C(  2  0  1)   4-C(  1  1  0)
   5-C(  1  0  1)   6-C(  2  1  0)   7-C(  0  0  2)   8-C(  2  1  1)
   9-C(  2  1  2)  10-C(  2  2  1)

 GCALCO - MAX INDICES DIRECT LATTICE VECTOR    14    14    16
 NO.OF VECTORS CREATED 6999 STARS  484 RMAX   208.99211 BOHR
 TTTTTTTTTTTTTTTTTTTTTTTTTTTTTT gordsh1     TELAPSE   142020.43 TCPU   140632.89

 MATRIX SIZE: P(G) 2036324, F(G) 1018972, P(G) IRR  512822, F(G) IRR  512822
 MAX G-VECTOR INDEX FOR 1- AND 2-ELECTRON INTEGRALS  59

 TTTTTTTTTTTTTTTTTTTTTTTTTTTTTT INPUT       TELAPSE   142020.47 TCPU   140632.92
 TTTTTTTTTTTTTTTTTTTTTTTTTTTTTT SYMM        TELAPSE   142020.47 TCPU   140632.92

 ***** NEW REFERENCE GEOMETRY *****
 TTTTTTTTTTTTTTTTTTTTTTTTTTTTTT INT_SCREEN  TELAPSE   142020.47 TCPU   140632.93
 INFORMATION **** EXCBUF **** EXCH. BIPO BUFFER: WORDS USED =           0

 DFT PARAMETERS

     ATOM       ELECTRONS   NET CHARGE   R(ANGSTROM)
   1   1  H       1.0000      0.0000     1.11000000
   9   6  C       6.0000      0.0000     0.77000000
  33   7  N       7.0000      0.0000     0.74000000
  53  30  ZN     30.0000      0.0000     1.37000000
  55  35  BR     35.0000      0.0000     1.14000000

 SIZE OF GRID=     925458
 TTTTTTTTTTTTTTTTTTTTTTTTTTTTTT MAKE_GRID2  TELAPSE   142021.37 TCPU   140633.82
 BECKE WEIGHT FUNCTION
 RADSAFE =     2.00
 TOLERANCES - DENSITY:10**- 6; POTENTIAL:10**- 9; GRID WGT:10**-14

 RADIAL INTEGRATION  - INTERVALS (POINTS,UPPER LIMIT):            1( 75,  4.0*R)

 ANGULAR INTEGRATION - INTERVALS (ACCURACY LEVEL [N. POINTS] UPPER LIMIT):
  1(  4[  86]   0.2)  2(  8[ 194]   0.5)  3( 12[ 350]   0.9)  4( 16[ 974]   3.5)
  5( 12[ 350]9999.0)
 TTTTTTTTTTTTTTTTTTTTTTTTTTTTTT INT_CALC    TELAPSE   142021.42 TCPU   140633.87
 CYCLE   0   ALPHA  839.492537  EPSILON    2.956286  DELTA    8.3949E+02
 TTTTTTTTTTTTTTTTTTTTTTTTTTTTTT MOQGAD      TELAPSE   142272.08 TCPU   140883.21
 TTTTTTTTTTTTTTTTTTTTTTTTTTTTTT CP_MONMON   TELAPSE   142277.06 TCPU   140888.17
 DIIS TEST: 0.81231E+02 AT CPHF  CYCLE   1 - MIX    0 %
 CYCLE   1   ALPHA  490.524762  EPSILON    2.143079  DELTA   -3.4897E+02
 TTTTTTTTTTTTTTTTTTTTTTTTTTTTTT MOQGAD      TELAPSE   142532.43 TCPU   141139.71
 TTTTTTTTTTTTTTTTTTTTTTTTTTTTTT CP_MONMON   TELAPSE   142537.41 TCPU   141144.68
 DIIS TEST: 0.44935E+03 AT CPHF  CYCLE   2 - DIIS ACTIVE - HISTORY:     2 CYCLES
 CYCLE   2   ALPHA  636.357165  EPSILON    2.482915  DELTA    1.4583E+02
 TTTTTTTTTTTTTTTTTTTTTTTTTTTTTT MOQGAD      TELAPSE   142790.78 TCPU   141396.26
 TTTTTTTTTTTTTTTTTTTTTTTTTTTTTT CP_MONMON   TELAPSE   142795.77 TCPU   141401.23
 DIIS TEST: 0.68131E+02 AT CPHF  CYCLE   3 - DIIS ACTIVE - HISTORY:     3 CYCLES
 CYCLE   3   ALPHA  662.992753  EPSILON    2.544985  DELTA    2.6636E+01
 TTTTTTTTTTTTTTTTTTTTTTTTTTTTTT MOQGAD      TELAPSE   143049.23 TCPU   141652.89
 TTTTTTTTTTTTTTTTTTTTTTTTTTTTTT CP_MONMON   TELAPSE   143054.21 TCPU   141657.85
 DIIS TEST: 0.82984E+03 AT CPHF  CYCLE   4 - DIIS ACTIVE - HISTORY:     4 CYCLES
 CYCLE   4   ALPHA  675.629431  EPSILON    2.574432  DELTA    1.2637E+01
 TTTTTTTTTTTTTTTTTTTTTTTTTTTTTT MOQGAD      TELAPSE   143307.59 TCPU   141909.39
 TTTTTTTTTTTTTTTTTTTTTTTTTTTTTT CP_MONMON   TELAPSE   143312.57 TCPU   141914.36
 DIIS TEST: 0.36452E+01 AT CPHF  CYCLE   5 - DIIS ACTIVE - HISTORY:     5 CYCLES
 CYCLE   5   ALPHA  677.254874  EPSILON    2.578220  DELTA    1.6254E+00
 TTTTTTTTTTTTTTTTTTTTTTTTTTTTTT MOQGAD      TELAPSE   143566.08 TCPU   142166.07
 TTTTTTTTTTTTTTTTTTTTTTTTTTTTTT CP_MONMON   TELAPSE   143571.06 TCPU   142171.03
 DIIS TEST: 0.47826E+00 AT CPHF  CYCLE   6 - DIIS ACTIVE - HISTORY:     6 CYCLES
 CYCLE   6   ALPHA  677.422604  EPSILON    2.578611  DELTA    1.6773E-01
 TTTTTTTTTTTTTTTTTTTTTTTTTTTTTT MOQGAD      TELAPSE   143824.93 TCPU   142423.08
 TTTTTTTTTTTTTTTTTTTTTTTTTTTTTT CP_MONMON   TELAPSE   143829.91 TCPU   142428.05
 DIIS TEST: 0.66688E+00 AT CPHF  CYCLE   7 - DIIS ACTIVE - HISTORY:     7 CYCLES
 CYCLE   7   ALPHA  677.469409  EPSILON    2.578720  DELTA    4.6805E-02
 TTTTTTTTTTTTTTTTTTTTTTTTTTTTTT MOQGAD      TELAPSE   144083.43 TCPU   142679.79
 TTTTTTTTTTTTTTTTTTTTTTTTTTTTTT CP_MONMON   TELAPSE   144088.42 TCPU   142684.76
 DIIS TEST: 0.84759E+00 AT CPHF  CYCLE   8 - DIIS ACTIVE - HISTORY:     8 CYCLES
 CYCLE   8   ALPHA  677.816839  EPSILON    2.579530  DELTA    3.4743E-01
 TTTTTTTTTTTTTTTTTTTTTTTTTTTTTT MOQGAD      TELAPSE   144341.98 TCPU   142936.57
 TTTTTTTTTTTTTTTTTTTTTTTTTTTTTT CP_MONMON   TELAPSE   144346.97 TCPU   142941.54
 DIIS TEST: 0.16719E+01 AT CPHF  CYCLE   9 - DIIS ACTIVE - HISTORY:     9 CYCLES
 CYCLE   9   ALPHA  677.900863  EPSILON    2.579725  DELTA    8.4024E-02
 TTTTTTTTTTTTTTTTTTTTTTTTTTTTTT MOQGAD      TELAPSE   144600.32 TCPU   143192.86
 TTTTTTTTTTTTTTTTTTTTTTTTTTTTTT CP_MONMON   TELAPSE   144605.31 TCPU   143197.83
 DIIS TEST: 0.44240E+00 AT CPHF  CYCLE  10 - DIIS ACTIVE - HISTORY:    10 CYCLES
 CYCLE  10   ALPHA  677.943282  EPSILON    2.579824  DELTA    4.2419E-02
 TTTTTTTTTTTTTTTTTTTTTTTTTTTTTT MOQGAD      TELAPSE   144858.72 TCPU   143449.35
 TTTTTTTTTTTTTTTTTTTTTTTTTTTTTT CP_MONMON   TELAPSE   144863.71 TCPU   143454.32
 DIIS TEST: 0.29974E+00 AT CPHF  CYCLE  11 - DIIS ACTIVE - HISTORY:    11 CYCLES
 CYCLE  11   ALPHA  677.989519  EPSILON    2.579932  DELTA    4.6237E-02
 TTTTTTTTTTTTTTTTTTTTTTTTTTTTTT MOQGAD      TELAPSE   145118.84 TCPU   143707.65
 TTTTTTTTTTTTTTTTTTTTTTTTTTTTTT CP_MONMON   TELAPSE   145123.83 TCPU   143712.62
 DIIS TEST: 0.27711E+00 AT CPHF  CYCLE  12 - DIIS ACTIVE - HISTORY:    12 CYCLES
 CYCLE  12   ALPHA  678.005812  EPSILON    2.579970  DELTA    1.6293E-02
 TTTTTTTTTTTTTTTTTTTTTTTTTTTTTT MOQGAD      TELAPSE   145377.99 TCPU   143964.94
 TTTTTTTTTTTTTTTTTTTTTTTTTTTTTT CP_MONMON   TELAPSE   145382.98 TCPU   143969.91
 DIIS TEST: 0.15955E+00 AT CPHF  CYCLE  13 - DIIS ACTIVE - HISTORY:    13 CYCLES
 CYCLE  13   ALPHA  677.998060  EPSILON    2.579952  DELTA   -7.7518E-03
 TTTTTTTTTTTTTTTTTTTTTTTTTTTTTT MOQGAD      TELAPSE   145636.98 TCPU   144222.06
 TTTTTTTTTTTTTTTTTTTTTTTTTTTTTT CP_MONMON   TELAPSE   145641.96 TCPU   144227.03
 DIIS TEST: 0.10922E+00 AT CPHF  CYCLE  14 - DIIS ACTIVE - HISTORY:    14 CYCLES
 CYCLE  14   ALPHA  677.993265  EPSILON    2.579941  DELTA   -4.7957E-03
 TTTTTTTTTTTTTTTTTTTTTTTTTTTTTT MOQGAD      TELAPSE   145898.45 TCPU   144481.68
 TTTTTTTTTTTTTTTTTTTTTTTTTTTTTT CP_MONMON   TELAPSE   145903.44 TCPU   144486.65
 DIIS TEST: 0.11894E+00 AT CPHF  CYCLE  15 - DIIS ACTIVE - HISTORY:    15 CYCLES
 CYCLE  15   ALPHA  678.001134  EPSILON    2.579959  DELTA    7.8698E-03
 TTTTTTTTTTTTTTTTTTTTTTTTTTTTTT MOQGAD      TELAPSE   146158.08 TCPU   144739.59
 TTTTTTTTTTTTTTTTTTTTTTTTTTTTTT CP_MONMON   TELAPSE   146163.07 TCPU   144744.56
 DIIS TEST: 0.14620E+00 AT CPHF  CYCLE  16 - DIIS ACTIVE - HISTORY:    16 CYCLES
 CYCLE  16   ALPHA  678.015513  EPSILON    2.579993  DELTA    1.4379E-02
 TTTTTTTTTTTTTTTTTTTTTTTTTTTTTT MOQGAD      TELAPSE   146416.83 TCPU   144996.61
 TTTTTTTTTTTTTTTTTTTTTTTTTTTTTT CP_MONMON   TELAPSE   146421.81 TCPU   145001.58
 DIIS TEST: 0.10960E+00 AT CPHF  CYCLE  17 - DIIS ACTIVE - HISTORY:    17 CYCLES
 CYCLE  17   ALPHA  678.029223  EPSILON    2.580025  DELTA    1.3710E-02
 TTTTTTTTTTTTTTTTTTTTTTTTTTTTTT MOQGAD      TELAPSE   146675.28 TCPU   145253.33
 TTTTTTTTTTTTTTTTTTTTTTTTTTTTTT CP_MONMON   TELAPSE   146680.27 TCPU   145258.29
 DIIS TEST: 0.13492E-01 AT CPHF  CYCLE  18 - DIIS ACTIVE - HISTORY:    18 CYCLES
 CYCLE  18   ALPHA  678.038254  EPSILON    2.580046  DELTA    9.0316E-03
 TTTTTTTTTTTTTTTTTTTTTTTTTTTTTT MOQGAD      TELAPSE   146933.71 TCPU   145510.00
 TTTTTTTTTTTTTTTTTTTTTTTTTTTTTT CP_MONMON   TELAPSE   146938.69 TCPU   145514.96
 DIIS TEST: 0.13131E-01 AT CPHF  CYCLE  19 - DIIS ACTIVE - HISTORY:    19 CYCLES
 CYCLE  19   ALPHA  678.054198  EPSILON    2.580083  DELTA    1.5944E-02
 TTTTTTTTTTTTTTTTTTTTTTTTTTTTTT MOQGAD      TELAPSE   147192.03 TCPU   145766.56
 TTTTTTTTTTTTTTTTTTTTTTTTTTTTTT CP_MONMON   TELAPSE   147197.01 TCPU   145771.53
 DIIS TEST: 0.20885E-02 AT CPHF  CYCLE  20 - DIIS ACTIVE - HISTORY:    20 CYCLES
 CYCLE  20   ALPHA  678.056569  EPSILON    2.580088  DELTA    2.3706E-03
 TTTTTTTTTTTTTTTTTTTTTTTTTTTTTT MOQGAD      TELAPSE   147450.45 TCPU   146023.13
 TTTTTTTTTTTTTTTTTTTTTTTTTTTTTT CP_MONMON   TELAPSE   147455.44 TCPU   146028.10
 DIIS TEST: 0.20741E-02 AT CPHF  CYCLE  21 - DIIS ACTIVE - HISTORY:    21 CYCLES
 CYCLE  21   ALPHA  678.049267  EPSILON    2.580071  DELTA   -7.3022E-03
 TTTTTTTTTTTTTTTTTTTTTTTTTTTTTT MOQGAD      TELAPSE   147709.24 TCPU   146280.11
 TTTTTTTTTTTTTTTTTTTTTTTTTTTTTT CP_MONMON   TELAPSE   147714.23 TCPU   146285.08
 DIIS TEST: 0.21981E-03 AT CPHF  CYCLE  22 - DIIS ACTIVE - HISTORY:    22 CYCLES
 CYCLE  22   ALPHA  678.045128  EPSILON    2.580062  DELTA   -4.1389E-03
 TTTTTTTTTTTTTTTTTTTTTTTTTTTTTT MOQGAD      TELAPSE   147968.02 TCPU   146537.02
 TTTTTTTTTTTTTTTTTTTTTTTTTTTTTT CP_MONMON   TELAPSE   147973.01 TCPU   146541.98
 DIIS TEST: 0.59887E-05 AT CPHF  CYCLE  23 - DIIS ACTIVE - HISTORY:    23 CYCLES
 CYCLE  23   ALPHA  678.044084  EPSILON    2.580059  DELTA   -1.0435E-03
 TTTTTTTTTTTTTTTTTTTTTTTTTTTTTT MOQGAD      TELAPSE   148226.59 TCPU   146793.69
 TTTTTTTTTTTTTTTTTTTTTTTTTTTTTT CP_MONMON   TELAPSE   148231.58 TCPU   146798.66
 DIIS TEST: 0.62362E-06 AT CPHF  CYCLE  24 - DIIS ACTIVE - HISTORY:    24 CYCLES
 CYCLE  24   ALPHA  678.043958  EPSILON    2.580059  DELTA   -1.2653E-04
 TTTTTTTTTTTTTTTTTTTTTTTTTTTTTT CP_SC       TELAPSE   148248.03 TCPU   146813.44

 *******************************************************************************

 POLARIZABILITY (ALPHA), DIELECTRIC (EPSILON) AND FIRST-ORDER ELECTRIC
 SUSCEPTIBILITY (CHI(1)) TENSORS (INDEPENDENT COMPONENTS)

  FR.(eV) COMP.   ALPHA(Re,Im)           EPSILON(Re,Im)                CHI(1)
  1.165   XX    1388.7117       0.0000       4.2361       0.0000       3.2361
  1.165   ZZ     678.0440       0.0000       2.5801       0.0000       1.5801

 DIELECTRIC TENSOR

 TENSOR IN PRINCIPAL AXES SYSTEM
 AA  4.236142E+00 BB  4.236142E+00 CC  2.580059E+00

 REFRACTIVE INDICES 
 AA  1.606256E+00 BB  2.058189E+00 CC  2.058189E+00

 OPTICALLY ANISOTROPIC - UNIAXIAL CRYSTAL

 BIREFRINGENCE =  0.4519 (NEGATIVE) - OBLATE OPTICAL ELLIPSOID

 EPSILON=N**2=1+CHI(1)=1+ALPHA*4*PI/V,   4*PI/V=   0.00233 BOHR**(-3)
 ALPHA IN BOHR**3; EPSILON AND CHI(1) ARE DIMENSIONLESS.
 *******************************************************************************


 GCALCO - MAX INDICES DIRECT LATTICE VECTOR    14    14    16
 NO.OF VECTORS CREATED 6999 STARS  484 RMAX   208.99211 BOHR

 CAPPA:IS1  3;IS2  3;IS3  3; K PTS MONK NET   6; SYMMOPS:K SPACE   8;G SPACE   4

 TTTTTTTTTTTTTTTTTTTTTTTTTTTTTT END         TELAPSE   148248.07 TCPU   146813.44
 EEEEEEEEEE TERMINATION  DATE 10 03 2024 TIME 00:11:08.9
NODE    0 CPU TIME =    146813.445
    TOTAL CPU TIME =   9402566.170
