Loading crystal17/1.0.2/intel/19.0
  Loading requirement: intel/19.0 ompi/4.0.1/intel/19.0
          64 PROCESSORS WORKING

         
 *******************************************************************************
 *                                                                             *
 *                               CRYSTAL17                                     *
 *                      public : 1.0.2 - March 1st, 2018                       *
 *                       HTTP://WWW.CRYSTAL.UNITO.IT                           *
 *                                                                             *
 *                              MAIN AUTHORS                                   *
 *                                                                             *
 *  R. DOVESI(1,11), V.R. SAUNDERS(2), C. ROETTI(1,11), R. ORLANDO(1,11),      *
 *  C.M. ZICOVICH-WILSON(1,3), F. PASCALE(4), B. CIVALLERI(1,11),              *
 *  K. DOLL(5), N.M. HARRISON(2,6), I.J. BUSH(7), Ph. D'ARCO(8),               *
 *  M. LLUNELL(9), M. CAUSA'(10), Y. NOEL(8), L. MASCHIO(1,11), A. ERBA(1,11)  *
 *  M. RE'RAT(14), S. CASASSA(1,11)                                            *
 *                                                                             *
 *        CONTRIBUTIONS TO THE CODE HAVE ALSO BEEN GIVEN BY                    *
 *                                                                             *
 *  M. FERRABONE(1,11), M. DE LA PIERRE(1,11), M. FERRERO(1,11),               *
 *  J. BAIMA(1,11), E. ALBANESE(1,11), M.F. PEINTINGER(12), R. BAST(13),       *
 *  B. KIRTMAN(15), V. LACIVITA(1,11), R. DEMICHELIS(1,16)                     *
 *  G. BRANDEBURG(17), S. SALUSTRO(1,11), G. SANSONE(1,11)                     *
 *  M.T. RUGGIERO(18)                                                          *
 *                                                                             *
 * (1) THEORETICAL CHEMISTRY GROUP - UNIVERSITA' DI TORINO - TORINO (ITALY)    *
 * (2) COMPUTATIONAL SCIENCE & ENGINEERING DEPARTMENT - STFC DARESBURY (UK)    *
 * (3) UNIVERSIDAD AUTONOMA DEL ESTADO DE MORELOS - CUERNAVACA (MEXICO)        *
 * (4) UNIVERSITE' DE LORRAINE - NANCY (FRANCE)                                *
 * (5) UNIVERSITAET STUTTGART- STUTTGART (GERMANY)                             *
 * (6) IMPERIAL COLLEGE - LONDON (UK)                                          *
 * (7) OXFORD E-RESEARCH CENTRE - OXFORD (UK)                                  *
 * (8) UPMC - SORBONNE UNIVERSITES - PARIS (FRANCE)                            *
 * (9) UNIVERSIDAD DE BARCELONA - BARCELONA (SPAIN)                            *
 *(10) UNIVERSITA' DI NAPOLI "FEDERICO II" - NAPOLI (ITALY)                    *
 *(11) NIS - NANOSTRUCTURED INTERFACES AND SURFACES - TORINO (ITALY)           *
 *(12) MPI FUER CHEMISCHE ENERGIEKONVERSION - MUELHEIM AN DER RUHR (GERMANY)   *
 *(13) UNIVERSITY OF TROMSO - TROMSO (NORWAY)                                  *
 *(14) UNIVERSITE' DE PAU ET DES PAYS DE L'ADOUR - PAU (FRANCE)                *
 *(15) UNIVERSITY OF CALIFORNIA SANTA BARBARA - SANTA BARBARA (USA)            *
 *(16) CURTIN UNIVERSITY - PERTH (AUSTRALIA)                                   *
 *(17) UNIVERSITY COLLEGE LONDON - LONDON (UK)                                 *
 *(18) CAMBRIDGE UNIVERSITY - CAMBRIDGE (UK)                                   *
 *                                                                             *
 *******************************************************************************
 EEEEEEEEEE STARTING  DATE 08 03 2024 TIME 07:41:23.8
 Z:\home\sanoj\Downloads\tmp_p\newconn.mol                                       

 CRYSTAL CALCULATION
 (INPUT ACCORDING TO THE INTERNATIONAL TABLES FOR X-RAY CRYSTALLOGRAPHY)
 CRYSTAL FAMILY                       :  TETRAGONAL  
 CRYSTAL CLASS  (GROTH - 1921)        :  TETRAGONAL DISPHENOIDAL              

 SPACE GROUP (NONCENTROSYMMETRIC)     :  I -4            

 LATTICE PARAMETERS  (ANGSTROMS AND DEGREES) - CONVENTIONAL CELL
        A           B           C        ALPHA        BETA       GAMMA
    11.01047    11.01047    13.16734    90.00000    90.00000    90.00000


 NUMBER OF IRREDUCIBLE ATOMS IN THE CONVENTIONAL CELL:   17

 INPUT COORDINATES

 ATOM AT. N.              COORDINATES
   1   1    -4.410000000000E-02  7.180200000000E-01  1.276400000000E-01
   2   1     6.039700000000E-01 -7.840000000000E-03  1.148400000000E-01
   3   6     7.577700000000E-01  7.210600000000E-01  1.278100000000E-01
   4   6     7.500600000000E-01  5.887600000000E-01  1.294900000000E-01
   5   6     6.587300000000E-01  8.028000000000E-01  1.241700000000E-01
   6   6     7.988700000000E-01 -3.162000000000E-02  1.220100000000E-01
   7   6     8.742300000000E-01  7.749800000000E-01  1.279900000000E-01
   8   6     3.212000000000E-01  7.263000000000E-02  1.178700000000E-01
   9   7     8.439600000000E-01  5.168600000000E-01  1.626800000000E-01
  10   7     8.111600000000E-01  3.991500000000E-01  1.430300000000E-01
  11   7     6.604600000000E-01  5.149500000000E-01  9.221000000000E-02
  12   7     7.027100000000E-01  3.981900000000E-01  1.015300000000E-01
  13   7     8.940100000000E-01  8.948700000000E-01  1.277100000000E-01
  14  30     0.000000000000E+00  5.000000000000E-01  2.500000000000E-01
  15  30     0.000000000000E+00  0.000000000000E+00  5.000000000000E-01
  16  35     4.957500000000E-01  7.520800000000E-01  1.308900000000E-01
  17  35     8.223500000000E-01  1.388700000000E-01  1.266000000000E-01

 *******************************************************************************

 << INFORMATION >>: FROM NOW ON, ALL COORDINATES REFER TO THE PRIMITIVE CELL

 *******************************************************************************

 LATTICE PARAMETERS  (ANGSTROMS AND DEGREES) - PRIMITIVE CELL
       A          B          C        ALPHA      BETA     GAMMA        VOLUME
   10.19607   10.19607   10.19607   114.64134 114.64134  99.56269    798.140892

 COORDINATES OF THE EQUIVALENT ATOMS (FRACTIONAL UNITS)

 N. ATOM EQUIV AT. N.          X                  Y                  Z

   1   1   1    1 H    -1.54340000000E-01  8.35400000000E-02 -3.26080000000E-01
   2   1   2    1 H     4.09620000000E-01  1.71740000000E-01  3.26080000000E-01
   3   1   3    1 H    -8.35400000000E-02 -4.09620000000E-01 -2.37880000000E-01
   4   1   4    1 H    -1.71740000000E-01  1.54340000000E-01  2.37880000000E-01

   5   2   1    1 H     1.07000000000E-01 -2.81190000000E-01 -4.03870000000E-01
   6   2   2    1 H     1.22680000000E-01 -4.89130000000E-01  4.03870000000E-01
   7   2   3    1 H     2.81190000000E-01 -1.22680000000E-01  3.88190000000E-01
   8   2   4    1 H     4.89130000000E-01 -1.07000000000E-01 -3.88190000000E-01

   9   3   1    6 C    -1.51130000000E-01 -1.14420000000E-01  4.78830000000E-01
  10   3   2    6 C     4.06750000000E-01  3.70040000000E-01 -4.78830000000E-01
  11   3   3    6 C     1.14420000000E-01 -4.06750000000E-01 -3.67100000000E-02
  12   3   4    6 C    -3.70040000000E-01  1.51130000000E-01  3.67100000000E-02

  13   4   1    6 C    -2.81750000000E-01 -1.20450000000E-01  3.38820000000E-01
  14   4   2    6 C    -4.59270000000E-01  3.79430000000E-01 -3.38820000000E-01
  15   4   3    6 C     1.20450000000E-01  4.59270000000E-01 -1.61300000000E-01
  16   4   4    6 C    -3.79430000000E-01  2.81750000000E-01  1.61300000000E-01

  17   5   1    6 C    -7.30300000000E-02 -2.17100000000E-01  4.61530000000E-01
  18   5   2    6 C     3.21370000000E-01  4.65440000000E-01 -4.61530000000E-01
  19   5   3    6 C     2.17100000000E-01 -3.21370000000E-01  1.44070000000E-01
  20   5   4    6 C    -4.65440000000E-01  7.30300000000E-02 -1.44070000000E-01

  21   6   1    6 C     9.03900000000E-02 -7.91200000000E-02 -2.32750000000E-01
  22   6   2    6 C     1.53630000000E-01  3.23140000000E-01  2.32750000000E-01
  23   6   3    6 C     7.91200000000E-02 -1.53630000000E-01  1.69510000000E-01
  24   6   4    6 C    -3.23140000000E-01 -9.03900000000E-02 -1.69510000000E-01

  25   7   1    6 C    -9.70300000000E-02  2.22000000000E-03 -3.50790000000E-01
  26   7   2    6 C     3.53010000000E-01  2.53760000000E-01  3.50790000000E-01
  27   7   3    6 C    -2.22000000000E-03 -3.53010000000E-01 -9.92500000000E-02
  28   7   4    6 C    -2.53760000000E-01  9.70300000000E-02  9.92500000000E-02

  29   8   1    6 C     1.90500000000E-01  4.39070000000E-01  3.93830000000E-01
  30   8   2    6 C     4.52400000000E-02 -2.03330000000E-01 -3.93830000000E-01
  31   8   3    6 C    -4.39070000000E-01 -4.52400000000E-02 -2.48570000000E-01
  32   8   4    6 C     2.03330000000E-01 -1.90500000000E-01  2.48570000000E-01

  33   9   1    7 N    -3.20460000000E-01  6.64000000000E-03  3.60820000000E-01
  34   9   2    7 N    -3.54180000000E-01  3.18720000000E-01 -3.60820000000E-01
  35   9   3    7 N    -6.64000000000E-03  3.54180000000E-01 -3.27100000000E-01
  36   9   4    7 N    -3.18720000000E-01  3.20460000000E-01  3.27100000000E-01

  37  10   1    7 N    -4.57820000000E-01 -4.58100000000E-02  2.10310000000E-01
  38  10   2    7 N    -2.56120000000E-01  3.31870000000E-01 -2.10310000000E-01
  39  10   3    7 N     4.58100000000E-02  2.56120000000E-01 -4.12010000000E-01
  40  10   4    7 N    -3.31870000000E-01  4.57820000000E-01  4.12010000000E-01

  41  11   1    7 N    -3.92840000000E-01 -2.47330000000E-01  1.75410000000E-01
  42  11   2    7 N    -4.22740000000E-01  4.31750000000E-01 -1.75410000000E-01
  43  11   3    7 N     2.47330000000E-01  4.22740000000E-01 -1.45510000000E-01
  44  11   4    7 N    -4.31750000000E-01  3.92840000000E-01  1.45510000000E-01

  45  12   1    7 N     4.99720000000E-01 -1.95760000000E-01  1.00900000000E-01
  46  12   2    7 N    -2.96660000000E-01  3.98820000000E-01 -1.00900000000E-01
  47  12   3    7 N     1.95760000000E-01  2.96660000000E-01 -3.04520000000E-01
  48  12   4    7 N    -3.98820000000E-01 -4.99720000000E-01  3.04520000000E-01

  49  13   1    7 N     2.25800000000E-02  2.17200000000E-02 -2.11120000000E-01
  50  13   2    7 N     2.32840000000E-01  2.33700000000E-01  2.11120000000E-01
  51  13   3    7 N    -2.17200000000E-02 -2.32840000000E-01  8.60000000000E-04
  52  13   4    7 N    -2.33700000000E-01 -2.25800000000E-02 -8.60000000000E-04

  53  14   1   30 ZN   -2.50000000000E-01  2.50000000000E-01 -5.00000000000E-01

  54  15   1   30 ZN   -5.00000000000E-01 -5.00000000000E-01  0.00000000000E+00

  55  16   1   35 BR   -1.17030000000E-01 -3.73360000000E-01  2.47830000000E-01
  56  16   2   35 BR    3.78810000000E-01 -3.64860000000E-01 -2.47830000000E-01
  57  16   3   35 BR    3.73360000000E-01 -3.78810000000E-01  2.56330000000E-01
  58  16   4   35 BR    3.64860000000E-01  1.17030000000E-01 -2.56330000000E-01

  59  17   1   35 BR    2.65470000000E-01 -5.10500000000E-02 -3.87800000000E-02
  60  17   2   35 BR   -1.22700000000E-02  3.04250000000E-01  3.87800000000E-02
  61  17   3   35 BR    5.10500000000E-02  1.22700000000E-02  3.16520000000E-01
  62  17   4   35 BR   -3.04250000000E-01 -2.65470000000E-01 -3.16520000000E-01

 NUMBER OF SYMMETRY OPERATORS         :    4
 *******************************************************************************
 * GEOMETRY EDITING - INPUT COORDINATES ARE GIVEN IN ANGSTROM         
 *******************************************************************************

 GEOMETRY NOW FULLY CONSISTENT WITH THE GROUP

 GCALCO - MAX INDICES DIRECT LATTICE VECTOR    14    14    16
 NO.OF VECTORS CREATED 6999 STARS  485 RMAX   208.85062 BOHR

 GEOMETRY FOR WAVE FUNCTION - DIMENSIONALITY OF THE SYSTEM    3
 (NON PERIODIC DIRECTION: LATTICE PARAMETER FORMALLY SET TO 500)
 *******************************************************************************
 LATTICE PARAMETERS (ANGSTROMS AND DEGREES) - BOHR = 0.5291772083 ANGSTROM
 PRIMITIVE CELL - CENTRING CODE 6/0 VOLUME=   798.140892 - DENSITY  2.778 g/cm^3
         A              B              C           ALPHA      BETA       GAMMA 
    10.19607284    10.19607284    10.19607284   114.641336 114.641336  99.562692
 *******************************************************************************
 ATOMS IN THE ASYMMETRIC UNIT   17 - ATOMS IN THE UNIT CELL:   62
     ATOM                 X/A                 Y/B                 Z/C    
 *******************************************************************************
      1 T   1 H    -1.543400000000E-01  8.354000000000E-02 -3.260800000000E-01
      2 F   1 H     4.096200000000E-01  1.717400000000E-01  3.260800000000E-01
      3 F   1 H    -8.354000000000E-02 -4.096200000000E-01 -2.378800000000E-01
      4 F   1 H    -1.717400000000E-01  1.543400000000E-01  2.378800000000E-01
      5 T   1 H     1.070000000000E-01 -2.811900000000E-01 -4.038700000000E-01
      6 F   1 H     1.226800000000E-01 -4.891300000000E-01  4.038700000000E-01
      7 F   1 H     2.811900000000E-01 -1.226800000000E-01  3.881900000000E-01
      8 F   1 H     4.891300000000E-01 -1.070000000000E-01 -3.881900000000E-01
      9 T   6 C    -1.511300000000E-01 -1.144200000000E-01  4.788300000000E-01
     10 F   6 C     4.067500000000E-01  3.700400000000E-01 -4.788300000000E-01
     11 F   6 C     1.144200000000E-01 -4.067500000000E-01 -3.671000000000E-02
     12 F   6 C    -3.700400000000E-01  1.511300000000E-01  3.671000000000E-02
     13 T   6 C    -2.817500000000E-01 -1.204500000000E-01  3.388200000000E-01
     14 F   6 C    -4.592700000000E-01  3.794300000000E-01 -3.388200000000E-01
     15 F   6 C     1.204500000000E-01  4.592700000000E-01 -1.613000000000E-01
     16 F   6 C    -3.794300000000E-01  2.817500000000E-01  1.613000000000E-01
     17 T   6 C    -7.303000000000E-02 -2.171000000000E-01  4.615300000000E-01
     18 F   6 C     3.213700000000E-01  4.654400000000E-01 -4.615300000000E-01
     19 F   6 C     2.171000000000E-01 -3.213700000000E-01  1.440700000000E-01
     20 F   6 C    -4.654400000000E-01  7.303000000000E-02 -1.440700000000E-01
     21 T   6 C     9.039000000000E-02 -7.912000000000E-02 -2.327500000000E-01
     22 F   6 C     1.536300000000E-01  3.231400000000E-01  2.327500000000E-01
     23 F   6 C     7.912000000000E-02 -1.536300000000E-01  1.695100000000E-01
     24 F   6 C    -3.231400000000E-01 -9.039000000000E-02 -1.695100000000E-01
     25 T   6 C    -9.703000000000E-02  2.220000000000E-03 -3.507900000000E-01
     26 F   6 C     3.530100000000E-01  2.537600000000E-01  3.507900000000E-01
     27 F   6 C    -2.220000000000E-03 -3.530100000000E-01 -9.925000000000E-02
     28 F   6 C    -2.537600000000E-01  9.703000000000E-02  9.925000000000E-02
     29 T   6 C     1.905000000000E-01  4.390700000000E-01  3.938300000000E-01
     30 F   6 C     4.524000000000E-02 -2.033300000000E-01 -3.938300000000E-01
     31 F   6 C    -4.390700000000E-01 -4.524000000000E-02 -2.485700000000E-01
     32 F   6 C     2.033300000000E-01 -1.905000000000E-01  2.485700000000E-01
     33 T   7 N    -3.204600000000E-01  6.640000000000E-03  3.608200000000E-01
     34 F   7 N    -3.541800000000E-01  3.187200000000E-01 -3.608200000000E-01
     35 F   7 N    -6.640000000000E-03  3.541800000000E-01 -3.271000000000E-01
     36 F   7 N    -3.187200000000E-01  3.204600000000E-01  3.271000000000E-01
     37 T   7 N    -4.578200000000E-01 -4.581000000000E-02  2.103100000000E-01
     38 F   7 N    -2.561200000000E-01  3.318700000000E-01 -2.103100000000E-01
     39 F   7 N     4.581000000000E-02  2.561200000000E-01 -4.120100000000E-01
     40 F   7 N    -3.318700000000E-01  4.578200000000E-01  4.120100000000E-01
     41 T   7 N    -3.928400000000E-01 -2.473300000000E-01  1.754100000000E-01
     42 F   7 N    -4.227400000000E-01  4.317500000000E-01 -1.754100000000E-01
     43 F   7 N     2.473300000000E-01  4.227400000000E-01 -1.455100000000E-01
     44 F   7 N    -4.317500000000E-01  3.928400000000E-01  1.455100000000E-01
     45 T   7 N     4.997200000000E-01 -1.957600000000E-01  1.009000000000E-01
     46 F   7 N    -2.966600000000E-01  3.988200000000E-01 -1.009000000000E-01
     47 F   7 N     1.957600000000E-01  2.966600000000E-01 -3.045200000000E-01
     48 F   7 N    -3.988200000000E-01 -4.997200000000E-01  3.045200000000E-01
     49 T   7 N     2.258000000000E-02  2.172000000000E-02 -2.111200000000E-01
     50 F   7 N     2.328400000000E-01  2.337000000000E-01  2.111200000000E-01
     51 F   7 N    -2.172000000000E-02 -2.328400000000E-01  8.600000000001E-04
     52 F   7 N    -2.337000000000E-01 -2.258000000000E-02 -8.600000000001E-04
     53 T  30 ZN   -2.500000000000E-01  2.500000000000E-01  5.000000000000E-01
     54 T  30 ZN    5.000000000000E-01 -5.000000000000E-01  0.000000000000E+00
     55 T  35 BR   -1.170300000000E-01 -3.733600000000E-01  2.478300000000E-01
     56 F  35 BR    3.788100000000E-01 -3.648600000000E-01 -2.478300000000E-01
     57 F  35 BR    3.733600000000E-01 -3.788100000000E-01  2.563300000000E-01
     58 F  35 BR    3.648600000000E-01  1.170300000000E-01 -2.563300000000E-01
     59 T  35 BR    2.654700000000E-01 -5.105000000000E-02 -3.878000000000E-02
     60 F  35 BR   -1.227000000000E-02  3.042500000000E-01  3.878000000000E-02
     61 F  35 BR    5.105000000000E-02  1.227000000000E-02  3.165200000000E-01
     62 F  35 BR   -3.042500000000E-01 -2.654700000000E-01 -3.165200000000E-01

 TRANSFORMATION MATRIX PRIMITIVE-CRYSTALLOGRAPHIC CELL
  0.0000  1.0000  1.0000  1.0000  0.0000  1.0000  1.0000  1.0000  0.0000

 *******************************************************************************
 CRYSTALLOGRAPHIC CELL (VOLUME=       1596.28178327)
         A              B              C           ALPHA      BETA       GAMMA 
    11.01046845    11.01046845    13.16733740    90.000000  90.000000  90.000000

 COORDINATES IN THE CRYSTALLOGRAPHIC CELL
     ATOM                 X/A                 Y/B                 Z/C    
 *******************************************************************************
      1 T   1 H    -4.410000000000E-02 -2.819800000000E-01  1.276400000000E-01
      2 F   1 H     4.410000000000E-02  2.819800000000E-01  1.276400000000E-01
      3 F   1 H    -2.819800000000E-01  4.410000000000E-02 -1.276400000000E-01
      4 F   1 H     2.819800000000E-01 -4.410000000000E-02 -1.276400000000E-01
      5 T   1 H    -3.960300000000E-01 -7.840000000000E-03  1.148400000000E-01
      6 F   1 H     3.960300000000E-01  7.840000000000E-03  1.148400000000E-01
      7 F   1 H    -7.840000000000E-03  3.960300000000E-01 -1.148400000000E-01
      8 F   1 H     7.840000000000E-03 -3.960300000000E-01 -1.148400000000E-01
      9 T   6 C    -2.422300000000E-01 -2.789400000000E-01  1.278100000000E-01
     10 F   6 C     2.422300000000E-01  2.789400000000E-01  1.278100000000E-01
     11 F   6 C    -2.789400000000E-01  2.422300000000E-01 -1.278100000000E-01
     12 F   6 C     2.789400000000E-01 -2.422300000000E-01 -1.278100000000E-01
     13 T   6 C    -2.499400000000E-01 -4.112400000000E-01  1.294900000000E-01
     14 F   6 C     2.499400000000E-01  4.112400000000E-01  1.294900000000E-01
     15 F   6 C    -4.112400000000E-01  2.499400000000E-01 -1.294900000000E-01
     16 F   6 C     4.112400000000E-01 -2.499400000000E-01 -1.294900000000E-01
     17 T   6 C    -3.412700000000E-01 -1.972000000000E-01  1.241700000000E-01
     18 F   6 C     3.412700000000E-01  1.972000000000E-01  1.241700000000E-01
     19 F   6 C    -1.972000000000E-01  3.412700000000E-01 -1.241700000000E-01
     20 F   6 C     1.972000000000E-01 -3.412700000000E-01 -1.241700000000E-01
     21 T   6 C    -2.011300000000E-01 -3.162000000000E-02  1.220100000000E-01
     22 F   6 C     2.011300000000E-01  3.162000000000E-02  1.220100000000E-01
     23 F   6 C    -3.162000000000E-02  2.011300000000E-01 -1.220100000000E-01
     24 F   6 C     3.162000000000E-02 -2.011300000000E-01 -1.220100000000E-01
     25 T   6 C    -1.257700000000E-01 -2.250200000000E-01  1.279900000000E-01
     26 F   6 C     1.257700000000E-01  2.250200000000E-01  1.279900000000E-01
     27 F   6 C    -2.250200000000E-01  1.257700000000E-01 -1.279900000000E-01
     28 F   6 C     2.250200000000E-01 -1.257700000000E-01 -1.279900000000E-01
     29 T   6 C     3.212000000000E-01  7.263000000000E-02  1.178700000000E-01
     30 F   6 C    -3.212000000000E-01 -7.263000000000E-02  1.178700000000E-01
     31 F   6 C     7.263000000000E-02 -3.212000000000E-01 -1.178700000000E-01
     32 F   6 C    -7.263000000000E-02  3.212000000000E-01 -1.178700000000E-01
     33 T   7 N     3.439600000000E-01  1.686000000000E-02 -3.373200000000E-01
     34 F   7 N    -3.439600000000E-01 -1.686000000000E-02 -3.373200000000E-01
     35 F   7 N     1.686000000000E-02 -3.439600000000E-01  3.373200000000E-01
     36 F   7 N    -1.686000000000E-02  3.439600000000E-01  3.373200000000E-01
     37 T   7 N    -1.888400000000E-01  3.991500000000E-01  1.430300000000E-01
     38 F   7 N     1.888400000000E-01 -3.991500000000E-01  1.430300000000E-01
     39 F   7 N     3.991500000000E-01  1.888400000000E-01 -1.430300000000E-01
     40 F   7 N    -3.991500000000E-01 -1.888400000000E-01 -1.430300000000E-01
     41 T   7 N     1.604600000000E-01  1.495000000000E-02 -4.077900000000E-01
     42 F   7 N    -1.604600000000E-01 -1.495000000000E-02 -4.077900000000E-01
     43 F   7 N     1.495000000000E-02 -1.604600000000E-01  4.077900000000E-01
     44 F   7 N    -1.495000000000E-02  1.604600000000E-01  4.077900000000E-01
     45 T   7 N    -2.972900000000E-01  3.981900000000E-01  1.015300000000E-01
     46 F   7 N     2.972900000000E-01 -3.981900000000E-01  1.015300000000E-01
     47 F   7 N     3.981900000000E-01  2.972900000000E-01 -1.015300000000E-01
     48 F   7 N    -3.981900000000E-01 -2.972900000000E-01 -1.015300000000E-01
     49 T   7 N    -1.059900000000E-01 -1.051300000000E-01  1.277100000000E-01
     50 F   7 N     1.059900000000E-01  1.051300000000E-01  1.277100000000E-01
     51 F   7 N    -1.051300000000E-01  1.059900000000E-01 -1.277100000000E-01
     52 F   7 N     1.051300000000E-01 -1.059900000000E-01 -1.277100000000E-01
     53 T  30 ZN    4.268699182823E-17  5.000000000000E-01  2.500000000000E-01
     54 T  30 ZN    0.000000000000E+00  0.000000000000E+00 -5.000000000000E-01
     55 T  35 BR   -4.250000000000E-03  2.520800000000E-01 -3.691100000000E-01
     56 F  35 BR    4.250000000000E-03 -2.520800000000E-01 -3.691100000000E-01
     57 F  35 BR    2.520800000000E-01  4.250000000000E-03  3.691100000000E-01
     58 F  35 BR   -2.520800000000E-01 -4.250000000000E-03  3.691100000000E-01
     59 T  35 BR   -1.776500000000E-01  1.388700000000E-01  1.266000000000E-01
     60 F  35 BR    1.776500000000E-01 -1.388700000000E-01  1.266000000000E-01
     61 F  35 BR    1.388700000000E-01  1.776500000000E-01 -1.266000000000E-01
     62 F  35 BR   -1.388700000000E-01 -1.776500000000E-01 -1.266000000000E-01

 T = ATOM BELONGING TO THE ASYMMETRIC UNIT

 ****    4 SYMMOPS - TRANSLATORS IN FRACTIONAL UNITS
 **** MATRICES AND TRANSLATORS IN THE CRYSTALLOGRAPHIC REFERENCE FRAME
   V INV                    ROTATION MATRICES                   TRANSLATORS
   1   1  1.00  0.00  0.00  0.00  1.00  0.00  0.00  0.00  1.00  0.00  0.00  0.00
   2   2 -0.00  1.00 -1.00  1.00 -0.00 -1.00  0.00 -0.00 -1.00  0.00  0.00  0.00
   3   4  0.00 -1.00 -0.00  0.00 -1.00  1.00  1.00 -1.00 -0.00  0.00  0.00  0.00
   4   3 -1.00  0.00  1.00 -1.00  0.00  0.00 -1.00  1.00  0.00  0.00  0.00  0.00

 DIRECT LATTICE VECTORS CARTESIAN COMPONENTS (ANGSTROM)
          X                    Y                    Z
  -0.550523422335E+01   0.550523422335E+01   0.658366870145E+01
   0.550523422335E+01  -0.550523422335E+01   0.658366870145E+01
   0.550523422335E+01   0.550523422335E+01  -0.658366870145E+01


 CARTESIAN COORDINATES - PRIMITIVE CELL
 *******************************************************************************
 *      ATOM          X(ANGSTROM)         Y(ANGSTROM)         Z(ANGSTROM)
 *******************************************************************************
    1     1 H    -4.855616584995E-01 -3.104731892600E+00  1.680678946106E+00
    2     1 H     4.855616584995E-01  3.104731892600E+00  1.680678946106E+00
    3     1 H    -3.104731892600E+00  4.855616584995E-01 -1.680678946106E+00
    4     1 H     3.104731892600E+00 -4.855616584995E-01 -1.680678946106E+00
    5     1 H    -4.360475818947E+00 -8.632207262213E-02  1.512137027349E+00
    6     1 H     4.360475818947E+00  8.632207262213E-02  1.512137027349E+00
    7     1 H    -8.632207262213E-02  4.360475818947E+00 -1.512137027349E+00
    8     1 H     8.632207262213E-02 -4.360475818947E+00 -1.512137027349E+00
    9     6 C    -2.667065771844E+00 -3.071260068522E+00  1.682917393465E+00
   10     6 C     2.667065771844E+00  3.071260068522E+00  1.682917393465E+00
   11     6 C    -3.071260068522E+00  2.667065771844E+00 -1.682917393465E+00
   12     6 C     3.071260068522E+00 -2.667065771844E+00 -1.682917393465E+00
   13     6 C    -2.751956483568E+00 -4.527945044021E+00  1.705038520302E+00
   14     6 C     2.751956483568E+00  4.527945044021E+00  1.705038520302E+00
   15     6 C    -4.527945044021E+00  2.751956483568E+00 -1.705038520302E+00
   16     6 C     4.527945044021E+00 -2.751956483568E+00 -1.705038520302E+00
   17     6 C    -3.757542566805E+00 -2.171264377689E+00  1.634988285318E+00
   18     6 C     3.757542566805E+00  2.171264377689E+00  1.634988285318E+00
   19     6 C    -2.171264377689E+00  3.757542566805E+00 -1.634988285318E+00
   20     6 C     2.171264377689E+00 -3.757542566805E+00 -1.634988285318E+00
   21     6 C    -2.214535518685E+00 -3.481510122847E-01  1.606546836528E+00
   22     6 C     2.214535518685E+00  3.481510122847E-01  1.606546836528E+00
   23     6 C    -3.481510122847E-01  2.214535518685E+00 -1.606546836528E+00
   24     6 C     3.481510122847E-01 -2.214535518685E+00 -1.606546836528E+00
   25     6 C    -1.384786616541E+00 -2.477575609876E+00  1.685287514197E+00
   26     6 C     1.384786616541E+00  2.477575609876E+00  1.685287514197E+00
   27     6 C    -2.477575609876E+00  1.384786616541E+00 -1.685287514197E+00
   28     6 C     2.477575609876E+00 -1.384786616541E+00 -1.685287514197E+00
   29     6 C     3.536562465080E+00  7.996903232838E-01  1.552034059680E+00
   30     6 C    -3.536562465080E+00 -7.996903232838E-01  1.552034059680E+00
   31     6 C     7.996903232838E-01 -3.536562465080E+00 -1.552034059680E+00
   32     6 C    -7.996903232838E-01  3.536562465080E+00 -1.552034059680E+00
   33     7 N     3.787160726927E+00  1.856364980114E-01 -4.441606252746E+00
   34     7 N    -3.787160726927E+00 -1.856364980114E-01 -4.441606252746E+00
   35     7 N     1.856364980114E-01 -3.787160726927E+00  4.441606252746E+00
   36     7 N    -1.856364980114E-01  3.787160726927E+00  4.441606252746E+00
   37     7 N    -2.079216861475E+00  4.394828480500E+00  1.883324268737E+00
   38     7 N     2.079216861475E+00 -4.394828480500E+00  1.883324268737E+00
   39     7 N     4.394828480500E+00  2.079216861475E+00 -1.883324268737E+00
   40     7 N    -4.394828480500E+00 -2.079216861475E+00 -1.883324268737E+00
   41     7 N     1.766739766957E+00  1.646065032782E-01 -5.369508519529E+00
   42     7 N    -1.766739766957E+00 -1.646065032782E-01 -5.369508519529E+00
   43     7 N     1.646065032782E-01 -1.766739766957E+00  5.369508519529E+00
   44     7 N    -1.646065032782E-01  1.766739766957E+00  5.369508519529E+00
   45     7 N    -3.273302164519E+00  4.384258430791E+00  1.336879766516E+00
   46     7 N     3.273302164519E+00 -4.384258430791E+00  1.336879766516E+00
   47     7 N     4.384258430791E+00  3.273302164519E+00 -1.336879766516E+00
   48     7 N    -4.384258430791E+00 -3.273302164519E+00 -1.336879766516E+00
   49     7 N    -1.166999550666E+00 -1.157530547802E+00  1.681600659724E+00
   50     7 N     1.166999550666E+00  1.157530547802E+00  1.681600659724E+00
   51     7 N    -1.157530547802E+00  1.166999550666E+00 -1.681600659724E+00
   52     7 N     1.157530547802E+00 -1.166999550666E+00 -1.681600659724E+00
   53    30 ZN    4.700037766092E-16  5.505234223350E+00 -9.875503052175E+00
   54    30 ZN    0.000000000000E+00  0.000000000000E+00  6.583668701450E+00
   55    35 BR   -4.679449089848E-02  2.775518886044E+00 -4.860195908784E+00
   56    35 BR    4.679449089847E-02 -2.775518886044E+00 -4.860195908784E+00
   57    35 BR    2.775518886044E+00  4.679449089847E-02  4.860195908784E+00
   58    35 BR   -2.775518886044E+00 -4.679449089847E-02  4.860195908784E+00
   59    35 BR   -1.956009719556E+00  1.529023753193E+00  1.666984915207E+00
   60    35 BR    1.956009719556E+00 -1.529023753193E+00  1.666984915207E+00
   61    35 BR    1.529023753193E+00  1.956009719556E+00 -1.666984915207E+00
   62    35 BR   -1.529023753193E+00 -1.956009719556E+00 -1.666984915207E+00

 *******************************************************************************
 STARTING BASIS SET HANDLING 
 *******************************************************************************

 Loading internal basis set: POB-DZVPP           

 Please cite in your publication:
 Peintinger, M. F., Oliveira, D. V. and Bredow, T. (2013), Generally applicable 
 solid-state Gaussian basis sets, in preparation                                
                                                                                
                    

 *******************************************************************************
 LOCAL ATOMIC FUNCTIONS BASIS SET
 *******************************************************************************
   ATOM   X(AU)   Y(AU)   Z(AU)  N. TYPE  EXPONENT  S COEF   P COEF   D/F/G COEF
 *******************************************************************************
   1 H   -0.918  -5.867   3.176
                                  1 S  
                                         2.263E+01 1.441E-02 0.000E+00 0.000E+00
                                         3.236E+00 1.072E-01 0.000E+00 0.000E+00
                                         7.304E-01 3.846E-01 0.000E+00 0.000E+00
                                  2 S  
                                         1.417E-01 1.000E+00 0.000E+00 0.000E+00
                           3-     5 P  
                                         3.944E-01 0.000E+00 1.000E+00 0.000E+00
                           6-     8 P  
                                         1.006E-01 0.000E+00 1.000E+00 0.000E+00
   2 H    0.918   5.867   3.176
   3 H   -5.867   0.918  -3.176
   4 H    5.867  -0.918  -3.176
   5 H   -8.240  -0.163   2.858
   6 H    8.240   0.163   2.858
   7 H   -0.163   8.240  -2.858
   8 H    0.163  -8.240  -2.858
   9 C   -5.040  -5.804   3.180
                                 65 S  
                                         1.238E+03 5.457E-03 0.000E+00 0.000E+00
                                         1.863E+02 4.064E-02 0.000E+00 0.000E+00
                                         4.225E+01 1.803E-01 0.000E+00 0.000E+00
                                         1.168E+01 4.632E-01 0.000E+00 0.000E+00
                                         3.593E+00 4.409E-01 0.000E+00 0.000E+00
                                 66 S  
                                         5.281E+00 1.000E+00 0.000E+00 0.000E+00
                                 67 S  
                                         4.447E-01 1.000E+00 0.000E+00 0.000E+00
                          68-    70 P  
                                         9.468E+00 0.000E+00 3.839E-02 0.000E+00
                                         2.010E+00 0.000E+00 2.112E-01 0.000E+00
                                         5.477E-01 0.000E+00 5.133E-01 0.000E+00
                          71-    73 P  
                                         1.604E-01 0.000E+00 1.000E+00 0.000E+00
                          74-    78 D  
                                         6.070E-01 0.000E+00 0.000E+00 1.000E+00
                          79-    83 D  
                                         2.939E-01 0.000E+00 0.000E+00 1.000E+00
  10 C    5.040   5.804   3.180
  11 C   -5.804   5.040  -3.180
  12 C    5.804  -5.040  -3.180
  13 C   -5.200  -8.557   3.222
  14 C    5.200   8.557   3.222
  15 C   -8.557   5.200  -3.222
  16 C    8.557  -5.200  -3.222
  17 C   -7.101  -4.103   3.090
  18 C    7.101   4.103   3.090
  19 C   -4.103   7.101  -3.090
  20 C    4.103  -7.101  -3.090
  21 C   -4.185  -0.658   3.036
  22 C    4.185   0.658   3.036
  23 C   -0.658   4.185  -3.036
  24 C    0.658  -4.185  -3.036
  25 C   -2.617  -4.682   3.185
  26 C    2.617   4.682   3.185
  27 C   -4.682   2.617  -3.185
  28 C    4.682  -2.617  -3.185
  29 C    6.683   1.511   2.933
  30 C   -6.683  -1.511   2.933
  31 C    1.511  -6.683  -2.933
  32 C   -1.511   6.683  -2.933
  33 N    7.157   0.351  -8.393
                                521 S  
                                         1.713E+03-5.393E-03 0.000E+00 0.000E+00
                                         2.576E+02-4.022E-02 0.000E+00 0.000E+00
                                         5.846E+01-1.793E-01 0.000E+00 0.000E+00
                                         1.620E+01-4.638E-01 0.000E+00 0.000E+00
                                         5.005E+00-4.417E-01 0.000E+00 0.000E+00
                                522 S  
                                         6.217E-01 1.000E+00 0.000E+00 0.000E+00
                                523 S  
                                         2.921E-01 1.000E+00 0.000E+00 0.000E+00
                         524-   526 P  
                                         1.357E+01 0.000E+00-4.007E-02 0.000E+00
                                         2.926E+00 0.000E+00-2.181E-01 0.000E+00
                                         7.993E-01 0.000E+00-5.129E-01 0.000E+00
                         527-   529 P  
                                         2.244E-01 0.000E+00 1.000E+00 0.000E+00
                         530-   534 D  
                                         3.118E-01 0.000E+00 0.000E+00 1.000E+00
  34 N   -7.157  -0.351  -8.393
  35 N    0.351  -7.157   8.393
  36 N   -0.351   7.157   8.393
  37 N   -3.929   8.305   3.559
  38 N    3.929  -8.305   3.559
  39 N    8.305   3.929  -3.559
  40 N   -8.305  -3.929  -3.559
  41 N    3.339   0.311 -10.147
  42 N   -3.339  -0.311 -10.147
  43 N    0.311  -3.339  10.147
  44 N   -0.311   3.339  10.147
  45 N   -6.186   8.285   2.526
  46 N    6.186  -8.285   2.526
  47 N    8.285   6.186  -2.526
  48 N   -8.285  -6.186  -2.526
  49 N   -2.205  -2.187   3.178
  50 N    2.205   2.187   3.178
  51 N   -2.187   2.205  -3.178
  52 N    2.187  -2.205  -3.178
  53 ZN   0.000  10.403 -18.662
                                801 S  
                                         8.200E+04 1.421E-03 0.000E+00 0.000E+00
                                         1.231E+04 1.089E-02 0.000E+00 0.000E+00
                                         2.801E+03 5.406E-02 0.000E+00 0.000E+00
                                         7.910E+02 1.885E-01 0.000E+00 0.000E+00
                                         2.576E+02 3.835E-01 0.000E+00 0.000E+00
                                         8.881E+01 2.972E-01 0.000E+00 0.000E+00
                                802 S  
                                         1.719E+02-1.105E-01 0.000E+00 0.000E+00
                                         2.030E+01 6.461E-01 0.000E+00 0.000E+00
                                         8.346E+00 4.422E-01 0.000E+00 0.000E+00
                                803 S  
                                         1.485E+01-2.271E-01 0.000E+00 0.000E+00
                                         2.450E+00 7.243E-01 0.000E+00 0.000E+00
                                         9.985E-01 4.484E-01 0.000E+00 0.000E+00
                                804 S  
                                         1.493E+00 1.000E+00 0.000E+00 0.000E+00
                                805 S  
                                         1.830E-01 1.000E+00 0.000E+00 0.000E+00
                         806-   808 P  
                                         1.072E+03 0.000E+00 9.277E-03 0.000E+00
                                         2.527E+02 0.000E+00 6.954E-02 0.000E+00
                                         8.010E+01 0.000E+00 2.716E-01 0.000E+00
                                         2.890E+01 0.000E+00 5.340E-01 0.000E+00
                                         1.077E+01 0.000E+00 3.450E-01 0.000E+00
                         809-   811 P  
                                         5.645E+00 0.000E+00 3.413E-01 0.000E+00
                                         2.168E+00 0.000E+00 5.639E-01 0.000E+00
                                         8.054E-01 0.000E+00 2.368E-01 0.000E+00
                         812-   814 P  
                                         2.721E-01 0.000E+00 1.000E+00 0.000E+00
                         815-   819 D  
                                         5.609E+01 0.000E+00 0.000E+00 2.959E-02
                                         1.575E+01 0.000E+00 0.000E+00 1.587E-01
                                         5.312E+00 0.000E+00 0.000E+00 3.798E-01
                                         1.774E+00 0.000E+00 0.000E+00 4.690E-01
                         820-   824 D  
                                         5.073E-01 0.000E+00 0.000E+00 1.000E+00
                         825-   831 F  
                                         2.814E+00 0.000E+00 0.000E+00 1.000E+00
                         832-   838 F  
                                         1.300E+00 0.000E+00 0.000E+00 1.000E+00
  54 ZN   0.000   0.000  12.441
  55 BR  -0.088   5.245  -9.184
                                877 S  
                                         1.133E+05 1.428E-03 0.000E+00 0.000E+00
                                         1.701E+04 1.095E-02 0.000E+00 0.000E+00
                                         3.870E+03 5.442E-02 0.000E+00 0.000E+00
                                         1.093E+03 1.905E-01 0.000E+00 0.000E+00
                                         3.564E+02 3.902E-01 0.000E+00 0.000E+00
                                         1.231E+02 3.081E-01 0.000E+00 0.000E+00
                                878 S  
                                         2.367E+02-1.123E-01 0.000E+00 0.000E+00
                                         2.847E+01 6.478E-01 0.000E+00 0.000E+00
                                         1.188E+01 4.424E-01 0.000E+00 0.000E+00
                                879 S  
                                         2.127E+01-2.264E-01 0.000E+00 0.000E+00
                                         3.613E+00 7.382E-01 0.000E+00 0.000E+00
                                         1.663E+00 4.268E-01 0.000E+00 0.000E+00
                                880 S  
                                         3.641E-01 1.000E+00 0.000E+00 0.000E+00
                                881 S  
                                         1.243E-01 1.000E+00 0.000E+00 0.000E+00
                         882-   884 P  
                                         1.560E+03 0.000E+00 8.717E-03 0.000E+00
                                         3.685E+02 0.000E+00 6.624E-02 0.000E+00
                                         1.172E+02 0.000E+00 2.650E-01 0.000E+00
                                         4.265E+01 0.000E+00 5.384E-01 0.000E+00
                                         1.609E+01 0.000E+00 3.658E-01 0.000E+00
                         885-   887 P  
                                         8.635E+00 0.000E+00 3.425E-01 0.000E+00
                                         3.561E+00 0.000E+00 5.750E-01 0.000E+00
                                         1.529E+00 0.000E+00 2.433E-01 0.000E+00
                         888-   890 P  
                                         6.447E-01 0.000E+00 1.000E+00 0.000E+00
                         891-   893 P  
                                         2.103E-01 0.000E+00 1.000E+00 0.000E+00
                         894-   898 D  
                                         1.049E+02 0.000E+00 0.000E+00 2.265E-02
                                         3.028E+01 0.000E+00 0.000E+00 1.346E-01
                                         1.065E+01 0.000E+00 0.000E+00 3.647E-01
                                         3.870E+00 0.000E+00 0.000E+00 4.904E-01
                         899-   903 D  
                                         1.342E+00 0.000E+00 0.000E+00 1.000E+00
                         904-   908 D  
                                         4.101E-01 0.000E+00 0.000E+00 1.000E+00
                         909-   913 D  
                                         1.985E-01 0.000E+00 0.000E+00 1.000E+00
  56 BR   0.088  -5.245  -9.184
  57 BR   5.245   0.088   9.184
  58 BR  -5.245  -0.088   9.184
  59 BR  -3.696   2.889   3.150
  60 BR   3.696  -2.889   3.150
  61 BR   2.889   3.696  -3.150
  62 BR  -2.889  -3.696  -3.150

 *******************************************************************************
 FINISHED BASIS SET HANDLING 
 *******************************************************************************

 INFORMATION **** SET_MPP **** PCRYSTAL CALCULATION
 INFORMATION **** READM2 **** NEW DEFAULT: FOCK/KS MATRIX MIXING SET TO 30 %
 INFORMATION **** READM2 **** NEW DEFAULT: FULL DIRECT SCF MODE
 INFORMATION **** READM2 **** NEW DEFAULT: COULOMB BIPOLAR BUFFER SET TO 32 Mb
 INFORMATION **** READM2 **** NEW DEFAULT: EXCHANGE BIPOLAR BUFFER SET TO 32 Mb

 *******************************************************************************
 NEW DEFAULT: DFT INTEGRATION GRID INCREASED TO XLGRID
 NEW DEFAULT: DIIS ACCELERATOR ACTIVE
 USE KEYWORD NODIIS TO TURN IT OFF
 *******************************************************************************

 INFORMATION **** DFTD3_INPUT **** PERFORM DISPERSION CORRECTION DFT-D3(BJ) IN THE BECKE-JOHNSON DAMPING SCHEME

 PLEASE CITE:
 (1) DFT-D3 Reference
  S. Grimme, J. Antony, S. Ehrlich, and H. Krieg, J. Chem. Phys. 132 (2010), 154104
 (2) BJ-Damping Reference
  S. Grimme, S. Ehrlich, and L. Goerigk, J. Comput. Chem. 32 (2011), 1456-1465
 (3) General DFT-D Review
  S. Grimme, A. Hansen, J. G. Brandenburg, and C. Bannwarth,
  Chem. Rev. 116 (2016), 5105-5154

 INFORMATION **** TOLINTEG **** COULOMB AND EXCHANGE SERIES TOLERANCES MODIFIED
 INFORMATION **** BIPOSIZE **** COULOMB BIPOLAR BUFFER SET TO   100000000
 INFORMATION **** MAXCYCLE **** MAX NUMBER OF SCF CYCLES SET TO          50
 *******************************************************************************
 N. OF ATOMS PER CELL        62  COULOMB OVERLAP TOL         (T1) 10**  -12
 NUMBER OF SHELLS           448  COULOMB PENETRATION TOL     (T2) 10**  -12
 NUMBER OF AO              1172  EXCHANGE OVERLAP TOL        (T3) 10**   20
 N. OF ELECTRONS PER CELL   632  EXCHANGE PSEUDO OVP (F(G))  (T4) 10**   20
 CORE ELECTRONS PER CELL    348  EXCHANGE PSEUDO OVP (P(G))  (T5) 10**   20
 N. OF SYMMETRY OPERATORS     4  POLE ORDER IN MONO ZONE                  4
 *******************************************************************************
 TYPE OF CALCULATION :  RESTRICTED CLOSED SHELL
 KOHN-SHAM HAMILTONIAN

 (EXCHANGE)[CORRELATION] FUNCTIONAL:(PERDEW-BURKE-ERNZERHOF)[PERDEW-BURKE-ERNZERHOF]


 CAPPA:IS1  3;IS2  3;IS3  3; K PTS MONK NET   6; SYMMOPS:K SPACE   8;G SPACE   4

 *******************************************************************************
 MAX NUMBER OF SCF CYCLES      50  CONVERGENCE ON DELTAP        10**-16
 WEIGHT OF F(I) IN F(I+1)      30% CONVERGENCE ON ENERGY        10**- 6
 SHRINK. FACT.(MONKH.)    3  3  3  NUMBER OF K POINTS IN THE IBZ      6
 SHRINKING FACTOR(GILAT NET)    3  NUMBER OF K POINTS(GILAT NET)      6
 *******************************************************************************
 *** K POINTS COORDINATES (OBLIQUE COORDINATES IN UNITS OF IS =  3)
   1-R(  0  0  0)   2-C(  1  0  0)   3-C(  1  1  0)   4-C(  2  1  0)
   5-C(  2  1  1)   6-C(  2  2  1)

 DIRECT LATTICE VECTORS COMPON. (A.U.)     RECIP. LATTICE VECTORS COMPON. (A.U.) 
        X            Y            Z              X            Y            Z
  -10.4033850   10.4033850   12.4413308      0.0000000    0.3019779    0.2525126
   10.4033850  -10.4033850   12.4413308      0.3019779    0.0000000    0.2525126
   10.4033850   10.4033850  -12.4413308      0.3019779    0.3019779    0.0000000

 DISK SPACE FOR EIGENVECTORS (FTN 10)    15109424 REALS

 SYMMETRY ADAPTION OF THE BLOCH FUNCTIONS ENABLED
 TTTTTTTTTTTTTTTTTTTTTTTTTTTTTT gordsh1     TELAPSE        7.96 TCPU        0.07

 MATRIX SIZE: P(G) 2049744, F(G) 1025682, P(G) IRR  258953, F(G) IRR  258953
 MAX G-VECTOR INDEX FOR 1- AND 2-ELECTRON INTEGRALS  59

 TTTTTTTTTTTTTTTTTTTTTTTTTTTTTT INPUT       TELAPSE        8.10 TCPU        0.21

 NEIGHBORS OF THE NON-EQUIVALENT ATOMS

 N = NUMBER OF NEIGHBORS AT DISTANCE R
    ATOM  N     R/ANG      R/AU   NEIGHBORS (ATOM LABELS AND CELL INDICES)
   1 H    1     1.0963     2.0718   25 C    0 0 0
   1 H    1     2.0630     3.8985   49 N    0 0 0
   1 H    1     2.1818     4.1229    9 C    0 0 0
   1 H    1     2.5764     4.8686   33 N    0 0-1
   1 H    1     2.6763     5.0575   13 C    0 0 0
   1 H    1     2.8781     5.4388   38 N    0 0 0

   5 H    1     1.0906     2.0609   30 C    0 0 0
   5 H    1     2.1639     4.0892   21 C    0 0 0
   5 H    1     2.1738     4.1080   17 C    0 0 0
   5 H    1     2.2960     4.3388    6 H    0-1-1
   5 H    1     2.9008     5.4818   59 BR   0 0 0
   5 H    1     2.9072     5.4939   55 BR   0 0-1

   9 C    1     1.4130     2.6703   25 C    0 0 0
   9 C    1     1.4147     2.6734   17 C    0 0 0
   9 C    1     1.4593     2.7577   13 C    0 0 0
   9 C    1     2.1818     4.1229    1 H    0 0 0
   9 C    1     2.4316     4.5950   49 N    0 0 0
   9 C    1     2.4358     4.6030   30 C    0 0 0

  13 C    1     1.3692     2.5874   41 N    0 0-1
  13 C    1     1.3735     2.5956   33 N    0 0-1
  13 C    1     1.4593     2.7577    9 C    0 0 0
  13 C    1     2.1932     4.1445   45 N   -1 0-1
  13 C    1     2.2006     4.1586   37 N   -1 0-1
  13 C    1     2.4645     4.6572   25 C    0 0 0

  17 C    1     1.3917     2.6300   30 C    0 0 0
  17 C    1     1.4147     2.6734    9 C    0 0 0
  17 C    1     1.8815     3.5554   55 BR   0 0-1
  17 C    1     2.1738     4.1080    5 H    0 0 0
  17 C    1     2.3886     4.5138   21 C    0 0 0
  17 C    1     2.3930     4.5221   25 C    0 0 0

  21 C    1     1.3259     2.5056   49 N    0 0 0
  21 C    1     1.3981     2.6420   30 C    0 0 0
  21 C    1     1.8959     3.5827   59 BR   0 0 0
  21 C    1     2.1639     4.0892    5 H    0 0 0
  21 C    1     2.2867     4.3213   25 C    0 0 0
  21 C    1     2.3886     4.5138   17 C    0 0 0

  25 C    1     1.0963     2.0718    1 H    0 0 0
  25 C    1     1.3379     2.5283   49 N    0 0 0
  25 C    1     1.4130     2.6703    9 C    0 0 0
  25 C    1     2.2867     4.3213   21 C    0 0 0
  25 C    1     2.3930     4.5221   17 C    0 0 0
  25 C    1     2.4645     4.6572   13 C    0 0 0

  29 C    1     1.0906     2.0609    6 H    0 0 0
  29 C    1     1.3917     2.6300   18 C    0 0 0
  29 C    1     1.3981     2.6420   22 C    0 0 0
  29 C    1     2.3999     4.5352   50 N    0 0 0
  29 C    1     2.4358     4.6030   10 C    0 0 0
  29 C    1     2.7319     5.1625   26 C    0 0 0

  33 N    1     1.3701     2.5891   37 N   -1 0 0
  33 N    1     1.3735     2.5956   13 C    0 0 1
  33 N    1     2.0756     3.9224   53 ZN   0 1 0
  33 N    1     2.1850     4.1291   45 N   -1 0 0
  33 N    1     2.2234     4.2016   41 N    0 0 0
  33 N    1     2.4832     4.6926    9 C    0 0 1

  37 N    1     1.3132     2.4816   45 N    0 0 0
  37 N    1     1.3701     2.5891   33 N    1 0 0
  37 N    1     2.1970     4.1517   41 N    1 0 0
  37 N    1     2.2006     4.1586   13 C    1 0 1
  37 N    1     2.7459     5.1890   53 ZN   1 1 0
  37 N    1     2.8766     5.4360   59 BR   0 0 0

  41 N    1     1.3692     2.5874   13 C    0 0 1
  41 N    1     1.3727     2.5939   45 N   -1 0 0
  41 N    1     2.1500     4.0630   54 ZN  -1-1 0
  41 N    1     2.1970     4.1517   37 N   -1 0 0
  41 N    1     2.2234     4.2016   33 N    0 0 0
  41 N    1     2.5530     4.8244    9 C    0 0 1

  45 N    1     1.3132     2.4816   37 N    0 0 0
  45 N    1     1.3727     2.5939   41 N    1 0 0
  45 N    1     2.1850     4.1291   33 N    1 0 0
  45 N    1     2.1932     4.1445   13 C    1 0 1
  45 N    1     2.7680     5.2308   56 BR   1 0 0
  45 N    1     2.8329     5.3534   54 ZN   0-1 0

  49 N    1     1.3259     2.5056   21 C    0 0 0
  49 N    1     1.3379     2.5283   25 C    0 0 0
  49 N    1     2.0630     3.8985    1 H    0 0 0
  49 N    1     2.3999     4.5352   30 C    0 0 0
  49 N    1     2.4316     4.5950    9 C    0 0 0
  49 N    1     2.7822     5.2576   17 C    0 0 0

  53 ZN   4     2.0756     3.9224   33 N    0-1 0   34 N    0 0 1   35 N    0-1 1
                                    36 N   -1-1 0
  53 ZN   4     2.7459     5.1890   37 N   -1-1 0   38 N    0-1 1   39 N    0-1 0
                                    40 N    0 0 1
  53 ZN   4     2.9316     5.5398    1 H    0-1 1    2 H   -1-1 0    3 H    0 0 1
                                     4 H    0-1 0
  53 ZN   4     3.3236     6.2807   13 C    0-1 1   14 C   -1-1 0   15 C    0 0 1
                                    16 C    0-1 0
  53 ZN   4     3.6967     6.9857   25 C    0-1 1   26 C   -1-1 0   27 C    0 0 1
                                    28 C    0-1 0
  53 ZN   4     3.9530     7.4701    9 C    0-1 1   10 C   -1-1 0   11 C    0 0 1
                                    12 C    0-1 0

  54 ZN   4     2.1500     4.0630   41 N    1 1 0   42 N    1 1 0   43 N    0 0 0
                                    44 N    0 0 0
  54 ZN   4     2.8329     5.3534   45 N    0 1 0   46 N    1 0 0   47 N    0 0-1
                                    48 N    1 1 1
  54 ZN   4     3.2674     6.1745   55 BR   1 1 0   56 BR   1 1 0   57 BR   0 0 0
                                    58 BR   0 0 0
  54 ZN   4     3.3827     6.3924   13 C    1 1 1   14 C    0 0-1   15 C    0 1 0
                                    16 C    1 0 0
  54 ZN   4     4.0642     7.6802   37 N    0 1 0   38 N    1 0 0   39 N    0 0-1
                                    40 N    1 1 1
  54 ZN   4     4.1002     7.7483    9 C    1 1 1   10 C    0 0-1   11 C    0 1 0
                                    12 C    1 0 0

  55 BR   1     1.8815     3.5554   17 C    0 0 1
  55 BR   1     2.7680     5.2308   46 N    0-1 0
  55 BR   1     2.7958     5.2833   30 C    0 0 1
  55 BR   1     2.9054     5.4904    9 C    0 0 1
  55 BR   1     2.9072     5.4939    5 H    0 0 1
  55 BR   1     3.0299     5.7257    6 H    0-1 0

  59 BR   1     1.8959     3.5827   21 C    0 0 0
  59 BR   1     2.8001     5.2913   49 N    0 0 0
  59 BR   1     2.8168     5.3229   30 C    0 0 0
  59 BR   1     2.8766     5.4360   37 N    0 0 0
  59 BR   1     2.9008     5.4818    5 H    0 0 0
  59 BR   1     2.9059     5.4914    2 H    0 0 0


 SYMMETRY ALLOWED INTERNAL DEGREE(S) OF FREEDOM:  45
 TTTTTTTTTTTTTTTTTTTTTTTTTTTTTT SYMM        TELAPSE        8.14 TCPU        0.24
 TTTTTTTTTTTTTTTTTTTTTTTTTTTTTT INT_SCREEN  TELAPSE        8.14 TCPU        0.24
 INFORMATION **** EXCBUF **** EXCH. BIPO BUFFER: WORDS USED =           0

 DFT PARAMETERS

     ATOM       ELECTRONS   NET CHARGE   R(ANGSTROM)
   1   1  H       1.0000      0.0000     1.11000000
   9   6  C       6.0000      0.0000     0.77000000
  33   7  N       7.0000      0.0000     0.74000000
  53  30  ZN     30.0000      0.0000     1.37000000
  55  35  BR     35.0000      0.0000     1.14000000

 SIZE OF GRID=     463186
 TTTTTTTTTTTTTTTTTTTTTTTTTTTTTT MAKE_GRID2  TELAPSE        8.89 TCPU        0.98
 BECKE WEIGHT FUNCTION
 RADSAFE =     2.00
 TOLERANCES - DENSITY:10**- 6; POTENTIAL:10**- 9; GRID WGT:10**-14

 RADIAL INTEGRATION  - INTERVALS (POINTS,UPPER LIMIT):            1( 75,  4.0*R)

 ANGULAR INTEGRATION - INTERVALS (ACCURACY LEVEL [N. POINTS] UPPER LIMIT):
  1(  4[  86]   0.2)  2(  8[ 194]   0.5)  3( 12[ 350]   0.9)  4( 16[ 974]   3.5)
  5( 12[ 350]9999.0)
 TTTTTTTTTTTTTTTTTTTTTTTTTTTTTT INT_CALC    TELAPSE        8.92 TCPU        1.01
 EEEEEEEEEE INT_CALC TERMINATION  DATE 08 03 2024 TIME 07:41:32.3

 *******************************************************************************
 Z:\home\sanoj\Downloads\tmp_p\newconn.mol                                       
 CRYSTAL - SCF - TYPE OF CALCULATION :  RESTRICTED CLOSED SHELL
 *******************************************************************************

 CAPPA:IS1  3;IS2  3;IS3  3; K PTS MONK NET   6; SYMMOPS:K SPACE   8;G SPACE   4

 TTTTTTTTTTTTTTTTTTTTTTTTTTTTTT SDIK        TELAPSE        9.09 TCPU        1.19

 AAAAAAAAAAAAAAAAAAAAAAAAAAAAAAAAAAAAAAAAAAAAAAAAAAAAAAAAAAAAAAAAAAAAAAAAAAAAAAA
         ATOMIC WAVEFUNCTION(S)


 NUCLEAR CHARGE  1.0  SYMMETRY SPECIES            S
 N. ELECTRONS    1.0  NUMBER OF PRIMITIVE GTOS    4
                      NUMBER OF CONTRACTED GTOS   2
                      NUMBER OF CLOSED SHELLS     0
                      OPEN SHELL OCCUPATION       1

  ZNUC SCFIT  TOTAL HF ENERGY   KINETIC ENERGY   VIRIAL THEOREM ACCURACY
   1.0   1   -4.946643675E-01  4.917913167E-01 -2.005842012E+00  9.4E-17

 NUCLEAR CHARGE  6.0  SYMMETRY SPECIES            S    P
 N. ELECTRONS    6.0  NUMBER OF PRIMITIVE GTOS    7    4
                      NUMBER OF CONTRACTED GTOS   3    2
                      NUMBER OF CLOSED SHELLS     2    0
                      OPEN SHELL OCCUPATION       0    2

  ZNUC SCFIT  TOTAL HF ENERGY   KINETIC ENERGY   VIRIAL THEOREM ACCURACY
   6.0   6   -3.750912652E+01  3.905246519E+01 -1.960480378E+00  3.7E-06

 NUCLEAR CHARGE  7.0  SYMMETRY SPECIES            S    P
 N. ELECTRONS    7.0  NUMBER OF PRIMITIVE GTOS    7    4
                      NUMBER OF CONTRACTED GTOS   3    2
                      NUMBER OF CLOSED SHELLS     2    0
                      OPEN SHELL OCCUPATION       0    3

  ZNUC SCFIT  TOTAL HF ENERGY   KINETIC ENERGY   VIRIAL THEOREM ACCURACY
   7.0   9   -5.432196661E+01  5.425066284E+01 -2.001314339E+00  1.2E-06

 NUCLEAR CHARGE 30.0  SYMMETRY SPECIES            S    P    D
 N. ELECTRONS   30.0  NUMBER OF PRIMITIVE GTOS   14    9    5
                      NUMBER OF CONTRACTED GTOS   5    3    2
                      NUMBER OF CLOSED SHELLS     4    2    1
                      OPEN SHELL OCCUPATION       0    0    0

  ZNUC SCFIT  TOTAL HF ENERGY   KINETIC ENERGY   VIRIAL THEOREM ACCURACY
  30.0  10   -1.777404290E+03  1.777325716E+03 -2.000044209E+00  2.5E-06

 NUCLEAR CHARGE 35.0  SYMMETRY SPECIES            S    P    D
 N. ELECTRONS   35.0  NUMBER OF PRIMITIVE GTOS   14   10    7
                      NUMBER OF CONTRACTED GTOS   5    4    4
                      NUMBER OF CLOSED SHELLS     4    2    1
                      OPEN SHELL OCCUPATION       0    5    0

  ZNUC SCFIT  TOTAL HF ENERGY   KINETIC ENERGY   VIRIAL THEOREM ACCURACY
  35.0  13   -2.572060514E+03  2.572021521E+03 -2.000015161E+00  3.6E-06

 AAAAAAAAAAAAAAAAAAAAAAAAAAAAAAAAAAAAAAAAAAAAAAAAAAAAAAAAAAAAAAAAAAAAAAAAAAAAAAA

 TOTAL ATOMIC CHARGES:
   1.0000000   1.0000000   1.0000000   1.0000000   1.0000000   1.0000000
   1.0000000   1.0000000   6.0000000   6.0000000   6.0000000   6.0000000
   6.0000000   6.0000000   6.0000000   6.0000000   6.0000000   6.0000000
   6.0000000   6.0000000   6.0000000   6.0000000   6.0000000   6.0000000
   6.0000000   6.0000000   6.0000000   6.0000000   6.0000000   6.0000000
   6.0000000   6.0000000   7.0000000   7.0000000   7.0000000   7.0000000
   7.0000000   7.0000000   7.0000000   7.0000000   7.0000000   7.0000000
   7.0000000   7.0000000   7.0000000   7.0000000   7.0000000   7.0000000
   7.0000000   7.0000000   7.0000000   7.0000000  30.0000000  30.0000000
  35.0000000  35.0000000  35.0000000  35.0000000  35.0000000  35.0000000
  35.0000000  35.0000000
 TTTTTTTTTTTTTTTTTTTTTTTTTTTTTT MOQGAD      TELAPSE       12.22 TCPU        4.28
 TTTTTTTTTTTTTTTTTTTTTTTTTTTTTT SHELLXN     TELAPSE       49.27 TCPU       29.57
 TTTTTTTTTTTTTTTTTTTTTTTTTTTTTT MONMO3      TELAPSE       53.03 TCPU       33.31
 NUMERICALLY INTEGRATED DENSITY    632.0001710148
 TTTTTTTTTTTTTTTTTTTTTTTTTTTTTT NUMDFT      TELAPSE       53.66 TCPU       33.94
 CYC   0 ETOT(AU) -2.615987520876E+04 DETOT -2.62E+04 tst  0.00E+00 PX  1.00E+00
 TTTTTTTTTTTTTTTTTTTTTTTTTTTTTT DIIS        TELAPSE       53.73 TCPU       34.00
 TTTTTTTTTTTTTTTTTTTTTTTTTTTTTT FDIK        TELAPSE       93.30 TCPU       62.80
 INSULATING STATE
 TOP OF VALENCE BANDS -    BAND    316; K    1; EIG -1.3475469E-01 AU
 BOTTOM OF VIRTUAL BANDS - BAND    317; K    4; EIG -9.6007466E-02 AU
 INDIRECT ENERGY BAND GAP:   1.0544 eV
 BOTTOM OF VIRTUAL BANDS - BAND    317; K    1; EIG -9.4394881E-02 AU
 TTTTTTTTTTTTTTTTTTTTTTTTTTTTTT PDIG        TELAPSE       94.11 TCPU       63.61
 TOTAL ATOMIC CHARGES:
   1.3520250   1.3520250   1.3520250   1.3520250   1.1956336   1.1956336
   1.1956336   1.1956336   6.1835017   6.1835017   6.1835017   6.1835017
   5.4435488   5.4435488   5.4435488   5.4435488   5.5713928   5.5713928
   5.5713928   5.5713928   5.3052901   5.3052901   5.3052901   5.3052901
   5.7993158   5.7993158   5.7993158   5.7993158   6.3957330   6.3957330
   6.3957330   6.3957330   7.4341951   7.4341951   7.4341951   7.4341951
   7.1357063   7.1357063   7.1357063   7.1357063   7.4369349   7.4369349
   7.4369349   7.4369349   7.1673205   7.1673205   7.1673205   7.1673205
   7.5761518   7.5761518   7.5761518   7.5761518  27.8860755  27.9881829
  35.0023040  35.0023040  35.0023040  35.0023040  35.0323819  35.0323819
  35.0323819  35.0323819
 TTTTTTTTTTTTTTTTTTTTTTTTTTTTTT MOQGAD      TELAPSE       94.14 TCPU       63.63
 TTTTTTTTTTTTTTTTTTTTTTTTTTTTTT SHELLXN     TELAPSE      126.45 TCPU       93.64
 TTTTTTTTTTTTTTTTTTTTTTTTTTTTTT MONMO3      TELAPSE      130.89 TCPU       98.06
 NUMERICALLY INTEGRATED DENSITY    632.0002321358
 TTTTTTTTTTTTTTTTTTTTTTTTTTTTTT NUMDFT      TELAPSE      132.71 TCPU       99.87
 CYC   1 ETOT(AU) -2.615488718578E+04 DETOT  4.99E+00 tst  0.00E+00 PX  1.00E+00
 TTTTTTTTTTTTTTTTTTTTTTTTTTTTTT DIIS        TELAPSE      132.87 TCPU      100.03
 DIIS TEST: 0.90167E+01 AT SCF   CYCLE   1 - MIX   30 %
 TTTTTTTTTTTTTTTTTTTTTTTTTTTTTT FDIK        TELAPSE      143.50 TCPU      108.20
 INSULATING STATE
 TOP OF VALENCE BANDS -    BAND    316; K    2; EIG -1.3939015E-01 AU
 TOP OF VALENCE BANDS -    BAND    316; K    1; EIG -1.3947866E-01 AU
 BOTTOM OF VIRTUAL BANDS - BAND    317; K    1; EIG -1.2346805E-01 AU
 INDIRECT ENERGY BAND GAP:   0.4333 eV
 TTTTTTTTTTTTTTTTTTTTTTTTTTTTTT PDIG        TELAPSE      144.31 TCPU      109.00
 TOTAL ATOMIC CHARGES:
   1.3442894   1.3442894   1.3442894   1.3442894   1.1499789   1.1499789
   1.1499789   1.1499789   6.1799018   6.1799018   6.1799018   6.1799018
   6.2659652   6.2659652   6.2659652   6.2659652   6.3893819   6.3893819
   6.3893819   6.3893819   6.3208616   6.3208616   6.3208616   6.3208616
   6.1837725   6.1837725   6.1837725   6.1837725   5.9630055   5.9630055
   5.9630055   5.9630055   6.9364893   6.9364893   6.9364893   6.9364893
   6.8852204   6.8852204   6.8852204   6.8852204   6.8551649   6.8551649
   6.8551649   6.8551649   6.9463972   6.9463972   6.9463972   6.9463972
   5.9781518   5.9781518   5.9781518   5.9781518  29.5063988  29.4162865
  34.9571937  34.9571937  34.9571937  34.9571937  34.9135544  34.9135544
  34.9135544  34.9135544
 TTTTTTTTTTTTTTTTTTTTTTTTTTTTTT MOQGAD      TELAPSE      144.34 TCPU      109.03
 TTTTTTTTTTTTTTTTTTTTTTTTTTTTTT SHELLXN     TELAPSE      176.65 TCPU      139.04
 TTTTTTTTTTTTTTTTTTTTTTTTTTTTTT MONMO3      TELAPSE      181.05 TCPU      143.42
 NUMERICALLY INTEGRATED DENSITY    632.0002685447
 TTTTTTTTTTTTTTTTTTTTTTTTTTTTTT NUMDFT      TELAPSE      182.84 TCPU      145.20
 CYC   2 ETOT(AU) -2.615368573015E+04 DETOT  1.20E+00 tst  2.68E-02 PX  6.58E-01
 TTTTTTTTTTTTTTTTTTTTTTTTTTTTTT DIIS        TELAPSE      183.02 TCPU      145.39
 DIIS TEST: 0.16925E+02 AT SCF   CYCLE   2 - DIIS ACTIVE - HISTORY:     2 CYCLES
 TTTTTTTTTTTTTTTTTTTTTTTTTTTTTT FDIK        TELAPSE      192.00 TCPU      152.16
 INSULATING STATE
 TOP OF VALENCE BANDS -    BAND    316; K    5; EIG -2.3624277E-01 AU
 TOP OF VALENCE BANDS -    BAND    316; K    1; EIG -2.3721373E-01 AU
 BOTTOM OF VIRTUAL BANDS - BAND    317; K    1; EIG -1.2461257E-01 AU
 INDIRECT ENERGY BAND GAP:   3.0376 eV
 TTTTTTTTTTTTTTTTTTTTTTTTTTTTTT PDIG        TELAPSE      192.81 TCPU      152.96
 TOTAL ATOMIC CHARGES:
   1.2865550   1.2865550   1.2865550   1.2865550   1.1277115   1.1277115
   1.1277115   1.1277115   5.9599119   5.9599119   5.9599119   5.9599119
   5.7926158   5.7926158   5.7926158   5.7926158   5.6993719   5.6993719
   5.6993719   5.6993719   5.9108860   5.9108860   5.9108860   5.9108860
   6.0347593   6.0347593   6.0347593   6.0347593   6.0670851   6.0670851
   6.0670851   6.0670851   7.1301715   7.1301715   7.1301715   7.1301715
   7.0380628   7.0380628   7.0380628   7.0380628   7.1091777   7.1091777
   7.1091777   7.1091777   7.0853383   7.0853383   7.0853383   7.0853383
   7.3760773   7.3760773   7.3760773   7.3760773  29.0872506  29.0223563
  34.9773244  34.9773244  34.9773244  34.9773244  34.8775497  34.8775497
  34.8775497  34.8775497
 TTTTTTTTTTTTTTTTTTTTTTTTTTTTTT MOQGAD      TELAPSE      192.83 TCPU      152.99
 TTTTTTTTTTTTTTTTTTTTTTTTTTTTTT SHELLXN     TELAPSE      227.22 TCPU      182.91
 TTTTTTTTTTTTTTTTTTTTTTTTTTTTTT MONMO3      TELAPSE      229.62 TCPU      185.30
 NUMERICALLY INTEGRATED DENSITY    632.0002380307
 TTTTTTTTTTTTTTTTTTTTTTTTTTTTTT NUMDFT      TELAPSE      231.37 TCPU      187.04
 CYC   3 ETOT(AU) -2.615612992885E+04 DETOT -2.44E+00 tst  6.82E-03 PX  4.70E-01
 TTTTTTTTTTTTTTTTTTTTTTTTTTTTTT DIIS        TELAPSE      231.52 TCPU      187.19
 DIIS TEST: 0.30298E+01 AT SCF   CYCLE   3 - DIIS ACTIVE - HISTORY:     3 CYCLES
 TTTTTTTTTTTTTTTTTTTTTTTTTTTTTT FDIK        TELAPSE      240.94 TCPU      192.48
 INSULATING STATE
 TOP OF VALENCE BANDS -    BAND    316; K    2; EIG -2.1860670E-01 AU
 TOP OF VALENCE BANDS -    BAND    316; K    1; EIG -2.1860970E-01 AU
 BOTTOM OF VIRTUAL BANDS - BAND    317; K    1; EIG -1.2652861E-01 AU
 INDIRECT ENERGY BAND GAP:   2.5056 eV
 TTTTTTTTTTTTTTTTTTTTTTTTTTTTTT PDIG        TELAPSE      241.75 TCPU      193.28
 TOTAL ATOMIC CHARGES:
   1.3052893   1.3052893   1.3052893   1.3052893   1.1482518   1.1482518
   1.1482518   1.1482518   6.1686626   6.1686626   6.1686626   6.1686626
   5.7494695   5.7494695   5.7494695   5.7494695   5.9383461   5.9383461
   5.9383461   5.9383461   5.6426106   5.6426106   5.6426106   5.6426106
   5.9306143   5.9306143   5.9306143   5.9306143   6.2804341   6.2804341
   6.2804341   6.2804341   7.2266958   7.2266958   7.2266958   7.2266958
   7.0313986   7.0313986   7.0313986   7.0313986   7.2154525   7.2154525
   7.2154525   7.2154525   7.0999891   7.0999891   7.0999891   7.0999891
   6.9884648   6.9884648   6.9884648   6.9884648  28.7548635  28.7489597
  34.9575037  34.9575037  34.9575037  34.9575037  34.9408614  34.9408614
  34.9408614  34.9408614
 TTTTTTTTTTTTTTTTTTTTTTTTTTTTTT MOQGAD      TELAPSE      241.78 TCPU      193.30
 TTTTTTTTTTTTTTTTTTTTTTTTTTTTTT SHELLXN     TELAPSE      274.18 TCPU      223.32
 TTTTTTTTTTTTTTTTTTTTTTTTTTTTTT MONMO3      TELAPSE      278.60 TCPU      227.73
 NUMERICALLY INTEGRATED DENSITY    632.0002481464
 TTTTTTTTTTTTTTTTTTTTTTTTTTTTTT NUMDFT      TELAPSE      280.40 TCPU      229.51
 CYC   4 ETOT(AU) -2.615647444297E+04 DETOT -3.45E-01 tst  1.46E-03 PX  1.83E-01
 TTTTTTTTTTTTTTTTTTTTTTTTTTTTTT DIIS        TELAPSE      280.55 TCPU      229.67
 DIIS TEST: 0.61304E+00 AT SCF   CYCLE   4 - DIIS ACTIVE - HISTORY:     4 CYCLES
 TTTTTTTTTTTTTTTTTTTTTTTTTTTTTT FDIK        TELAPSE      291.46 TCPU      236.29
 INSULATING STATE
 TOP OF VALENCE BANDS -    BAND    316; K    2; EIG -2.3392911E-01 AU
 TOP OF VALENCE BANDS -    BAND    316; K    1; EIG -2.3486536E-01 AU
 BOTTOM OF VIRTUAL BANDS - BAND    317; K    1; EIG -1.2726727E-01 AU
 INDIRECT ENERGY BAND GAP:   2.9024 eV
 TTTTTTTTTTTTTTTTTTTTTTTTTTTTTT PDIG        TELAPSE      292.26 TCPU      237.09
 TOTAL ATOMIC CHARGES:
   1.2939749   1.2939749   1.2939749   1.2939749   1.1452069   1.1452069
   1.1452069   1.1452069   6.1169420   6.1169420   6.1169420   6.1169420
   5.8005729   5.8005729   5.8005729   5.8005729   5.8837779   5.8837779
   5.8837779   5.8837779   5.8406351   5.8406351   5.8406351   5.8406351
   6.0128125   6.0128125   6.0128125   6.0128125   6.1866642   6.1866642
   6.1866642   6.1866642   7.1954460   7.1954460   7.1954460   7.1954460
   7.0371693   7.0371693   7.0371693   7.0371693   7.1282769   7.1282769
   7.1282769   7.1282769   7.0834664   7.0834664   7.0834664   7.0834664
   7.0336883   7.0336883   7.0336883   7.0336883  28.7569521  28.7446945
  34.9506739  34.9506739  34.9506739  34.9506739  34.9152812  34.9152812
  34.9152812  34.9152812
 TTTTTTTTTTTTTTTTTTTTTTTTTTTTTT MOQGAD      TELAPSE      292.28 TCPU      237.11
 TTTTTTTTTTTTTTTTTTTTTTTTTTTTTT SHELLXN     TELAPSE      322.51 TCPU      267.01
 TTTTTTTTTTTTTTTTTTTTTTTTTTTTTT MONMO3      TELAPSE      329.06 TCPU      273.52
 NUMERICALLY INTEGRATED DENSITY    632.0002440995
 TTTTTTTTTTTTTTTTTTTTTTTTTTTTTT NUMDFT      TELAPSE      330.80 TCPU      275.26
 CYC   5 ETOT(AU) -2.615655209668E+04 DETOT -7.77E-02 tst  2.97E-04 PX  6.83E-02
 TTTTTTTTTTTTTTTTTTTTTTTTTTTTTT DIIS        TELAPSE      330.95 TCPU      275.40
 DIIS TEST: 0.82041E-01 AT SCF   CYCLE   5 - DIIS ACTIVE - HISTORY:     5 CYCLES
 TTTTTTTTTTTTTTTTTTTTTTTTTTTTTT FDIK        TELAPSE      337.62 TCPU      281.86
 INSULATING STATE
 TOP OF VALENCE BANDS -    BAND    316; K    2; EIG -2.3146422E-01 AU
 TOP OF VALENCE BANDS -    BAND    316; K    1; EIG -2.3201664E-01 AU
 BOTTOM OF VIRTUAL BANDS - BAND    317; K    1; EIG -1.2684543E-01 AU
 INDIRECT ENERGY BAND GAP:   2.8468 eV
 TTTTTTTTTTTTTTTTTTTTTTTTTTTTTT PDIG        TELAPSE      338.43 TCPU      282.66
 TOTAL ATOMIC CHARGES:
   1.2981066   1.2981066   1.2981066   1.2981066   1.1450301   1.1450301
   1.1450301   1.1450301   6.1191904   6.1191904   6.1191904   6.1191904
   5.7772742   5.7772742   5.7772742   5.7772742   5.8854924   5.8854924
   5.8854924   5.8854924   5.7551423   5.7551423   5.7551423   5.7551423
   5.9853761   5.9853761   5.9853761   5.9853761   6.1848936   6.1848936
   6.1848936   6.1848936   7.1731808   7.1731808   7.1731808   7.1731808
   7.0194673   7.0194673   7.0194673   7.0194673   7.1899888   7.1899888
   7.1899888   7.1899888   7.1078113   7.1078113   7.1078113   7.1078113
   7.0630842   7.0630842   7.0630842   7.0630842  28.7912320  28.7823662
  34.9719521  34.9719521  34.9719521  34.9719521  34.9306103  34.9306103
  34.9306103  34.9306103
 TTTTTTTTTTTTTTTTTTTTTTTTTTTTTT MOQGAD      TELAPSE      338.45 TCPU      282.69
 TTTTTTTTTTTTTTTTTTTTTTTTTTTTTT SHELLXN     TELAPSE      369.95 TCPU      312.74
 TTTTTTTTTTTTTTTTTTTTTTTTTTTTTT MONMO3      TELAPSE      374.24 TCPU      317.01
 NUMERICALLY INTEGRATED DENSITY    632.0002460760
 TTTTTTTTTTTTTTTTTTTTTTTTTTTTTT NUMDFT      TELAPSE      376.04 TCPU      318.80
 CYC   6 ETOT(AU) -2.615656146495E+04 DETOT -9.37E-03 tst  5.66E-05 PX  3.29E-02
 TTTTTTTTTTTTTTTTTTTTTTTTTTTTTT DIIS        TELAPSE      376.20 TCPU      318.96
 DIIS TEST: 0.28507E-01 AT SCF   CYCLE   6 - DIIS ACTIVE - HISTORY:     6 CYCLES
 TTTTTTTTTTTTTTTTTTTTTTTTTTTTTT FDIK        TELAPSE      385.17 TCPU      326.47
 INSULATING STATE
 TOP OF VALENCE BANDS -    BAND    316; K    2; EIG -2.3164474E-01 AU
 TOP OF VALENCE BANDS -    BAND    316; K    1; EIG -2.3230847E-01 AU
 BOTTOM OF VIRTUAL BANDS - BAND    317; K    1; EIG -1.2652447E-01 AU
 INDIRECT ENERGY BAND GAP:   2.8605 eV
 TTTTTTTTTTTTTTTTTTTTTTTTTTTTTT PDIG        TELAPSE      385.98 TCPU      327.28
 TOTAL ATOMIC CHARGES:
   1.2992949   1.2992949   1.2992949   1.2992949   1.1432140   1.1432140
   1.1432140   1.1432140   6.1067183   6.1067183   6.1067183   6.1067183
   5.7872635   5.7872635   5.7872635   5.7872635   5.8849170   5.8849170
   5.8849170   5.8849170   5.7686923   5.7686923   5.7686923   5.7686923
   5.9863325   5.9863325   5.9863325   5.9863325   6.2023449   6.2023449
   6.2023449   6.2023449   7.2078302   7.2078302   7.2078302   7.2078302
   7.0512988   7.0512988   7.0512988   7.0512988   7.1419107   7.1419107
   7.1419107   7.1419107   7.0765138   7.0765138   7.0765138   7.0765138
   7.0606050   7.0606050   7.0606050   7.0606050  28.7986110  28.7840525
  34.9640116  34.9640116  34.9640116  34.9640116  34.9233866  34.9233866
  34.9233866  34.9233866
 TTTTTTTTTTTTTTTTTTTTTTTTTTTTTT MOQGAD      TELAPSE      386.00 TCPU      327.30
 TTTTTTTTTTTTTTTTTTTTTTTTTTTTTT SHELLXN     TELAPSE      418.36 TCPU      357.30
 TTTTTTTTTTTTTTTTTTTTTTTTTTTTTT MONMO3      TELAPSE      422.76 TCPU      361.68
 NUMERICALLY INTEGRATED DENSITY    632.0002453050
 TTTTTTTTTTTTTTTTTTTTTTTTTTTTTT NUMDFT      TELAPSE      424.57 TCPU      363.48
 CYC   7 ETOT(AU) -2.615656341843E+04 DETOT -1.95E-03 tst  1.50E-05 PX  1.45E-02
 TTTTTTTTTTTTTTTTTTTTTTTTTTTTTT DIIS        TELAPSE      424.73 TCPU      363.64
 DIIS TEST: 0.17412E-01 AT SCF   CYCLE   7 - DIIS ACTIVE - HISTORY:     7 CYCLES
 TTTTTTTTTTTTTTTTTTTTTTTTTTTTTT FDIK        TELAPSE      433.40 TCPU      370.05
 INSULATING STATE
 TOP OF VALENCE BANDS -    BAND    316; K    2; EIG -2.3188071E-01 AU
 TOP OF VALENCE BANDS -    BAND    316; K    1; EIG -2.3250269E-01 AU
 BOTTOM OF VIRTUAL BANDS - BAND    317; K    1; EIG -1.2716331E-01 AU
 INDIRECT ENERGY BAND GAP:   2.8495 eV
 TTTTTTTTTTTTTTTTTTTTTTTTTTTTTT PDIG        TELAPSE      434.20 TCPU      370.85
 TOTAL ATOMIC CHARGES:
   1.2961812   1.2961812   1.2961812   1.2961812   1.1420817   1.1420817
   1.1420817   1.1420817   6.1092555   6.1092555   6.1092555   6.1092555
   5.7899925   5.7899925   5.7899925   5.7899925   5.8839799   5.8839799
   5.8839799   5.8839799   5.7840661   5.7840661   5.7840661   5.7840661
   5.9895498   5.9895498   5.9895498   5.9895498   6.1955565   6.1955565
   6.1955565   6.1955565   7.1846563   7.1846563   7.1846563   7.1846563
   7.0256723   7.0256723   7.0256723   7.0256723   7.1639446   7.1639446
   7.1639446   7.1639446   7.0973800   7.0973800   7.0973800   7.0973800
   7.0570110   7.0570110   7.0570110   7.0570110  28.7934039  28.7821067
  34.9657921  34.9657921  34.9657921  34.9657921  34.9210027  34.9210027
  34.9210027  34.9210027
 TTTTTTTTTTTTTTTTTTTTTTTTTTTTTT MOQGAD      TELAPSE      434.23 TCPU      370.87
 TTTTTTTTTTTTTTTTTTTTTTTTTTTTTT SHELLXN     TELAPSE      466.59 TCPU      400.88
 TTTTTTTTTTTTTTTTTTTTTTTTTTTTTT MONMO3      TELAPSE      470.92 TCPU      405.20
 NUMERICALLY INTEGRATED DENSITY    632.0002452905
 TTTTTTTTTTTTTTTTTTTTTTTTTTTTTT NUMDFT      TELAPSE      472.67 TCPU      406.93
 CYC   8 ETOT(AU) -2.615656583750E+04 DETOT -2.42E-03 tst  5.18E-06 PX  8.39E-03
 TTTTTTTTTTTTTTTTTTTTTTTTTTTTTT DIIS        TELAPSE      472.82 TCPU      407.08
 DIIS TEST: 0.18003E-02 AT SCF   CYCLE   8 - DIIS ACTIVE - HISTORY:     8 CYCLES
 TTTTTTTTTTTTTTTTTTTTTTTTTTTTTT FDIK        TELAPSE      481.89 TCPU      413.88
 INSULATING STATE
 TOP OF VALENCE BANDS -    BAND    316; K    2; EIG -2.3189542E-01 AU
 TOP OF VALENCE BANDS -    BAND    316; K    1; EIG -2.3253331E-01 AU
 BOTTOM OF VIRTUAL BANDS - BAND    317; K    1; EIG -1.2707759E-01 AU
 INDIRECT ENERGY BAND GAP:   2.8522 eV
 TTTTTTTTTTTTTTTTTTTTTTTTTTTTTT PDIG        TELAPSE      482.70 TCPU      414.68
 TOTAL ATOMIC CHARGES:
   1.2956503   1.2956503   1.2956503   1.2956503   1.1430929   1.1430929
   1.1430929   1.1430929   6.1166740   6.1166740   6.1166740   6.1166740
   5.7840143   5.7840143   5.7840143   5.7840143   5.8825381   5.8825381
   5.8825381   5.8825381   5.7763001   5.7763001   5.7763001   5.7763001
   5.9950063   5.9950063   5.9950063   5.9950063   6.1873591   6.1873591
   6.1873591   6.1873591   7.1919017   7.1919017   7.1919017   7.1919017
   7.0322737   7.0322737   7.0322737   7.0322737   7.1632172   7.1632172
   7.1632172   7.1632172   7.0901495   7.0901495   7.0901495   7.0901495
   7.0568243   7.0568243   7.0568243   7.0568243  28.7950722  28.7813464
  34.9652012  34.9652012  34.9652012  34.9652012  34.9256926  34.9256926
  34.9256926  34.9256926
 TTTTTTTTTTTTTTTTTTTTTTTTTTTTTT MOQGAD      TELAPSE      482.73 TCPU      414.70
 TTTTTTTTTTTTTTTTTTTTTTTTTTTTTT SHELLXN     TELAPSE      515.27 TCPU      444.73
 TTTTTTTTTTTTTTTTTTTTTTTTTTTTTT MONMO3      TELAPSE      519.64 TCPU      449.09
 NUMERICALLY INTEGRATED DENSITY    632.0002453570
 TTTTTTTTTTTTTTTTTTTTTTTTTTTTTT NUMDFT      TELAPSE      521.44 TCPU      450.88
 CYC   9 ETOT(AU) -2.615656596502E+04 DETOT -1.28E-04 tst  1.05E-06 PX  2.72E-03
 TTTTTTTTTTTTTTTTTTTTTTTTTTTTTT DIIS        TELAPSE      521.61 TCPU      451.04
 DIIS TEST: 0.97049E-03 AT SCF   CYCLE   9 - DIIS ACTIVE - HISTORY:     9 CYCLES
 TTTTTTTTTTTTTTTTTTTTTTTTTTTTTT FDIK        TELAPSE      527.67 TCPU      456.90
 INSULATING STATE
 TOP OF VALENCE BANDS -    BAND    316; K    2; EIG -2.3207740E-01 AU
 TOP OF VALENCE BANDS -    BAND    316; K    1; EIG -2.3271637E-01 AU
 BOTTOM OF VIRTUAL BANDS - BAND    317; K    1; EIG -1.2701187E-01 AU
 INDIRECT ENERGY BAND GAP:   2.8590 eV
 TTTTTTTTTTTTTTTTTTTTTTTTTTTTTT PDIG        TELAPSE      528.48 TCPU      457.70
 TOTAL ATOMIC CHARGES:
   1.2962172   1.2962172   1.2962172   1.2962172   1.1426230   1.1426230
   1.1426230   1.1426230   6.1116783   6.1116783   6.1116783   6.1116783
   5.7846565   5.7846565   5.7846565   5.7846565   5.8844140   5.8844140
   5.8844140   5.8844140   5.7789005   5.7789005   5.7789005   5.7789005
   5.9886301   5.9886301   5.9886301   5.9886301   6.1945826   6.1945826
   6.1945826   6.1945826   7.1896123   7.1896123   7.1896123   7.1896123
   7.0312446   7.0312446   7.0312446   7.0312446   7.1617769   7.1617769
   7.1617769   7.1617769   7.0932997   7.0932997   7.0932997   7.0932997
   7.0594473   7.0594473   7.0594473   7.0594473  28.7951271  28.7826235
  34.9651917  34.9651917  34.9651917  34.9651917  34.9232877  34.9232877
  34.9232877  34.9232877
 TTTTTTTTTTTTTTTTTTTTTTTTTTTTTT MOQGAD      TELAPSE      528.50 TCPU      457.73
 TTTTTTTTTTTTTTTTTTTTTTTTTTTTTT SHELLXN     TELAPSE      558.94 TCPU      487.78
 TTTTTTTTTTTTTTTTTTTTTTTTTTTTTT MONMO3      TELAPSE      563.25 TCPU      492.08
 NUMERICALLY INTEGRATED DENSITY    632.0002453094
 TTTTTTTTTTTTTTTTTTTTTTTTTTTTTT NUMDFT      TELAPSE      565.06 TCPU      493.87
 CYC  10 ETOT(AU) -2.615656606362E+04 DETOT -9.86E-05 tst  7.81E-07 PX  2.42E-03
 TTTTTTTTTTTTTTTTTTTTTTTTTTTTTT DIIS        TELAPSE      565.30 TCPU      494.11
 DIIS TEST: 0.21730E-03 AT SCF   CYCLE  10 - DIIS ACTIVE - HISTORY:    10 CYCLES
 TTTTTTTTTTTTTTTTTTTTTTTTTTTTTT FDIK        TELAPSE      574.27 TCPU      500.87
 INSULATING STATE
 TOP OF VALENCE BANDS -    BAND    316; K    2; EIG -2.3196689E-01 AU
 TOP OF VALENCE BANDS -    BAND    316; K    1; EIG -2.3260745E-01 AU
 BOTTOM OF VIRTUAL BANDS - BAND    317; K    1; EIG -1.2710413E-01 AU
 INDIRECT ENERGY BAND GAP:   2.8535 eV
 TTTTTTTTTTTTTTTTTTTTTTTTTTTTTT PDIG        TELAPSE      575.08 TCPU      501.68
 TOTAL ATOMIC CHARGES:
   1.2961407   1.2961407   1.2961407   1.2961407   1.1425504   1.1425504
   1.1425504   1.1425504   6.1116386   6.1116386   6.1116386   6.1116386
   5.7880424   5.7880424   5.7880424   5.7880424   5.8836432   5.8836432
   5.8836432   5.8836432   5.7786142   5.7786142   5.7786142   5.7786142
   5.9913911   5.9913911   5.9913911   5.9913911   6.1927985   6.1927985
   6.1927985   6.1927985   7.1901733   7.1901733   7.1901733   7.1901733
   7.0302477   7.0302477   7.0302477   7.0302477   7.1615678   7.1615678
   7.1615678   7.1615678   7.0926258   7.0926258   7.0926258   7.0926258
   7.0584440   7.0584440   7.0584440   7.0584440  28.7938462  28.7817066
  34.9653309  34.9653309  34.9653309  34.9653309  34.9229035  34.9229035
  34.9229035  34.9229035
 TTTTTTTTTTTTTTTTTTTTTTTTTTTTTT MOQGAD      TELAPSE      575.11 TCPU      501.70
 TTTTTTTTTTTTTTTTTTTTTTTTTTTTTT SHELLXN     TELAPSE      607.49 TCPU      531.74
 TTTTTTTTTTTTTTTTTTTTTTTTTTTTTT MONMO3      TELAPSE      611.86 TCPU      536.10
 NUMERICALLY INTEGRATED DENSITY    632.0002453370
 TTTTTTTTTTTTTTTTTTTTTTTTTTTTTT NUMDFT      TELAPSE      613.66 TCPU      537.89
 CYC  11 ETOT(AU) -2.615656608261E+04 DETOT -1.90E-05 tst  8.28E-08 PX  1.01E-03
 TTTTTTTTTTTTTTTTTTTTTTTTTTTTTT DIIS        TELAPSE      613.89 TCPU      538.12
 DIIS TEST: 0.51719E-04 AT SCF   CYCLE  11 - DIIS ACTIVE - HISTORY:    11 CYCLES
 TTTTTTTTTTTTTTTTTTTTTTTTTTTTTT FDIK        TELAPSE      622.34 TCPU      544.30
 INSULATING STATE
 TOP OF VALENCE BANDS -    BAND    316; K    2; EIG -2.3196647E-01 AU
 TOP OF VALENCE BANDS -    BAND    316; K    1; EIG -2.3259950E-01 AU
 BOTTOM OF VIRTUAL BANDS - BAND    317; K    1; EIG -1.2702980E-01 AU
 INDIRECT ENERGY BAND GAP:   2.8555 eV
 TTTTTTTTTTTTTTTTTTTTTTTTTTTTTT PDIG        TELAPSE      623.15 TCPU      545.10
 TOTAL ATOMIC CHARGES:
   1.2961115   1.2961115   1.2961115   1.2961115   1.1426855   1.1426855
   1.1426855   1.1426855   6.1123493   6.1123493   6.1123493   6.1123493
   5.7846901   5.7846901   5.7846901   5.7846901   5.8838125   5.8838125
   5.8838125   5.8838125   5.7788149   5.7788149   5.7788149   5.7788149
   5.9909322   5.9909322   5.9909322   5.9909322   6.1925883   6.1925883
   6.1925883   6.1925883   7.1894691   7.1894691   7.1894691   7.1894691
   7.0320274   7.0320274   7.0320274   7.0320274   7.1623589   7.1623589
   7.1623589   7.1623589   7.0926681   7.0926681   7.0926681   7.0926681
   7.0579534   7.0579534   7.0579534   7.0579534  28.7950831  28.7820727
  34.9654576  34.9654576  34.9654576  34.9654576  34.9237922  34.9237922
  34.9237922  34.9237922
 TTTTTTTTTTTTTTTTTTTTTTTTTTTTTT MOQGAD      TELAPSE      623.17 TCPU      545.13
 TTTTTTTTTTTTTTTTTTTTTTTTTTTTTT SHELLXN     TELAPSE      657.47 TCPU      575.07
 TTTTTTTTTTTTTTTTTTTTTTTTTTTTTT MONMO3      TELAPSE      661.91 TCPU      579.50
 NUMERICALLY INTEGRATED DENSITY    632.0002453083
 TTTTTTTTTTTTTTTTTTTTTTTTTTTTTT NUMDFT      TELAPSE      663.66 TCPU      581.24
 CYC  12 ETOT(AU) -2.615656608564E+04 DETOT -3.03E-06 tst  3.45E-08 PX  9.15E-04
 TTTTTTTTTTTTTTTTTTTTTTTTTTTTTT DIIS        TELAPSE      663.82 TCPU      581.40
 DIIS TEST: 0.29184E-04 AT SCF   CYCLE  12 - DIIS ACTIVE - HISTORY:    12 CYCLES
 TTTTTTTTTTTTTTTTTTTTTTTTTTTTTT FDIK        TELAPSE      671.74 TCPU      589.13
 INSULATING STATE
 TOP OF VALENCE BANDS -    BAND    316; K    2; EIG -2.3201200E-01 AU
 TOP OF VALENCE BANDS -    BAND    316; K    1; EIG -2.3265279E-01 AU
 BOTTOM OF VIRTUAL BANDS - BAND    317; K    1; EIG -1.2706402E-01 AU
 INDIRECT ENERGY BAND GAP:   2.8558 eV
 TTTTTTTTTTTTTTTTTTTTTTTTTTTTTT PDIG        TELAPSE      672.54 TCPU      589.94
 TOTAL ATOMIC CHARGES:
   1.2961042   1.2961042   1.2961042   1.2961042   1.1426962   1.1426962
   1.1426962   1.1426962   6.1124731   6.1124731   6.1124731   6.1124731
   5.7861088   5.7861088   5.7861088   5.7861088   5.8837107   5.8837107
   5.8837107   5.8837107   5.7783584   5.7783584   5.7783584   5.7783584
   5.9904509   5.9904509   5.9904509   5.9904509   6.1928564   6.1928564
   6.1928564   6.1928564   7.1904509   7.1904509   7.1904509   7.1904509
   7.0303957   7.0303957   7.0303957   7.0303957   7.1621201   7.1621201
   7.1621201   7.1621201   7.0924335   7.0924335   7.0924335   7.0924335
   7.0587620   7.0587620   7.0587620   7.0587620  28.7945489  28.7820860
  34.9653120  34.9653120  34.9653120  34.9653120  34.9236085  34.9236085
  34.9236085  34.9236085
 TTTTTTTTTTTTTTTTTTTTTTTTTTTTTT MOQGAD      TELAPSE      672.57 TCPU      589.96
 TTTTTTTTTTTTTTTTTTTTTTTTTTTTTT SHELLXN     TELAPSE      704.90 TCPU      619.98
 TTTTTTTTTTTTTTTTTTTTTTTTTTTTTT MONMO3      TELAPSE      709.27 TCPU      624.34
 NUMERICALLY INTEGRATED DENSITY    632.0002453329
 TTTTTTTTTTTTTTTTTTTTTTTTTTTTTT NUMDFT      TELAPSE      711.02 TCPU      626.08
 CYC  13 ETOT(AU) -2.615656608925E+04 DETOT -3.61E-06 tst  1.53E-08 PX  4.50E-04
 TTTTTTTTTTTTTTTTTTTTTTTTTTTTTT DIIS        TELAPSE      711.19 TCPU      626.25
 DIIS TEST: 0.71772E-05 AT SCF   CYCLE  13 - DIIS ACTIVE - HISTORY:    13 CYCLES
 TTTTTTTTTTTTTTTTTTTTTTTTTTTTTT FDIK        TELAPSE      720.15 TCPU      633.08
[...]
 CYCLE   2   ALPHA  613.320430  EPSILON    2.430939  DELTA    1.2971E+02
 TTTTTTTTTTTTTTTTTTTTTTTTTTTTTT MOQGAD      TELAPSE   111617.15 TCPU   110391.44
 TTTTTTTTTTTTTTTTTTTTTTTTTTTTTT CP_MONMON   TELAPSE   111622.08 TCPU   110396.35
 DIIS TEST: 0.36659E+02 AT CPHF  CYCLE   3 - DIIS ACTIVE - HISTORY:     3 CYCLES
 CYCLE   3   ALPHA  652.027673  EPSILON    2.521247  DELTA    3.8707E+01
 TTTTTTTTTTTTTTTTTTTTTTTTTTTTTT MOQGAD      TELAPSE   111879.15 TCPU   110651.53
 TTTTTTTTTTTTTTTTTTTTTTTTTTTTTT CP_MONMON   TELAPSE   111884.08 TCPU   110656.43
 DIIS TEST: 0.11042E+03 AT CPHF  CYCLE   4 - DIIS ACTIVE - HISTORY:     4 CYCLES
 CYCLE   4   ALPHA  652.961940  EPSILON    2.523427  DELTA    9.3427E-01
 TTTTTTTTTTTTTTTTTTTTTTTTTTTTTT MOQGAD      TELAPSE   112141.86 TCPU   110912.30
 TTTTTTTTTTTTTTTTTTTTTTTTTTTTTT CP_MONMON   TELAPSE   112146.80 TCPU   110917.21
 DIIS TEST: 0.64721E+01 AT CPHF  CYCLE   5 - DIIS ACTIVE - HISTORY:     5 CYCLES
 CYCLE   5   ALPHA  652.971848  EPSILON    2.523450  DELTA    9.9081E-03
 TTTTTTTTTTTTTTTTTTTTTTTTTTTTTT MOQGAD      TELAPSE   112403.67 TCPU   111172.21
 TTTTTTTTTTTTTTTTTTTTTTTTTTTTTT CP_MONMON   TELAPSE   112408.60 TCPU   111177.12
 DIIS TEST: 0.65813E+01 AT CPHF  CYCLE   6 - DIIS ACTIVE - HISTORY:     6 CYCLES
 CYCLE   6   ALPHA  653.906413  EPSILON    2.525630  DELTA    9.3456E-01
 TTTTTTTTTTTTTTTTTTTTTTTTTTTTTT MOQGAD      TELAPSE   112667.51 TCPU   111434.17
 TTTTTTTTTTTTTTTTTTTTTTTTTTTTTT CP_MONMON   TELAPSE   112672.44 TCPU   111439.08
 DIIS TEST: 0.31343E+00 AT CPHF  CYCLE   7 - DIIS ACTIVE - HISTORY:     7 CYCLES
 CYCLE   7   ALPHA  654.264996  EPSILON    2.526467  DELTA    3.5858E-01
 TTTTTTTTTTTTTTTTTTTTTTTTTTTTTT MOQGAD      TELAPSE   112932.19 TCPU   111697.01
 TTTTTTTTTTTTTTTTTTTTTTTTTTTTTT CP_MONMON   TELAPSE   112937.12 TCPU   111701.91
 DIIS TEST: 0.60824E-01 AT CPHF  CYCLE   8 - DIIS ACTIVE - HISTORY:     8 CYCLES
 CYCLE   8   ALPHA  654.418042  EPSILON    2.526824  DELTA    1.5305E-01
 TTTTTTTTTTTTTTTTTTTTTTTTTTTTTT MOQGAD      TELAPSE   113195.21 TCPU   111958.13
 TTTTTTTTTTTTTTTTTTTTTTTTTTTTTT CP_MONMON   TELAPSE   113200.14 TCPU   111963.04
 DIIS TEST: 0.20423E-01 AT CPHF  CYCLE   9 - DIIS ACTIVE - HISTORY:     9 CYCLES
 CYCLE   9   ALPHA  654.438775  EPSILON    2.526872  DELTA    2.0733E-02
 TTTTTTTTTTTTTTTTTTTTTTTTTTTTTT MOQGAD      TELAPSE   113457.26 TCPU   112218.32
 TTTTTTTTTTTTTTTTTTTTTTTTTTTTTT CP_MONMON   TELAPSE   113462.19 TCPU   112223.23
 DIIS TEST: 0.18692E-02 AT CPHF  CYCLE  10 - DIIS ACTIVE - HISTORY:    10 CYCLES
 CYCLE  10   ALPHA  654.435922  EPSILON    2.526866  DELTA   -2.8529E-03
 TTTTTTTTTTTTTTTTTTTTTTTTTTTTTT MOQGAD      TELAPSE   113719.17 TCPU   112478.36
 TTTTTTTTTTTTTTTTTTTTTTTTTTTTTT CP_MONMON   TELAPSE   113724.10 TCPU   112483.27
 DIIS TEST: 0.29103E-03 AT CPHF  CYCLE  11 - DIIS ACTIVE - HISTORY:    11 CYCLES
 CYCLE  11   ALPHA  654.423303  EPSILON    2.526836  DELTA   -1.2619E-02
 TTTTTTTTTTTTTTTTTTTTTTTTTTTTTT MOQGAD      TELAPSE   113981.05 TCPU   112738.40
 TTTTTTTTTTTTTTTTTTTTTTTTTTTTTT CP_MONMON   TELAPSE   113985.98 TCPU   112743.31
 DIIS TEST: 0.52386E-04 AT CPHF  CYCLE  12 - DIIS ACTIVE - HISTORY:    12 CYCLES
 CYCLE  12   ALPHA  654.418146  EPSILON    2.526824  DELTA   -5.1563E-03
 TTTTTTTTTTTTTTTTTTTTTTTTTTTTTT MOQGAD      TELAPSE   114243.04 TCPU   112998.52
 TTTTTTTTTTTTTTTTTTTTTTTTTTTTTT CP_MONMON   TELAPSE   114247.97 TCPU   113003.44
 DIIS TEST: 0.14097E-04 AT CPHF  CYCLE  13 - DIIS ACTIVE - HISTORY:    13 CYCLES
 CYCLE  13   ALPHA  654.415718  EPSILON    2.526819  DELTA   -2.4284E-03
 TTTTTTTTTTTTTTTTTTTTTTTTTTTTTT MOQGAD      TELAPSE   114504.94 TCPU   113258.60
 TTTTTTTTTTTTTTTTTTTTTTTTTTTTTT CP_MONMON   TELAPSE   114509.87 TCPU   113263.51
 DIIS TEST: 0.22696E-05 AT CPHF  CYCLE  14 - DIIS ACTIVE - HISTORY:    14 CYCLES
 CYCLE  14   ALPHA  654.415684  EPSILON    2.526818  DELTA   -3.4575E-05
 TTTTTTTTTTTTTTTTTTTTTTTTTTTTTT CP_SC       TELAPSE   114526.03 TCPU   113278.73

 *******************************************************************************

 POLARIZABILITY (ALPHA), DIELECTRIC (EPSILON) AND FIRST-ORDER ELECTRIC
 SUSCEPTIBILITY (CHI(1)) TENSORS (INDEPENDENT COMPONENTS)

  FR.(eV) COMP.   ALPHA(Re,Im)           EPSILON(Re,Im)                CHI(1)
  1.435   XX    1480.6419       0.0000       4.4545       0.0000       3.4545
  1.435   ZZ     654.4157       0.0000       2.5268       0.0000       1.5268

 DIELECTRIC TENSOR

 TENSOR IN PRINCIPAL AXES SYSTEM
 AA  4.454488E+00 BB  4.454488E+00 CC  2.526818E+00

 REFRACTIVE INDICES 
 AA  1.589597E+00 BB  2.110566E+00 CC  2.110566E+00

 OPTICALLY ANISOTROPIC - UNIAXIAL CRYSTAL

 BIREFRINGENCE =  0.5210 (NEGATIVE) - OBLATE OPTICAL ELLIPSOID

 EPSILON=N**2=1+CHI(1)=1+ALPHA*4*PI/V,   4*PI/V=   0.00233 BOHR**(-3)
 ALPHA IN BOHR**3; EPSILON AND CHI(1) ARE DIMENSIONLESS.
 *******************************************************************************

 DYNAMIC FIELD: RUN 10/ 10 - RADIATION WAVELENGTH: 1064.0000 NM

 *******************************************************************************

 ELECTRIC FIELD APPLIED ALONG CARTESIAN DIRECTION X

 *******************************************************************************
 THE NUMBER OF SYMMETRY OPERATORS HAS BEEN REDUCED FROM  4 TO  1

 NEW GRID IN RECIPROCAL SPACE
 *******************************************************************************
 POINTS IN THE IBZ                  14 SHRINKING FACTORS               3  3  3
 *******************************************************************************
 *** K POINTS COORDINATES (OBLIQUE COORDINATES IN UNITS OF SHRINK FAC. )
   1-R(  0  0  0)   2-C(  1  0  0)   3-C(  0  1  2)   4-C(  2  0  1)
   5-C(  0  2  0)   6-C(  1  1  0)   7-C(  1  1  1)   8-C(  1  0  1)
   9-C(  0  1  1)  10-C(  2  1  0)  11-C(  0  0  2)  12-C(  2  1  1)
  13-C(  2  1  2)  14-C(  2  2  1)

 GCALCO - MAX INDICES DIRECT LATTICE VECTOR    14    14    16
 NO.OF VECTORS CREATED 6999 STARS  485 RMAX   208.85062 BOHR
 TTTTTTTTTTTTTTTTTTTTTTTTTTTTTT gordsh1     TELAPSE   114526.05 TCPU   113278.73

 MATRIX SIZE: P(G) 2049744, F(G) 1025682, P(G) IRR 1027520, F(G) IRR 1027520
 MAX G-VECTOR INDEX FOR 1- AND 2-ELECTRON INTEGRALS  59

 TTTTTTTTTTTTTTTTTTTTTTTTTTTTTT INPUT       TELAPSE   114526.22 TCPU   113278.90
 TTTTTTTTTTTTTTTTTTTTTTTTTTTTTT SYMM        TELAPSE   114526.22 TCPU   113278.90

 ***** NEW REFERENCE GEOMETRY *****
 TTTTTTTTTTTTTTTTTTTTTTTTTTTTTT INT_SCREEN  TELAPSE   114526.23 TCPU   113278.91
 INFORMATION **** EXCBUF **** EXCH. BIPO BUFFER: WORDS USED =           0

 DFT PARAMETERS

     ATOM       ELECTRONS   NET CHARGE   R(ANGSTROM)
   1   1  H       1.0000      0.0000     1.11000000
   9   6  C       6.0000      0.0000     0.77000000
  33   7  N       7.0000      0.0000     0.74000000
  53  30  ZN     30.0000      0.0000     1.37000000
  55  35  BR     35.0000      0.0000     1.14000000

 SIZE OF GRID=    1852512
 TTTTTTTTTTTTTTTTTTTTTTTTTTTTTT MAKE_GRID2  TELAPSE   114527.50 TCPU   113280.18
 BECKE WEIGHT FUNCTION
 RADSAFE =     2.00
 TOLERANCES - DENSITY:10**- 6; POTENTIAL:10**- 9; GRID WGT:10**-14

 RADIAL INTEGRATION  - INTERVALS (POINTS,UPPER LIMIT):            1( 75,  4.0*R)

 ANGULAR INTEGRATION - INTERVALS (ACCURACY LEVEL [N. POINTS] UPPER LIMIT):
  1(  4[  86]   0.2)  2(  8[ 194]   0.5)  3( 12[ 350]   0.9)  4( 16[ 974]   3.5)
  5( 12[ 350]9999.0)
 TTTTTTTTTTTTTTTTTTTTTTTTTTTTTT INT_CALC    TELAPSE   114527.56 TCPU   113280.24
 CYCLE   0   ALPHA 1870.326107  EPSILON    5.363661  DELTA    1.8703E+03
 TTTTTTTTTTTTTTTTTTTTTTTTTTTTTT MOQGAD      TELAPSE   115024.84 TCPU   113774.87
 TTTTTTTTTTTTTTTTTTTTTTTTTTTTTT CP_MONMON   TELAPSE   115033.96 TCPU   113783.95
 DIIS TEST: 0.32404E+03 AT CPHF  CYCLE   1 - MIX    0 %
 CYCLE   1   ALPHA  650.600139  EPSILON    2.517916  DELTA   -1.2197E+03
 TTTTTTTTTTTTTTTTTTTTTTTTTTTTTT MOQGAD      TELAPSE   115533.37 TCPU   114279.81
 TTTTTTTTTTTTTTTTTTTTTTTTTTTTTT CP_MONMON   TELAPSE   115542.49 TCPU   114288.90
 DIIS TEST: 0.25273E+04 AT CPHF  CYCLE   2 - DIIS ACTIVE - HISTORY:     2 CYCLES
 CYCLE   2   ALPHA 1348.741366  EPSILON    4.146751  DELTA    6.9814E+02
 TTTTTTTTTTTTTTTTTTTTTTTTTTTTTT MOQGAD      TELAPSE   116045.08 TCPU   114786.80
 TTTTTTTTTTTTTTTTTTTTTTTTTTTTTT CP_MONMON   TELAPSE   116054.20 TCPU   114795.89
 DIIS TEST: 0.10393E+03 AT CPHF  CYCLE   3 - DIIS ACTIVE - HISTORY:     3 CYCLES
 CYCLE   3   ALPHA 1423.134750  EPSILON    4.320318  DELTA    7.4393E+01
 TTTTTTTTTTTTTTTTTTTTTTTTTTTTTT MOQGAD      TELAPSE   116556.55 TCPU   115294.69
 TTTTTTTTTTTTTTTTTTTTTTTTTTTTTT CP_MONMON   TELAPSE   116565.67 TCPU   115303.78
 DIIS TEST: 0.69832E+01 AT CPHF  CYCLE   4 - DIIS ACTIVE - HISTORY:     4 CYCLES
 CYCLE   4   ALPHA 1440.408086  EPSILON    4.360619  DELTA    1.7273E+01
 TTTTTTTTTTTTTTTTTTTTTTTTTTTTTT MOQGAD      TELAPSE   117067.99 TCPU   115801.90
 TTTTTTTTTTTTTTTTTTTTTTTTTTTTTT CP_MONMON   TELAPSE   117077.14 TCPU   115810.94
 DIIS TEST: 0.14480E+01 AT CPHF  CYCLE   5 - DIIS ACTIVE - HISTORY:     5 CYCLES
 CYCLE   5   ALPHA 1444.600280  EPSILON    4.370400  DELTA    4.1922E+00
 TTTTTTTTTTTTTTTTTTTTTTTTTTTTTT MOQGAD      TELAPSE   117580.91 TCPU   116309.76
 TTTTTTTTTTTTTTTTTTTTTTTTTTTTTT CP_MONMON   TELAPSE   117590.03 TCPU   116318.85
 DIIS TEST: 0.90029E-01 AT CPHF  CYCLE   6 - DIIS ACTIVE - HISTORY:     6 CYCLES
 CYCLE   6   ALPHA 1446.086346  EPSILON    4.373867  DELTA    1.4861E+00
 TTTTTTTTTTTTTTTTTTTTTTTTTTTTTT MOQGAD      TELAPSE   118092.12 TCPU   116817.42
 TTTTTTTTTTTTTTTTTTTTTTTTTTTTTT CP_MONMON   TELAPSE   118101.26 TCPU   116826.53
 DIIS TEST: 0.24169E-01 AT CPHF  CYCLE   7 - DIIS ACTIVE - HISTORY:     7 CYCLES
 CYCLE   7   ALPHA 1446.389748  EPSILON    4.374575  DELTA    3.0340E-01
 TTTTTTTTTTTTTTTTTTTTTTTTTTTTTT MOQGAD      TELAPSE   118608.25 TCPU   117326.62
 TTTTTTTTTTTTTTTTTTTTTTTTTTTTTT CP_MONMON   TELAPSE   118617.39 TCPU   117335.72
 DIIS TEST: 0.26379E-02 AT CPHF  CYCLE   8 - DIIS ACTIVE - HISTORY:     8 CYCLES
 CYCLE   8   ALPHA 1446.424256  EPSILON    4.374655  DELTA    3.4508E-02
 TTTTTTTTTTTTTTTTTTTTTTTTTTTTTT MOQGAD      TELAPSE   119118.59 TCPU   117831.68
 TTTTTTTTTTTTTTTTTTTTTTTTTTTTTT CP_MONMON   TELAPSE   119127.73 TCPU   117840.78
 DIIS TEST: 0.23824E-03 AT CPHF  CYCLE   9 - DIIS ACTIVE - HISTORY:     9 CYCLES
 CYCLE   9   ALPHA 1446.383379  EPSILON    4.374560  DELTA   -4.0877E-02
 TTTTTTTTTTTTTTTTTTTTTTTTTTTTTT MOQGAD      TELAPSE   119627.78 TCPU   118337.16
 TTTTTTTTTTTTTTTTTTTTTTTTTTTTTT CP_MONMON   TELAPSE   119636.91 TCPU   118346.25
 DIIS TEST: 0.39461E-04 AT CPHF  CYCLE  10 - DIIS ACTIVE - HISTORY:    10 CYCLES
 CYCLE  10   ALPHA 1446.364352  EPSILON    4.374515  DELTA   -1.9026E-02
 TTTTTTTTTTTTTTTTTTTTTTTTTTTTTT MOQGAD      TELAPSE   120137.45 TCPU   118842.96
 TTTTTTTTTTTTTTTTTTTTTTTTTTTTTT CP_MONMON   TELAPSE   120146.57 TCPU   118852.05
 DIIS TEST: 0.68562E-05 AT CPHF  CYCLE  11 - DIIS ACTIVE - HISTORY:    11 CYCLES
 CYCLE  11   ALPHA 1446.359684  EPSILON    4.374504  DELTA   -4.6684E-03
 TTTTTTTTTTTTTTTTTTTTTTTTTTTTTT MOQGAD      TELAPSE   120650.26 TCPU   119351.14
 TTTTTTTTTTTTTTTTTTTTTTTTTTTTTT CP_MONMON   TELAPSE   120659.39 TCPU   119360.24
 DIIS TEST: 0.76955E-06 AT CPHF  CYCLE  12 - DIIS ACTIVE - HISTORY:    12 CYCLES
 CYCLE  12   ALPHA 1446.357185  EPSILON    4.374499  DELTA   -2.4983E-03
 TTTTTTTTTTTTTTTTTTTTTTTTTTTTTT MOQGAD      TELAPSE   121160.28 TCPU   119857.14
 TTTTTTTTTTTTTTTTTTTTTTTTTTTTTT CP_MONMON   TELAPSE   121169.41 TCPU   119866.23
 DIIS TEST: 0.12734E-06 AT CPHF  CYCLE  13 - DIIS ACTIVE - HISTORY:    13 CYCLES
 CYCLE  13   ALPHA 1446.356643  EPSILON    4.374497  DELTA   -5.4200E-04
 TTTTTTTTTTTTTTTTTTTTTTTTTTTTTT CP_SC       TELAPSE   121191.29 TCPU   119881.28

 *******************************************************************************

 ELECTRIC FIELD APPLIED ALONG CARTESIAN DIRECTION Z

 *******************************************************************************
 THE NUMBER OF SYMMETRY OPERATORS HAS BEEN REDUCED FROM  4 TO  2

 NEW GRID IN RECIPROCAL SPACE
 *******************************************************************************
 POINTS IN THE IBZ                  10 SHRINKING FACTORS               3  3  3
 *******************************************************************************
 *** K POINTS COORDINATES (OBLIQUE COORDINATES IN UNITS OF SHRINK FAC. )
   1-R(  0  0  0)   2-C(  1  0  0)   3-C(  2  0  1)   4-C(  1  1  0)
   5-C(  1  0  1)   6-C(  2  1  0)   7-C(  0  0  2)   8-C(  2  1  1)
   9-C(  2  1  2)  10-C(  2  2  1)

 GCALCO - MAX INDICES DIRECT LATTICE VECTOR    14    14    16
 NO.OF VECTORS CREATED 6999 STARS  485 RMAX   208.85062 BOHR
 TTTTTTTTTTTTTTTTTTTTTTTTTTTTTT gordsh1     TELAPSE   121191.30 TCPU   119881.29

 MATRIX SIZE: P(G) 2049744, F(G) 1025682, P(G) IRR  516282, F(G) IRR  516282
 MAX G-VECTOR INDEX FOR 1- AND 2-ELECTRON INTEGRALS  59

 TTTTTTTTTTTTTTTTTTTTTTTTTTTTTT INPUT       TELAPSE   121191.34 TCPU   119881.32
 TTTTTTTTTTTTTTTTTTTTTTTTTTTTTT SYMM        TELAPSE   121191.34 TCPU   119881.32

 ***** NEW REFERENCE GEOMETRY *****
 TTTTTTTTTTTTTTTTTTTTTTTTTTTTTT INT_SCREEN  TELAPSE   121191.34 TCPU   119881.33
 INFORMATION **** EXCBUF **** EXCH. BIPO BUFFER: WORDS USED =           0

 DFT PARAMETERS

     ATOM       ELECTRONS   NET CHARGE   R(ANGSTROM)
   1   1  H       1.0000      0.0000     1.11000000
   9   6  C       6.0000      0.0000     0.77000000
  33   7  N       7.0000      0.0000     0.74000000
  53  30  ZN     30.0000      0.0000     1.37000000
  55  35  BR     35.0000      0.0000     1.14000000

 SIZE OF GRID=     926372
 TTTTTTTTTTTTTTTTTTTTTTTTTTTTTT MAKE_GRID2  TELAPSE   121192.17 TCPU   119882.15
 BECKE WEIGHT FUNCTION
 RADSAFE =     2.00
 TOLERANCES - DENSITY:10**- 6; POTENTIAL:10**- 9; GRID WGT:10**-14

 RADIAL INTEGRATION  - INTERVALS (POINTS,UPPER LIMIT):            1( 75,  4.0*R)

 ANGULAR INTEGRATION - INTERVALS (ACCURACY LEVEL [N. POINTS] UPPER LIMIT):
  1(  4[  86]   0.2)  2(  8[ 194]   0.5)  3( 12[ 350]   0.9)  4( 16[ 974]   3.5)
  5( 12[ 350]9999.0)
 TTTTTTTTTTTTTTTTTTTTTTTTTTTTTT INT_CALC    TELAPSE   121192.21 TCPU   119882.19
 CYCLE   0   ALPHA  795.869848  EPSILON    2.856845  DELTA    7.9587E+02
 TTTTTTTTTTTTTTTTTTTTTTTTTTTTTT MOQGAD      TELAPSE   121440.60 TCPU   120129.36
 TTTTTTTTTTTTTTTTTTTTTTTTTTTTTT CP_MONMON   TELAPSE   121445.53 TCPU   120134.27
 DIIS TEST: 0.71233E+02 AT CPHF  CYCLE   1 - MIX    0 %
 CYCLE   1   ALPHA  482.100542  EPSILON    2.124790  DELTA   -3.1377E+02
 TTTTTTTTTTTTTTTTTTTTTTTTTTTTTT MOQGAD      TELAPSE   121697.43 TCPU   120384.27
 TTTTTTTTTTTTTTTTTTTTTTTTTTTTTT CP_MONMON   TELAPSE   121702.36 TCPU   120389.18
 DIIS TEST: 0.41794E+03 AT CPHF  CYCLE   2 - DIIS ACTIVE - HISTORY:     2 CYCLES
 CYCLE   2   ALPHA  608.324009  EPSILON    2.419282  DELTA    1.2622E+02
 TTTTTTTTTTTTTTTTTTTTTTTTTTTTTT MOQGAD      TELAPSE   121954.34 TCPU   120639.25
 TTTTTTTTTTTTTTTTTTTTTTTTTTTTTT CP_MONMON   TELAPSE   121959.27 TCPU   120644.16
 DIIS TEST: 0.35100E+02 AT CPHF  CYCLE   3 - DIIS ACTIVE - HISTORY:     3 CYCLES
 CYCLE   3   ALPHA  646.095044  EPSILON    2.507406  DELTA    3.7771E+01
 TTTTTTTTTTTTTTTTTTTTTTTTTTTTTT MOQGAD      TELAPSE   122211.00 TCPU   120894.12
 TTTTTTTTTTTTTTTTTTTTTTTTTTTTTT CP_MONMON   TELAPSE   122215.93 TCPU   120899.03
 DIIS TEST: 0.79298E+02 AT CPHF  CYCLE   4 - DIIS ACTIVE - HISTORY:     4 CYCLES
 CYCLE   4   ALPHA  646.702991  EPSILON    2.508824  DELTA    6.0795E-01
 TTTTTTTTTTTTTTTTTTTTTTTTTTTTTT MOQGAD      TELAPSE   122469.40 TCPU   121150.75
 TTTTTTTTTTTTTTTTTTTTTTTTTTTTTT CP_MONMON   TELAPSE   122474.33 TCPU   121155.66
 DIIS TEST: 0.51931E+01 AT CPHF  CYCLE   5 - DIIS ACTIVE - HISTORY:     5 CYCLES
 CYCLE   5   ALPHA  646.781393  EPSILON    2.509007  DELTA    7.8402E-02
 TTTTTTTTTTTTTTTTTTTTTTTTTTTTTT MOQGAD      TELAPSE   122728.87 TCPU   121408.36
 TTTTTTTTTTTTTTTTTTTTTTTTTTTTTT CP_MONMON   TELAPSE   122733.80 TCPU   121413.27
 DIIS TEST: 0.56285E+01 AT CPHF  CYCLE   6 - DIIS ACTIVE - HISTORY:     6 CYCLES
 CYCLE   6   ALPHA  647.483974  EPSILON    2.510646  DELTA    7.0258E-01
 TTTTTTTTTTTTTTTTTTTTTTTTTTTTTT MOQGAD      TELAPSE   122988.37 TCPU   121666.03
 TTTTTTTTTTTTTTTTTTTTTTTTTTTTTT CP_MONMON   TELAPSE   122993.29 TCPU   121670.94
 DIIS TEST: 0.29016E+00 AT CPHF  CYCLE   7 - DIIS ACTIVE - HISTORY:     7 CYCLES
 CYCLE   7   ALPHA  647.829798  EPSILON    2.511453  DELTA    3.4582E-01
 TTTTTTTTTTTTTTTTTTTTTTTTTTTTTT MOQGAD      TELAPSE   123246.08 TCPU   121921.89
 TTTTTTTTTTTTTTTTTTTTTTTTTTTTTT CP_MONMON   TELAPSE   123251.01 TCPU   121926.80
 DIIS TEST: 0.58917E-01 AT CPHF  CYCLE   8 - DIIS ACTIVE - HISTORY:     8 CYCLES
 CYCLE   8   ALPHA  647.973588  EPSILON    2.511788  DELTA    1.4379E-01
 TTTTTTTTTTTTTTTTTTTTTTTTTTTTTT MOQGAD      TELAPSE   123502.93 TCPU   122176.88
 TTTTTTTTTTTTTTTTTTTTTTTTTTTTTT CP_MONMON   TELAPSE   123507.86 TCPU   122181.79
 DIIS TEST: 0.18272E-01 AT CPHF  CYCLE   9 - DIIS ACTIVE - HISTORY:     9 CYCLES
 CYCLE   9   ALPHA  647.990402  EPSILON    2.511828  DELTA    1.6813E-02
 TTTTTTTTTTTTTTTTTTTTTTTTTTTTTT MOQGAD      TELAPSE   123759.72 TCPU   122431.77
 TTTTTTTTTTTTTTTTTTTTTTTTTTTTTT CP_MONMON   TELAPSE   123764.65 TCPU   122436.68
 DIIS TEST: 0.15684E-02 AT CPHF  CYCLE  10 - DIIS ACTIVE - HISTORY:    10 CYCLES
 CYCLE  10   ALPHA  647.985873  EPSILON    2.511817  DELTA   -4.5285E-03
 TTTTTTTTTTTTTTTTTTTTTTTTTTTTTT MOQGAD      TELAPSE   124016.38 TCPU   122686.63
 TTTTTTTTTTTTTTTTTTTTTTTTTTTTTT CP_MONMON   TELAPSE   124021.32 TCPU   122691.55
 DIIS TEST: 0.24110E-03 AT CPHF  CYCLE  11 - DIIS ACTIVE - HISTORY:    11 CYCLES
 CYCLE  11   ALPHA  647.973745  EPSILON    2.511789  DELTA   -1.2128E-02
 TTTTTTTTTTTTTTTTTTTTTTTTTTTTTT MOQGAD      TELAPSE   124273.01 TCPU   122941.22
 TTTTTTTTTTTTTTTTTTTTTTTTTTTTTT CP_MONMON   TELAPSE   124277.94 TCPU   122946.13
 DIIS TEST: 0.38426E-04 AT CPHF  CYCLE  12 - DIIS ACTIVE - HISTORY:    12 CYCLES
 CYCLE  12   ALPHA  647.969059  EPSILON    2.511778  DELTA   -4.6863E-03
 TTTTTTTTTTTTTTTTTTTTTTTTTTTTTT MOQGAD      TELAPSE   124529.64 TCPU   123195.72
 TTTTTTTTTTTTTTTTTTTTTTTTTTTTTT CP_MONMON   TELAPSE   124534.57 TCPU   123200.63
 DIIS TEST: 0.90696E-05 AT CPHF  CYCLE  13 - DIIS ACTIVE - HISTORY:    13 CYCLES
 CYCLE  13   ALPHA  647.966974  EPSILON    2.511773  DELTA   -2.0842E-03
 TTTTTTTTTTTTTTTTTTTTTTTTTTTTTT MOQGAD      TELAPSE   124786.46 TCPU   123450.67
 TTTTTTTTTTTTTTTTTTTTTTTTTTTTTT CP_MONMON   TELAPSE   124791.40 TCPU   123455.59
 DIIS TEST: 0.13248E-05 AT CPHF  CYCLE  14 - DIIS ACTIVE - HISTORY:    14 CYCLES
 CYCLE  14   ALPHA  647.966935  EPSILON    2.511773  DELTA   -3.9048E-05
 TTTTTTTTTTTTTTTTTTTTTTTTTTTTTT CP_SC       TELAPSE   124807.24 TCPU   123470.38

 *******************************************************************************

 POLARIZABILITY (ALPHA), DIELECTRIC (EPSILON) AND FIRST-ORDER ELECTRIC
 SUSCEPTIBILITY (CHI(1)) TENSORS (INDEPENDENT COMPONENTS)

  FR.(eV) COMP.   ALPHA(Re,Im)           EPSILON(Re,Im)                CHI(1)
  1.165   XX    1446.3566       0.0000       4.3745       0.0000       3.3745
  1.165   ZZ     647.9669       0.0000       2.5118       0.0000       1.5118

 DIELECTRIC TENSOR

 TENSOR IN PRINCIPAL AXES SYSTEM
 AA  4.374497E+00 BB  4.374497E+00 CC  2.511773E+00

 REFRACTIVE INDICES 
 AA  1.584857E+00 BB  2.091530E+00 CC  2.091530E+00

 OPTICALLY ANISOTROPIC - UNIAXIAL CRYSTAL

 BIREFRINGENCE =  0.5067 (NEGATIVE) - OBLATE OPTICAL ELLIPSOID

 EPSILON=N**2=1+CHI(1)=1+ALPHA*4*PI/V,   4*PI/V=   0.00233 BOHR**(-3)
 ALPHA IN BOHR**3; EPSILON AND CHI(1) ARE DIMENSIONLESS.
 *******************************************************************************


 GCALCO - MAX INDICES DIRECT LATTICE VECTOR    14    14    16
 NO.OF VECTORS CREATED 6999 STARS  485 RMAX   208.85062 BOHR

 CAPPA:IS1  3;IS2  3;IS3  3; K PTS MONK NET   6; SYMMOPS:K SPACE   8;G SPACE   4

 TTTTTTTTTTTTTTTTTTTTTTTTTTTTTT END         TELAPSE   124807.30 TCPU   123470.38
 EEEEEEEEEE TERMINATION  DATE 09 03 2024 TIME 18:21:30.7
NODE    0 CPU TIME =    123470.385
    TOTAL CPU TIME =   7909996.310
