Loading crystal17/1.0.2/intel/19.0
  Loading requirement: intel/19.0 ompi/4.0.1/intel/19.0
          64 PROCESSORS WORKING

         
 *******************************************************************************
 *                                                                             *
 *                               CRYSTAL17                                     *
 *                      public : 1.0.2 - March 1st, 2018                       *
 *                       HTTP://WWW.CRYSTAL.UNITO.IT                           *
 *                                                                             *
 *                              MAIN AUTHORS                                   *
 *                                                                             *
 *  R. DOVESI(1,11), V.R. SAUNDERS(2), C. ROETTI(1,11), R. ORLANDO(1,11),      *
 *  C.M. ZICOVICH-WILSON(1,3), F. PASCALE(4), B. CIVALLERI(1,11),              *
 *  K. DOLL(5), N.M. HARRISON(2,6), I.J. BUSH(7), Ph. D'ARCO(8),               *
 *  M. LLUNELL(9), M. CAUSA'(10), Y. NOEL(8), L. MASCHIO(1,11), A. ERBA(1,11)  *
 *  M. RE'RAT(14), S. CASASSA(1,11)                                            *
 *                                                                             *
 *        CONTRIBUTIONS TO THE CODE HAVE ALSO BEEN GIVEN BY                    *
 *                                                                             *
 *  M. FERRABONE(1,11), M. DE LA PIERRE(1,11), M. FERRERO(1,11),               *
 *  J. BAIMA(1,11), E. ALBANESE(1,11), M.F. PEINTINGER(12), R. BAST(13),       *
 *  B. KIRTMAN(15), V. LACIVITA(1,11), R. DEMICHELIS(1,16)                     *
 *  G. BRANDEBURG(17), S. SALUSTRO(1,11), G. SANSONE(1,11)                     *
 *  M.T. RUGGIERO(18)                                                          *
 *                                                                             *
 * (1) THEORETICAL CHEMISTRY GROUP - UNIVERSITA' DI TORINO - TORINO (ITALY)    *
 * (2) COMPUTATIONAL SCIENCE & ENGINEERING DEPARTMENT - STFC DARESBURY (UK)    *
 * (3) UNIVERSIDAD AUTONOMA DEL ESTADO DE MORELOS - CUERNAVACA (MEXICO)        *
 * (4) UNIVERSITE' DE LORRAINE - NANCY (FRANCE)                                *
 * (5) UNIVERSITAET STUTTGART- STUTTGART (GERMANY)                             *
 * (6) IMPERIAL COLLEGE - LONDON (UK)                                          *
 * (7) OXFORD E-RESEARCH CENTRE - OXFORD (UK)                                  *
 * (8) UPMC - SORBONNE UNIVERSITES - PARIS (FRANCE)                            *
 * (9) UNIVERSIDAD DE BARCELONA - BARCELONA (SPAIN)                            *
 *(10) UNIVERSITA' DI NAPOLI "FEDERICO II" - NAPOLI (ITALY)                    *
 *(11) NIS - NANOSTRUCTURED INTERFACES AND SURFACES - TORINO (ITALY)           *
 *(12) MPI FUER CHEMISCHE ENERGIEKONVERSION - MUELHEIM AN DER RUHR (GERMANY)   *
 *(13) UNIVERSITY OF TROMSO - TROMSO (NORWAY)                                  *
 *(14) UNIVERSITE' DE PAU ET DES PAYS DE L'ADOUR - PAU (FRANCE)                *
 *(15) UNIVERSITY OF CALIFORNIA SANTA BARBARA - SANTA BARBARA (USA)            *
 *(16) CURTIN UNIVERSITY - PERTH (AUSTRALIA)                                   *
 *(17) UNIVERSITY COLLEGE LONDON - LONDON (UK)                                 *
 *(18) CAMBRIDGE UNIVERSITY - CAMBRIDGE (UK)                                   *
 *                                                                             *
 *******************************************************************************
 EEEEEEEEEE STARTING  DATE 15 12 2023 TIME 01:19:50.1
 Z:\home\sanoj\Downloads\tmp_p\newconn.mol                                       

 CRYSTAL CALCULATION
 (INPUT ACCORDING TO THE INTERNATIONAL TABLES FOR X-RAY CRYSTALLOGRAPHY)
 CRYSTAL FAMILY                       :  TETRAGONAL  
 CRYSTAL CLASS  (GROTH - 1921)        :  TETRAGONAL DISPHENOIDAL              

 SPACE GROUP (NONCENTROSYMMETRIC)     :  I -4            

 LATTICE PARAMETERS  (ANGSTROMS AND DEGREES) - CONVENTIONAL CELL
        A           B           C        ALPHA        BETA       GAMMA
    10.79930    10.79930    14.35868    90.00000    90.00000    90.00000


 NUMBER OF IRREDUCIBLE ATOMS IN THE CONVENTIONAL CELL:   17

 INPUT COORDINATES

 ATOM AT. N.              COORDINATES
   1   1     8.698000000000E-02  7.064000000000E-01  3.553600000000E-01
   2   1     3.821200000000E-01  4.368500000000E-01  3.945800000000E-01
   3   6     2.699800000000E-01  7.776900000000E-01  3.851100000000E-01
   4   6     2.401000000000E-01 -9.059000000000E-02  3.699800000000E-01
   5   6     1.829900000000E-01  6.821700000000E-01  3.696300000000E-01
   6   6     3.467700000000E-01  5.314800000000E-01  3.914000000000E-01
   7   6     3.920700000000E-01  7.385300000000E-01  4.038700000000E-01
   8   6     7.763400000000E-01  4.413100000000E-01  3.710400000000E-01
   9   7     3.054800000000E-01 -1.745000000000E-02  3.098100000000E-01
  10   7     2.445000000000E-01  9.414000000000E-02  3.062900000000E-01
  11   7     1.428500000000E-01 -2.451000000000E-02  4.047900000000E-01
  12   7     1.480800000000E-01  9.070000000000E-02  3.626300000000E-01
  13   7     4.280800000000E-01  6.218900000000E-01  4.085800000000E-01
  14  30     0.000000000000E+00  5.000000000000E-01  7.500000000000E-01
  15  30     0.000000000000E+00  0.000000000000E+00  5.000000000000E-01
  16  35     5.245800000000E-01  8.510600000000E-01  4.189900000000E-01
  17  35     1.304100000000E-01  4.125300000000E-01  3.482500000000E-01

 *******************************************************************************

 << INFORMATION >>: FROM NOW ON, ALL COORDINATES REFER TO THE PRIMITIVE CELL

 *******************************************************************************

 LATTICE PARAMETERS  (ANGSTROMS AND DEGREES) - PRIMITIVE CELL
       A          B          C        ALPHA      BETA     GAMMA        VOLUME
   10.48119   10.48119   10.48119   117.98167 117.98167  93.53292    837.289790

 COORDINATES OF THE EQUIVALENT ATOMS (FRACTIONAL UNITS)

 N. ATOM EQUIV AT. N.          X                  Y                  Z

   1   1   1    1 H     6.17600000000E-02  4.42340000000E-01 -2.06620000000E-01
   2   1   2    1 H    -3.51040000000E-01  2.68380000000E-01  2.06620000000E-01
   3   1   3    1 H    -4.42340000000E-01  3.51040000000E-01 -3.80580000000E-01
   4   1   4    1 H    -2.68380000000E-01 -6.17600000000E-02  3.80580000000E-01

   5   2   1    1 H    -1.68570000000E-01 -2.23300000000E-01 -1.81030000000E-01
   6   2   2    1 H    -4.22700000000E-02  1.24600000000E-02  1.81030000000E-01
   7   2   3    1 H     2.23300000000E-01  4.22700000000E-02  5.47300000000E-02
   8   2   4    1 H    -1.24600000000E-02  1.68570000000E-01 -5.47300000000E-02

   9   3   1    6 C     1.62800000000E-01 -3.44910000000E-01  4.76700000000E-02
  10   3   2    6 C    -3.92580000000E-01  1.15130000000E-01 -4.76700000000E-02
  11   3   3    6 C     3.44910000000E-01  3.92580000000E-01 -4.92290000000E-01
  12   3   4    6 C    -1.15130000000E-01 -1.62800000000E-01  4.92290000000E-01

  13   4   1    6 C     2.79390000000E-01 -3.89920000000E-01  1.49510000000E-01
  14   4   2    6 C     4.60570000000E-01  1.29880000000E-01 -1.49510000000E-01
  15   4   3    6 C     3.89920000000E-01 -4.60570000000E-01 -3.30690000000E-01
  16   4   4    6 C    -1.29880000000E-01 -2.79390000000E-01  3.30690000000E-01

  17   5   1    6 C     5.18000000000E-02 -4.47380000000E-01 -1.34840000000E-01
  18   5   2    6 C    -3.12540000000E-01  1.86640000000E-01  1.34840000000E-01
  19   5   3    6 C     4.47380000000E-01  3.12540000000E-01  4.99180000000E-01
  20   5   4    6 C    -1.86640000000E-01 -5.18000000000E-02 -4.99180000000E-01

  21   6   1    6 C    -7.71200000000E-02 -2.61830000000E-01 -1.21750000000E-01
  22   6   2    6 C    -1.40080000000E-01  4.46300000000E-02  1.21750000000E-01
  23   6   3    6 C     2.61830000000E-01  1.40080000000E-01  1.84710000000E-01
  24   6   4    6 C    -4.46300000000E-02  7.71200000000E-02 -1.84710000000E-01

  25   7   1    6 C     1.42400000000E-01 -2.04060000000E-01  1.30600000000E-01
  26   7   2    6 C    -3.34660000000E-01  1.18000000000E-02 -1.30600000000E-01
  27   7   3    6 C     2.04060000000E-01  3.34660000000E-01  3.46460000000E-01
  28   7   4    6 C    -1.18000000000E-02 -1.42400000000E-01 -3.46460000000E-01

  29   8   1    6 C    -1.87650000000E-01  1.47380000000E-01  2.17650000000E-01
  30   8   2    6 C    -7.02700000000E-02 -4.05300000000E-01 -2.17650000000E-01
  31   8   3    6 C    -1.47380000000E-01  7.02700000000E-02 -3.35030000000E-01
  32   8   4    6 C     4.05300000000E-01  1.87650000000E-01  3.35030000000E-01

  33   9   1    7 N     2.92360000000E-01 -3.84710000000E-01  2.88030000000E-01
  34   9   2    7 N     3.27260000000E-01  4.33000000000E-03 -2.88030000000E-01
  35   9   3    7 N     3.84710000000E-01 -3.27260000000E-01 -3.22930000000E-01
  36   9   4    7 N    -4.33000000000E-03 -2.92360000000E-01  3.22930000000E-01

  37  10   1    7 N     4.00430000000E-01 -4.49210000000E-01  3.38640000000E-01
  38  10   2    7 N     2.12150000000E-01  6.17900000000E-02 -3.38640000000E-01
  39  10   3    7 N     4.49210000000E-01 -2.12150000000E-01 -1.50360000000E-01
  40  10   4    7 N    -6.17900000000E-02 -4.00430000000E-01  1.50360000000E-01

  41  11   1    7 N     3.80280000000E-01 -4.52360000000E-01  1.18340000000E-01
  42  11   2    7 N     4.29300000000E-01  2.61940000000E-01 -1.18340000000E-01
  43  11   3    7 N     4.52360000000E-01 -4.29300000000E-01 -1.67360000000E-01
  44  11   4    7 N    -2.61940000000E-01 -3.80280000000E-01  1.67360000000E-01

  45  12   1    7 N     4.53330000000E-01 -4.89290000000E-01  2.38780000000E-01
  46  12   2    7 N     2.71930000000E-01  2.14550000000E-01 -2.38780000000E-01
  47  12   3    7 N     4.89290000000E-01 -2.71930000000E-01 -5.73800000000E-02
  48  12   4    7 N    -2.14550000000E-01 -4.53330000000E-01  5.73800000000E-02

  49  13   1    7 N     3.04700000000E-02 -1.63340000000E-01  4.99700000000E-02
  50  13   2    7 N    -2.13310000000E-01 -1.95000000000E-02 -4.99700000000E-02
  51  13   3    7 N     1.63340000000E-01  2.13310000000E-01  1.93810000000E-01
  52  13   4    7 N     1.95000000000E-02 -3.04700000000E-02 -1.93810000000E-01

  53  14   1   30 ZN    2.50000000000E-01 -2.50000000000E-01 -5.00000000000E-01

  54  15   1   30 ZN   -5.00000000000E-01 -5.00000000000E-01  0.00000000000E+00

  55  16   1   35 BR    2.70050000000E-01 -5.64300000000E-02  3.75640000000E-01
  56  16   2   35 BR   -4.32070000000E-01 -1.05590000000E-01 -3.75640000000E-01
  57  16   3   35 BR    5.64300000000E-02  4.32070000000E-01  3.26480000000E-01
  58  16   4   35 BR    1.05590000000E-01 -2.70050000000E-01 -3.26480000000E-01

  59  17   1   35 BR   -2.39220000000E-01  4.78660000000E-01 -4.57060000000E-01
  60  17   2   35 BR   -6.42800000000E-02  2.17840000000E-01  4.57060000000E-01
  61  17   3   35 BR   -4.78660000000E-01  6.42800000000E-02  2.82120000000E-01
  62  17   4   35 BR   -2.17840000000E-01  2.39220000000E-01 -2.82120000000E-01

 NUMBER OF SYMMETRY OPERATORS         :    4
 *******************************************************************************
 * GEOMETRY EDITING - INPUT COORDINATES ARE GIVEN IN ANGSTROM         
 *******************************************************************************

 GEOMETRY NOW FULLY CONSISTENT WITH THE GROUP

 GCALCO - MAX INDICES DIRECT LATTICE VECTOR    14    14    16
 NO.OF VECTORS CREATED 6999 STARS  480 RMAX   211.28681 BOHR

 GEOMETRY FOR WAVE FUNCTION - DIMENSIONALITY OF THE SYSTEM    3
 (NON PERIODIC DIRECTION: LATTICE PARAMETER FORMALLY SET TO 500)
 *******************************************************************************
 LATTICE PARAMETERS (ANGSTROMS AND DEGREES) - BOHR = 0.5291772083 ANGSTROM
 PRIMITIVE CELL - CENTRING CODE 6/0 VOLUME=   837.289790 - DENSITY  2.648 g/cm^3
         A              B              C           ALPHA      BETA       GAMMA 
    10.48119162    10.48119162    10.48119162   117.981667 117.981667  93.532916
 *******************************************************************************
 ATOMS IN THE ASYMMETRIC UNIT   17 - ATOMS IN THE UNIT CELL:   62
     ATOM                 X/A                 Y/B                 Z/C    
 *******************************************************************************
      1 T   1 H     6.176000000000E-02  4.423400000000E-01 -2.066200000000E-01
      2 F   1 H    -3.510400000000E-01  2.683800000000E-01  2.066200000000E-01
      3 F   1 H    -4.423400000000E-01  3.510400000000E-01 -3.805800000000E-01
      4 F   1 H    -2.683800000000E-01 -6.176000000000E-02  3.805800000000E-01
      5 T   1 H    -1.685700000000E-01 -2.233000000000E-01 -1.810300000000E-01
      6 F   1 H    -4.227000000000E-02  1.246000000000E-02  1.810300000000E-01
      7 F   1 H     2.233000000000E-01  4.227000000000E-02  5.473000000000E-02
      8 F   1 H    -1.246000000000E-02  1.685700000000E-01 -5.473000000000E-02
      9 T   6 C     1.628000000000E-01 -3.449100000000E-01  4.767000000000E-02
     10 F   6 C    -3.925800000000E-01  1.151300000000E-01 -4.767000000000E-02
     11 F   6 C     3.449100000000E-01  3.925800000000E-01 -4.922900000000E-01
     12 F   6 C    -1.151300000000E-01 -1.628000000000E-01  4.922900000000E-01
     13 T   6 C     2.793900000000E-01 -3.899200000000E-01  1.495100000000E-01
     14 F   6 C     4.605700000000E-01  1.298800000000E-01 -1.495100000000E-01
     15 F   6 C     3.899200000000E-01 -4.605700000000E-01 -3.306900000000E-01
     16 F   6 C    -1.298800000000E-01 -2.793900000000E-01  3.306900000000E-01
     17 T   6 C     5.180000000000E-02 -4.473800000000E-01 -1.348400000000E-01
     18 F   6 C    -3.125400000000E-01  1.866400000000E-01  1.348400000000E-01
     19 F   6 C     4.473800000000E-01  3.125400000000E-01  4.991800000000E-01
     20 F   6 C    -1.866400000000E-01 -5.180000000000E-02 -4.991800000000E-01
     21 T   6 C    -7.712000000000E-02 -2.618300000000E-01 -1.217500000000E-01
     22 F   6 C    -1.400800000000E-01  4.463000000000E-02  1.217500000000E-01
     23 F   6 C     2.618300000000E-01  1.400800000000E-01  1.847100000000E-01
     24 F   6 C    -4.463000000000E-02  7.712000000000E-02 -1.847100000000E-01
     25 T   6 C     1.424000000000E-01 -2.040600000000E-01  1.306000000000E-01
     26 F   6 C    -3.346600000000E-01  1.180000000000E-02 -1.306000000000E-01
     27 F   6 C     2.040600000000E-01  3.346600000000E-01  3.464600000000E-01
     28 F   6 C    -1.180000000000E-02 -1.424000000000E-01 -3.464600000000E-01
     29 T   6 C    -1.876500000000E-01  1.473800000000E-01  2.176500000000E-01
     30 F   6 C    -7.027000000000E-02 -4.053000000000E-01 -2.176500000000E-01
     31 F   6 C    -1.473800000000E-01  7.027000000000E-02 -3.350300000000E-01
     32 F   6 C     4.053000000000E-01  1.876500000000E-01  3.350300000000E-01
     33 T   7 N     2.923600000000E-01 -3.847100000000E-01  2.880300000000E-01
     34 F   7 N     3.272600000000E-01  4.330000000000E-03 -2.880300000000E-01
     35 F   7 N     3.847100000000E-01 -3.272600000000E-01 -3.229300000000E-01
     36 F   7 N    -4.330000000000E-03 -2.923600000000E-01  3.229300000000E-01
     37 T   7 N     4.004300000000E-01 -4.492100000000E-01  3.386400000000E-01
     38 F   7 N     2.121500000000E-01  6.179000000000E-02 -3.386400000000E-01
     39 F   7 N     4.492100000000E-01 -2.121500000000E-01 -1.503600000000E-01
     40 F   7 N    -6.179000000000E-02 -4.004300000000E-01  1.503600000000E-01
     41 T   7 N     3.802800000000E-01 -4.523600000000E-01  1.183400000000E-01
     42 F   7 N     4.293000000000E-01  2.619400000000E-01 -1.183400000000E-01
     43 F   7 N     4.523600000000E-01 -4.293000000000E-01 -1.673600000000E-01
     44 F   7 N    -2.619400000000E-01 -3.802800000000E-01  1.673600000000E-01
     45 T   7 N     4.533300000000E-01 -4.892900000000E-01  2.387800000000E-01
     46 F   7 N     2.719300000000E-01  2.145500000000E-01 -2.387800000000E-01
     47 F   7 N     4.892900000000E-01 -2.719300000000E-01 -5.738000000000E-02
     48 F   7 N    -2.145500000000E-01 -4.533300000000E-01  5.738000000000E-02
     49 T   7 N     3.047000000000E-02 -1.633400000000E-01  4.997000000000E-02
     50 F   7 N    -2.133100000000E-01 -1.950000000000E-02 -4.997000000000E-02
     51 F   7 N     1.633400000000E-01  2.133100000000E-01  1.938100000000E-01
     52 F   7 N     1.950000000000E-02 -3.047000000000E-02 -1.938100000000E-01
     53 T  30 ZN    2.500000000000E-01 -2.500000000000E-01 -5.000000000000E-01
     54 T  30 ZN   -5.000000000000E-01 -5.000000000000E-01  0.000000000000E+00
     55 T  35 BR    2.700500000000E-01 -5.643000000000E-02  3.756400000000E-01
     56 F  35 BR   -4.320700000000E-01 -1.055900000000E-01 -3.756400000000E-01
     57 F  35 BR    5.643000000000E-02  4.320700000000E-01  3.264800000000E-01
     58 F  35 BR    1.055900000000E-01 -2.700500000000E-01 -3.264800000000E-01
     59 T  35 BR   -2.392200000000E-01  4.786600000000E-01 -4.570600000000E-01
     60 F  35 BR   -6.428000000000E-02  2.178400000000E-01  4.570600000000E-01
     61 F  35 BR   -4.786600000000E-01  6.428000000000E-02  2.821200000000E-01
     62 F  35 BR   -2.178400000000E-01  2.392200000000E-01 -2.821200000000E-01

 TRANSFORMATION MATRIX PRIMITIVE-CRYSTALLOGRAPHIC CELL
  0.0000  1.0000  1.0000  1.0000  0.0000  1.0000  1.0000  1.0000  0.0000

 *******************************************************************************
 CRYSTALLOGRAPHIC CELL (VOLUME=       1674.57957974)
         A              B              C           ALPHA      BETA       GAMMA 
    10.79930002    10.79930002    14.35868202    90.000000  90.000000  90.000000

 COORDINATES IN THE CRYSTALLOGRAPHIC CELL
     ATOM                 X/A                 Y/B                 Z/C    
 *******************************************************************************
      1 T   1 H    -4.130200000000E-01  2.064000000000E-01 -1.446400000000E-01
      2 F   1 H     4.130200000000E-01 -2.064000000000E-01 -1.446400000000E-01
      3 F   1 H     2.064000000000E-01  4.130200000000E-01  1.446400000000E-01
      4 F   1 H    -2.064000000000E-01 -4.130200000000E-01  1.446400000000E-01
      5 T   1 H    -1.178800000000E-01 -6.315000000000E-02 -1.054200000000E-01
      6 F   1 H     1.178800000000E-01  6.315000000000E-02 -1.054200000000E-01
      7 F   1 H    -6.315000000000E-02  1.178800000000E-01  1.054200000000E-01
      8 F   1 H     6.315000000000E-02 -1.178800000000E-01  1.054200000000E-01
      9 T   6 C    -2.300200000000E-01  2.776900000000E-01 -1.148900000000E-01
     10 F   6 C     2.300200000000E-01 -2.776900000000E-01 -1.148900000000E-01
     11 F   6 C     2.776900000000E-01  2.300200000000E-01  1.148900000000E-01
     12 F   6 C    -2.776900000000E-01 -2.300200000000E-01  1.148900000000E-01
     13 T   6 C    -2.599000000000E-01  4.094100000000E-01 -1.300200000000E-01
     14 F   6 C     2.599000000000E-01 -4.094100000000E-01 -1.300200000000E-01
     15 F   6 C     4.094100000000E-01  2.599000000000E-01  1.300200000000E-01
     16 F   6 C    -4.094100000000E-01 -2.599000000000E-01  1.300200000000E-01
     17 T   6 C    -3.170100000000E-01  1.821700000000E-01 -1.303700000000E-01
     18 F   6 C     3.170100000000E-01 -1.821700000000E-01 -1.303700000000E-01
     19 F   6 C     1.821700000000E-01  3.170100000000E-01  1.303700000000E-01
     20 F   6 C    -1.821700000000E-01 -3.170100000000E-01  1.303700000000E-01
     21 T   6 C    -1.532300000000E-01  3.148000000000E-02 -1.086000000000E-01
     22 F   6 C     1.532300000000E-01 -3.148000000000E-02 -1.086000000000E-01
     23 F   6 C     3.148000000000E-02  1.532300000000E-01  1.086000000000E-01
     24 F   6 C    -3.148000000000E-02 -1.532300000000E-01  1.086000000000E-01
     25 T   6 C    -1.079300000000E-01  2.385300000000E-01 -9.613000000000E-02
     26 F   6 C     1.079300000000E-01 -2.385300000000E-01 -9.613000000000E-02
     27 F   6 C     2.385300000000E-01  1.079300000000E-01  9.613000000000E-02
     28 F   6 C    -2.385300000000E-01 -1.079300000000E-01  9.613000000000E-02
     29 T   6 C     2.763400000000E-01 -5.869000000000E-02 -1.289600000000E-01
     30 F   6 C    -2.763400000000E-01  5.869000000000E-02 -1.289600000000E-01
     31 F   6 C    -5.869000000000E-02 -2.763400000000E-01  1.289600000000E-01
     32 F   6 C     5.869000000000E-02  2.763400000000E-01  1.289600000000E-01
     33 T   7 N     3.054800000000E-01 -1.745000000000E-02  3.098100000000E-01
     34 F   7 N    -3.054800000000E-01  1.745000000000E-02  3.098100000000E-01
     35 F   7 N    -1.745000000000E-02 -3.054800000000E-01 -3.098100000000E-01
     36 F   7 N     1.745000000000E-02  3.054800000000E-01 -3.098100000000E-01
     37 T   7 N     2.445000000000E-01  9.414000000000E-02  3.062900000000E-01
     38 F   7 N    -2.445000000000E-01 -9.414000000000E-02  3.062900000000E-01
     39 F   7 N     9.414000000000E-02 -2.445000000000E-01 -3.062900000000E-01
     40 F   7 N    -9.414000000000E-02  2.445000000000E-01 -3.062900000000E-01
     41 T   7 N     1.428500000000E-01 -2.451000000000E-02  4.047900000000E-01
     42 F   7 N    -1.428500000000E-01  2.451000000000E-02  4.047900000000E-01
     43 F   7 N    -2.451000000000E-02 -1.428500000000E-01 -4.047900000000E-01
     44 F   7 N     2.451000000000E-02  1.428500000000E-01 -4.047900000000E-01
     45 T   7 N     1.480800000000E-01  9.070000000000E-02  3.626300000000E-01
     46 F   7 N    -1.480800000000E-01 -9.070000000000E-02  3.626300000000E-01
     47 F   7 N     9.070000000000E-02 -1.480800000000E-01 -3.626300000000E-01
     48 F   7 N    -9.070000000000E-02  1.480800000000E-01 -3.626300000000E-01
     49 T   7 N    -7.192000000000E-02  1.218900000000E-01 -9.142000000000E-02
     50 F   7 N     7.192000000000E-02 -1.218900000000E-01 -9.142000000000E-02
     51 F   7 N     1.218900000000E-01  7.192000000000E-02  9.142000000000E-02
     52 F   7 N    -1.218900000000E-01 -7.192000000000E-02  9.142000000000E-02
     53 T  30 ZN   -5.000000000000E-01 -8.704337798784E-17  2.500000000000E-01
     54 T  30 ZN    0.000000000000E+00  0.000000000000E+00 -5.000000000000E-01
     55 T  35 BR    2.458000000000E-02  3.510600000000E-01 -8.101000000000E-02
     56 F  35 BR   -2.458000000000E-02 -3.510600000000E-01 -8.101000000000E-02
     57 F  35 BR    3.510600000000E-01 -2.458000000000E-02  8.101000000000E-02
     58 F  35 BR   -3.510600000000E-01  2.458000000000E-02  8.101000000000E-02
     59 T  35 BR   -3.695900000000E-01 -8.747000000000E-02 -1.517500000000E-01
     60 F  35 BR    3.695900000000E-01  8.747000000000E-02 -1.517500000000E-01
     61 F  35 BR   -8.747000000000E-02  3.695900000000E-01  1.517500000000E-01
     62 F  35 BR    8.747000000000E-02 -3.695900000000E-01  1.517500000000E-01

 T = ATOM BELONGING TO THE ASYMMETRIC UNIT

 ****    4 SYMMOPS - TRANSLATORS IN FRACTIONAL UNITS
 **** MATRICES AND TRANSLATORS IN THE CRYSTALLOGRAPHIC REFERENCE FRAME
   V INV                    ROTATION MATRICES                   TRANSLATORS
   1   1  1.00  0.00  0.00  0.00  1.00  0.00  0.00  0.00  1.00  0.00  0.00  0.00
   2   2 -0.00  1.00 -1.00  1.00 -0.00 -1.00  0.00  0.00 -1.00  0.00  0.00  0.00
   3   4  0.00 -1.00 -0.00  0.00 -1.00  1.00  1.00 -1.00  0.00  0.00  0.00  0.00
   4   3 -1.00  0.00  1.00 -1.00  0.00 -0.00 -1.00  1.00  0.00  0.00  0.00  0.00

 DIRECT LATTICE VECTORS CARTESIAN COMPONENTS (ANGSTROM)
          X                    Y                    Z
  -0.539965000755E+01   0.539965000755E+01   0.717934101205E+01
   0.539965000755E+01  -0.539965000755E+01   0.717934101205E+01
   0.539965000755E+01   0.539965000755E+01  -0.717934101205E+01


 CARTESIAN COORDINATES - PRIMITIVE CELL
 *******************************************************************************
 *      ATOM          X(ANGSTROM)         Y(ANGSTROM)         Z(ANGSTROM)
 *******************************************************************************
    1     1 H    -4.460326892237E+00  2.228975523117E+00 -2.076839767966E+00
    2     1 H     4.460326892237E+00 -2.228975523117E+00 -2.076839767966E+00
    3     1 H     2.228975523117E+00  4.460326892237E+00  2.076839767966E+00
    4     1 H    -2.228975523117E+00 -4.460326892237E+00  2.076839767966E+00
    5     1 H    -1.273021485780E+00 -6.819757959536E-01 -1.513692258981E+00
    6     1 H     1.273021485780E+00  6.819757959536E-01 -1.513692258981E+00
    7     1 H    -6.819757959536E-01  1.273021485780E+00  1.513692258981E+00
    8     1 H     6.819757959536E-01 -1.273021485780E+00  1.513692258981E+00
    9     6 C    -2.484054989473E+00  2.998857621193E+00 -1.649668977749E+00
   10     6 C     2.484054989473E+00 -2.998857621193E+00 -1.649668977749E+00
   11     6 C     2.998857621193E+00  2.484054989473E+00  1.649668977749E+00
   12     6 C    -2.998857621193E+00 -2.484054989473E+00  1.649668977749E+00
   13     6 C    -2.806738073924E+00  4.421341419182E+00 -1.866915836773E+00
   14     6 C     2.806738073924E+00 -4.421341419182E+00 -1.866915836773E+00
   15     6 C     4.421341419182E+00  2.806738073924E+00  1.866915836773E+00
   16     6 C    -4.421341419182E+00 -2.806738073924E+00  1.866915836773E+00
   17     6 C    -3.423486097787E+00  1.967308483751E+00 -1.871941375482E+00
   18     6 C     3.423486097787E+00 -1.967308483751E+00 -1.871941375482E+00
   19     6 C     1.967308483751E+00  3.423486097787E+00  1.871941375482E+00
   20     6 C    -1.967308483751E+00 -3.423486097787E+00  1.871941375482E+00
   21     6 C    -1.654776741314E+00  3.399619644753E-01 -1.559352867817E+00
   22     6 C     1.654776741314E+00 -3.399619644753E-01 -1.559352867817E+00
   23     6 C     3.399619644753E-01  1.654776741314E+00  1.559352867817E+00
   24     6 C    -3.399619644753E-01 -1.654776741314E+00  1.559352867817E+00
   25     6 C    -1.165568450630E+00  2.575957032602E+00 -1.380300102977E+00
   26     6 C     1.165568450630E+00 -2.575957032602E+00 -1.380300102977E+00
   27     6 C     2.575957032602E+00  1.165568450630E+00  1.380300102977E+00
   28     6 C    -2.575957032602E+00 -1.165568450630E+00  1.380300102977E+00
   29     6 C     2.984278566173E+00 -6.338109178862E-01 -1.851695633828E+00
   30     6 C    -2.984278566173E+00  6.338109178862E-01 -1.851695633828E+00
   31     6 C    -6.338109178862E-01 -2.984278566173E+00  1.851695633828E+00
   32     6 C     6.338109178862E-01  2.984278566173E+00  1.851695633828E+00
   33     7 N     3.298970168613E+00 -1.884477852635E-01  4.448463277886E+00
   34     7 N    -3.298970168613E+00  1.884477852635E-01  4.448463277886E+00
   35     7 N    -1.884477852635E-01 -3.298970168613E+00 -4.448463277886E+00
   36     7 N     1.884477852635E-01  3.298970168613E+00 -4.448463277886E+00
   37     7 N     2.640428853692E+00  1.016646103422E+00  4.397920717162E+00
   38     7 N    -2.640428853692E+00 -1.016646103422E+00  4.397920717162E+00
   39     7 N     1.016646103422E+00 -2.640428853692E+00 -4.397920717162E+00
   40     7 N    -1.016646103422E+00  2.640428853692E+00 -4.397920717162E+00
   41     7 N     1.542680007157E+00 -2.646908433701E-01  5.812250896535E+00
   42     7 N    -1.542680007157E+00  2.646908433701E-01  5.812250896535E+00
   43     7 N    -2.646908433701E-01 -1.542680007157E+00 -5.812250896535E+00
   44     7 N     2.646908433701E-01  1.542680007157E+00 -5.812250896535E+00
   45     7 N     1.599160346236E+00  9.794965113696E-01  5.206888862399E+00
   46     7 N    -1.599160346236E+00 -9.794965113696E-01  5.206888862399E+00
   47     7 N     9.794965113696E-01 -1.599160346236E+00 -5.206888862399E+00
   48     7 N    -9.794965113696E-01  1.599160346236E+00 -5.206888862399E+00
   49     7 N    -7.766856570860E-01  1.316326678841E+00 -1.312670710643E+00
   50     7 N     7.766856570860E-01 -1.316326678841E+00 -1.312670710643E+00
   51     7 N     1.316326678841E+00  7.766856570860E-01  1.312670710643E+00
   52     7 N    -1.316326678841E+00 -7.766856570860E-01  1.312670710643E+00
   53    30 ZN    5.399650007550E+00 -9.400075532184E-16 -1.076901151808E+01
   54    30 ZN    0.000000000000E+00  0.000000000000E+00  7.179341012050E+00
   55    35 BR    2.654467943712E-01  3.791202263301E+00 -1.163196830772E+00
   56    35 BR   -2.654467943712E-01 -3.791202263301E+00 -1.163196830772E+00
   57    35 BR    3.791202263301E+00 -2.654467943712E-01  1.163196830772E+00
   58    35 BR   -3.791202263301E+00  2.654467943712E-01  1.163196830772E+00
   59    35 BR   -3.991313292581E+00 -9.446147723208E-01 -2.178929997157E+00
   60    35 BR    3.991313292581E+00  9.446147723208E-01 -2.178929997157E+00
   61    35 BR   -9.446147723208E-01  3.991313292581E+00  2.178929997157E+00
   62    35 BR    9.446147723208E-01 -3.991313292581E+00  2.178929997157E+00

 *******************************************************************************
 STARTING BASIS SET HANDLING 
 *******************************************************************************

 Loading internal basis set: POB-DZVPP           

 Please cite in your publication:
 Peintinger, M. F., Oliveira, D. V. and Bredow, T. (2013), Generally applicable 
 solid-state Gaussian basis sets, in preparation                                
                                                                                
                    

 *******************************************************************************
 LOCAL ATOMIC FUNCTIONS BASIS SET
 *******************************************************************************
   ATOM   X(AU)   Y(AU)   Z(AU)  N. TYPE  EXPONENT  S COEF   P COEF   D/F/G COEF
 *******************************************************************************
   1 H   -8.429   4.212  -3.925
                                  1 S  
                                         2.263E+01 1.441E-02 0.000E+00 0.000E+00
                                         3.236E+00 1.072E-01 0.000E+00 0.000E+00
                                         7.304E-01 3.846E-01 0.000E+00 0.000E+00
                                  2 S  
                                         1.417E-01 1.000E+00 0.000E+00 0.000E+00
                           3-     5 P  
                                         3.944E-01 0.000E+00 1.000E+00 0.000E+00
                           6-     8 P  
                                         1.006E-01 0.000E+00 1.000E+00 0.000E+00
   2 H    8.429  -4.212  -3.925
   3 H    4.212   8.429   3.925
   4 H   -4.212  -8.429   3.925
   5 H   -2.406  -1.289  -2.860
   6 H    2.406   1.289  -2.860
   7 H   -1.289   2.406   2.860
   8 H    1.289  -2.406   2.860
   9 C   -4.694   5.667  -3.117
                                 65 S  
                                         1.238E+03 5.457E-03 0.000E+00 0.000E+00
                                         1.863E+02 4.064E-02 0.000E+00 0.000E+00
                                         4.225E+01 1.803E-01 0.000E+00 0.000E+00
                                         1.168E+01 4.632E-01 0.000E+00 0.000E+00
                                         3.593E+00 4.409E-01 0.000E+00 0.000E+00
                                 66 S  
                                         5.281E+00 1.000E+00 0.000E+00 0.000E+00
                                 67 S  
                                         4.447E-01 1.000E+00 0.000E+00 0.000E+00
                          68-    70 P  
                                         9.468E+00 0.000E+00 3.839E-02 0.000E+00
                                         2.010E+00 0.000E+00 2.112E-01 0.000E+00
                                         5.477E-01 0.000E+00 5.133E-01 0.000E+00
                          71-    73 P  
                                         1.604E-01 0.000E+00 1.000E+00 0.000E+00
                          74-    78 D  
                                         6.070E-01 0.000E+00 0.000E+00 1.000E+00
                          79-    83 D  
                                         2.939E-01 0.000E+00 0.000E+00 1.000E+00
  10 C    4.694  -5.667  -3.117
  11 C    5.667   4.694   3.117
  12 C   -5.667  -4.694   3.117
  13 C   -5.304   8.355  -3.528
  14 C    5.304  -8.355  -3.528
  15 C    8.355   5.304   3.528
  16 C   -8.355  -5.304   3.528
  17 C   -6.469   3.718  -3.537
  18 C    6.469  -3.718  -3.537
  19 C    3.718   6.469   3.537
  20 C   -3.718  -6.469   3.537
  21 C   -3.127   0.642  -2.947
  22 C    3.127  -0.642  -2.947
  23 C    0.642   3.127   2.947
  24 C   -0.642  -3.127   2.947
  25 C   -2.203   4.868  -2.608
  26 C    2.203  -4.868  -2.608
  27 C    4.868   2.203   2.608
  28 C   -4.868  -2.203   2.608
  29 C    5.639  -1.198  -3.499
  30 C   -5.639   1.198  -3.499
  31 C   -1.198  -5.639   3.499
  32 C    1.198   5.639   3.499
  33 N    6.234  -0.356   8.406
                                521 S  
                                         1.713E+03-5.393E-03 0.000E+00 0.000E+00
                                         2.576E+02-4.022E-02 0.000E+00 0.000E+00
                                         5.846E+01-1.793E-01 0.000E+00 0.000E+00
                                         1.620E+01-4.638E-01 0.000E+00 0.000E+00
                                         5.005E+00-4.417E-01 0.000E+00 0.000E+00
                                522 S  
                                         6.217E-01 1.000E+00 0.000E+00 0.000E+00
                                523 S  
                                         2.921E-01 1.000E+00 0.000E+00 0.000E+00
                         524-   526 P  
                                         1.357E+01 0.000E+00-4.007E-02 0.000E+00
                                         2.926E+00 0.000E+00-2.181E-01 0.000E+00
                                         7.993E-01 0.000E+00-5.129E-01 0.000E+00
                         527-   529 P  
                                         2.244E-01 0.000E+00 1.000E+00 0.000E+00
                         530-   534 D  
                                         3.118E-01 0.000E+00 0.000E+00 1.000E+00
  34 N   -6.234   0.356   8.406
  35 N   -0.356  -6.234  -8.406
  36 N    0.356   6.234  -8.406
  37 N    4.990   1.921   8.311
  38 N   -4.990  -1.921   8.311
  39 N    1.921  -4.990  -8.311
  40 N   -1.921   4.990  -8.311
  41 N    2.915  -0.500  10.984
  42 N   -2.915   0.500  10.984
  43 N   -0.500  -2.915 -10.984
  44 N    0.500   2.915 -10.984
  45 N    3.022   1.851   9.840
  46 N   -3.022  -1.851   9.840
  47 N    1.851  -3.022  -9.840
  48 N   -1.851   3.022  -9.840
  49 N   -1.468   2.487  -2.481
  50 N    1.468  -2.487  -2.481
  51 N    2.487   1.468   2.481
  52 N   -2.487  -1.468   2.481
  53 ZN  10.204  -0.000 -20.350
                                801 S  
                                         8.200E+04 1.421E-03 0.000E+00 0.000E+00
                                         1.231E+04 1.089E-02 0.000E+00 0.000E+00
                                         2.801E+03 5.406E-02 0.000E+00 0.000E+00
                                         7.910E+02 1.885E-01 0.000E+00 0.000E+00
                                         2.576E+02 3.835E-01 0.000E+00 0.000E+00
                                         8.881E+01 2.972E-01 0.000E+00 0.000E+00
                                802 S  
                                         1.719E+02-1.105E-01 0.000E+00 0.000E+00
                                         2.030E+01 6.461E-01 0.000E+00 0.000E+00
                                         8.346E+00 4.422E-01 0.000E+00 0.000E+00
                                803 S  
                                         1.485E+01-2.271E-01 0.000E+00 0.000E+00
                                         2.450E+00 7.243E-01 0.000E+00 0.000E+00
                                         9.985E-01 4.484E-01 0.000E+00 0.000E+00
                                804 S  
                                         1.493E+00 1.000E+00 0.000E+00 0.000E+00
                                805 S  
                                         1.830E-01 1.000E+00 0.000E+00 0.000E+00
                         806-   808 P  
                                         1.072E+03 0.000E+00 9.277E-03 0.000E+00
                                         2.527E+02 0.000E+00 6.954E-02 0.000E+00
                                         8.010E+01 0.000E+00 2.716E-01 0.000E+00
                                         2.890E+01 0.000E+00 5.340E-01 0.000E+00
                                         1.077E+01 0.000E+00 3.450E-01 0.000E+00
                         809-   811 P  
                                         5.645E+00 0.000E+00 3.413E-01 0.000E+00
                                         2.168E+00 0.000E+00 5.639E-01 0.000E+00
                                         8.054E-01 0.000E+00 2.368E-01 0.000E+00
                         812-   814 P  
                                         2.721E-01 0.000E+00 1.000E+00 0.000E+00
                         815-   819 D  
                                         5.609E+01 0.000E+00 0.000E+00 2.959E-02
                                         1.575E+01 0.000E+00 0.000E+00 1.587E-01
                                         5.312E+00 0.000E+00 0.000E+00 3.798E-01
                                         1.774E+00 0.000E+00 0.000E+00 4.690E-01
                         820-   824 D  
                                         5.073E-01 0.000E+00 0.000E+00 1.000E+00
                         825-   831 F  
                                         2.814E+00 0.000E+00 0.000E+00 1.000E+00
                         832-   838 F  
                                         1.300E+00 0.000E+00 0.000E+00 1.000E+00
  54 ZN   0.000   0.000  13.567
  55 BR   0.502   7.164  -2.198
                                877 S  
                                         1.133E+05 1.428E-03 0.000E+00 0.000E+00
                                         1.701E+04 1.095E-02 0.000E+00 0.000E+00
                                         3.870E+03 5.442E-02 0.000E+00 0.000E+00
                                         1.093E+03 1.905E-01 0.000E+00 0.000E+00
                                         3.564E+02 3.902E-01 0.000E+00 0.000E+00
                                         1.231E+02 3.081E-01 0.000E+00 0.000E+00
                                878 S  
                                         2.367E+02-1.123E-01 0.000E+00 0.000E+00
                                         2.847E+01 6.478E-01 0.000E+00 0.000E+00
                                         1.188E+01 4.424E-01 0.000E+00 0.000E+00
                                879 S  
                                         2.127E+01-2.264E-01 0.000E+00 0.000E+00
                                         3.613E+00 7.382E-01 0.000E+00 0.000E+00
                                         1.663E+00 4.268E-01 0.000E+00 0.000E+00
                                880 S  
                                         3.641E-01 1.000E+00 0.000E+00 0.000E+00
                                881 S  
                                         1.243E-01 1.000E+00 0.000E+00 0.000E+00
                         882-   884 P  
                                         1.560E+03 0.000E+00 8.717E-03 0.000E+00
                                         3.685E+02 0.000E+00 6.624E-02 0.000E+00
                                         1.172E+02 0.000E+00 2.650E-01 0.000E+00
                                         4.265E+01 0.000E+00 5.384E-01 0.000E+00
                                         1.609E+01 0.000E+00 3.658E-01 0.000E+00
                         885-   887 P  
                                         8.635E+00 0.000E+00 3.425E-01 0.000E+00
                                         3.561E+00 0.000E+00 5.750E-01 0.000E+00
                                         1.529E+00 0.000E+00 2.433E-01 0.000E+00
                         888-   890 P  
                                         6.447E-01 0.000E+00 1.000E+00 0.000E+00
                         891-   893 P  
                                         2.103E-01 0.000E+00 1.000E+00 0.000E+00
                         894-   898 D  
                                         1.049E+02 0.000E+00 0.000E+00 2.265E-02
                                         3.028E+01 0.000E+00 0.000E+00 1.346E-01
                                         1.065E+01 0.000E+00 0.000E+00 3.647E-01
                                         3.870E+00 0.000E+00 0.000E+00 4.904E-01
                         899-   903 D  
                                         1.342E+00 0.000E+00 0.000E+00 1.000E+00
                         904-   908 D  
                                         4.101E-01 0.000E+00 0.000E+00 1.000E+00
                         909-   913 D  
                                         1.985E-01 0.000E+00 0.000E+00 1.000E+00
  56 BR  -0.502  -7.164  -2.198
  57 BR   7.164  -0.502   2.198
  58 BR  -7.164   0.502   2.198
  59 BR  -7.542  -1.785  -4.118
  60 BR   7.542   1.785  -4.118
  61 BR  -1.785   7.542   4.118
  62 BR   1.785  -7.542   4.118

 *******************************************************************************
 FINISHED BASIS SET HANDLING 
 *******************************************************************************

 INFORMATION **** SET_MPP **** PCRYSTAL CALCULATION
 INFORMATION **** READM2 **** NEW DEFAULT: FOCK/KS MATRIX MIXING SET TO 30 %
 INFORMATION **** READM2 **** NEW DEFAULT: FULL DIRECT SCF MODE
 INFORMATION **** READM2 **** NEW DEFAULT: COULOMB BIPOLAR BUFFER SET TO 32 Mb
 INFORMATION **** READM2 **** NEW DEFAULT: EXCHANGE BIPOLAR BUFFER SET TO 32 Mb

 *******************************************************************************
 NEW DEFAULT: DFT INTEGRATION GRID INCREASED TO XLGRID
 NEW DEFAULT: DIIS ACCELERATOR ACTIVE
 USE KEYWORD NODIIS TO TURN IT OFF
 *******************************************************************************

 INFORMATION **** DFTD3_INPUT **** PERFORM DISPERSION CORRECTION DFT-D3(BJ) IN THE BECKE-JOHNSON DAMPING SCHEME

 PLEASE CITE:
 (1) DFT-D3 Reference
  S. Grimme, J. Antony, S. Ehrlich, and H. Krieg, J. Chem. Phys. 132 (2010), 154104
 (2) BJ-Damping Reference
  S. Grimme, S. Ehrlich, and L. Goerigk, J. Comput. Chem. 32 (2011), 1456-1465
 (3) General DFT-D Review
  S. Grimme, A. Hansen, J. G. Brandenburg, and C. Bannwarth,
  Chem. Rev. 116 (2016), 5105-5154

 INFORMATION **** TOLINTEG **** COULOMB AND EXCHANGE SERIES TOLERANCES MODIFIED
 INFORMATION **** BIPOSIZE **** COULOMB BIPOLAR BUFFER SET TO   100000000
 INFORMATION **** MAXCYCLE **** MAX NUMBER OF SCF CYCLES SET TO          50
 *******************************************************************************
 N. OF ATOMS PER CELL        62  COULOMB OVERLAP TOL         (T1) 10**  -12
 NUMBER OF SHELLS           448  COULOMB PENETRATION TOL     (T2) 10**  -12
 NUMBER OF AO              1172  EXCHANGE OVERLAP TOL        (T3) 10**   20
 N. OF ELECTRONS PER CELL   632  EXCHANGE PSEUDO OVP (F(G))  (T4) 10**   20
 CORE ELECTRONS PER CELL    348  EXCHANGE PSEUDO OVP (P(G))  (T5) 10**   20
 N. OF SYMMETRY OPERATORS     4  POLE ORDER IN MONO ZONE                  4
 *******************************************************************************
 TYPE OF CALCULATION :  RESTRICTED CLOSED SHELL
 KOHN-SHAM HAMILTONIAN

 (EXCHANGE)[CORRELATION] FUNCTIONAL:(PERDEW-BURKE-ERNZERHOF)[PERDEW-BURKE-ERNZERHOF]


 CAPPA:IS1  3;IS2  3;IS3  3; K PTS MONK NET   6; SYMMOPS:K SPACE   8;G SPACE   4

 *******************************************************************************
 MAX NUMBER OF SCF CYCLES      50  CONVERGENCE ON DELTAP        10**-16
 WEIGHT OF F(I) IN F(I+1)      30% CONVERGENCE ON ENERGY        10**- 6
 SHRINK. FACT.(MONKH.)    3  3  3  NUMBER OF K POINTS IN THE IBZ      6
 SHRINKING FACTOR(GILAT NET)    3  NUMBER OF K POINTS(GILAT NET)      6
 *******************************************************************************
 *** K POINTS COORDINATES (OBLIQUE COORDINATES IN UNITS OF IS =  3)
   1-R(  0  0  0)   2-C(  1  0  0)   3-C(  1  1  0)   4-C(  2  1  0)
   5-C(  2  1  1)   6-C(  2  2  1)

 DIRECT LATTICE VECTORS COMPON. (A.U.)     RECIP. LATTICE VECTORS COMPON. (A.U.) 
        X            Y            Z              X            Y            Z
  -10.2038597   10.2038597   13.5669883      0.0000000    0.3078828    0.2315615
   10.2038597  -10.2038597   13.5669883      0.3078828    0.0000000    0.2315615
   10.2038597   10.2038597  -13.5669883      0.3078828    0.3078828    0.0000000

 DISK SPACE FOR EIGENVECTORS (FTN 10)    15109424 REALS

 SYMMETRY ADAPTION OF THE BLOCH FUNCTIONS ENABLED
 TTTTTTTTTTTTTTTTTTTTTTTTTTTTTT gordsh1     TELAPSE        7.62 TCPU        0.06

 MATRIX SIZE: P(G) 1948284, F(G)  974920, P(G) IRR  246157, F(G) IRR  246157
 MAX G-VECTOR INDEX FOR 1- AND 2-ELECTRON INTEGRALS  63

 TTTTTTTTTTTTTTTTTTTTTTTTTTTTTT INPUT       TELAPSE        7.68 TCPU        0.12

 NEIGHBORS OF THE NON-EQUIVALENT ATOMS

 N = NUMBER OF NEIGHBORS AT DISTANCE R
    ATOM  N     R/ANG      R/AU   NEIGHBORS (ATOM LABELS AND CELL INDICES)
   1 H    1     1.0888     2.0575   17 C    0 0 0
   1 H    1     2.1635     4.0885    9 C    0 0 0
   1 H    1     2.1849     4.1289   30 C    0 0 0
   1 H    1     2.6780     5.0606   60 BR   0-1-1
   1 H    1     2.7541     5.2044   13 C    0 0 0
   1 H    1     3.0366     5.7383   62 BR   0-1 0

   5 H    1     1.0919     2.0633   21 C    0 0 0
   5 H    1     2.0688     3.9095   49 N    0 0 0
   5 H    1     2.1550     4.0724   50 N    0 0 0
   5 H    1     2.1849     4.1289   30 C    0 0 0
   5 H    1     2.8108     5.3117   59 BR   0 0 0
   5 H    1     2.8283     5.3447   52 N    0 0 0

   9 C    1     1.4106     2.6657   25 C    0 0 0
   9 C    1     1.4128     2.6698   17 C    0 0 0
   9 C    1     1.4747     2.7868   13 C    0 0 0
   9 C    1     2.1635     4.0885    1 H    0 0 0
   9 C    1     2.4207     4.5744   49 N    0 0 0
   9 C    1     2.4258     4.5841   30 C    0 0 0

  13 C    1     1.3646     2.5787   41 N    0-1 0
  13 C    1     1.3671     2.5834   33 N    0-1 0
  13 C    1     1.4747     2.7868    9 C    0 0 0
  13 C    1     2.1951     4.1481   37 N    0-1 0
  13 C    1     2.1981     4.1538   45 N    0-1 0
  13 C    1     2.5171     4.7566   25 C    0 0 0

  17 C    1     1.0888     2.0575    1 H    0 0 0
  17 C    1     1.4041     2.6534   30 C    0 0 0
  17 C    1     1.4128     2.6698    9 C    0 0 0
  17 C    1     2.3896     4.5158   25 C    0 0 0
  17 C    1     2.4237     4.5801   21 C    0 0 0
  17 C    1     2.5304     4.7817   13 C    0 0 0

  21 C    1     1.0919     2.0633    5 H    0 0 0
  21 C    1     1.3361     2.5249   49 N    0 0 0
  21 C    1     1.3926     2.6317   30 C    0 0 0
  21 C    1     2.2959     4.3386   25 C    0 0 0
  21 C    1     2.4237     4.5801   17 C    0 0 0
  21 C    1     2.7374     5.1730   59 BR   0 0 0

  25 C    1     1.3200     2.4945   49 N    0 0 0
  25 C    1     1.4106     2.6657    9 C    0 0 0
  25 C    1     1.8899     3.5714   55 BR   0 0 0
  25 C    1     2.2959     4.3386   21 C    0 0 0
  25 C    1     2.3896     4.5158   17 C    0 0 0
  25 C    1     2.5171     4.7566   13 C    0 0 0

  29 C    1     1.3926     2.6317   22 C    0 0 0
  29 C    1     1.4041     2.6534   18 C    0 0 0
  29 C    1     1.9007     3.5918   60 BR   0 0 0
  29 C    1     2.1849     4.1289    6 H    0 0 0
  29 C    1     2.1849     4.1289    2 H    0 0 0
  29 C    1     2.3727     4.4838   50 N    0 0 0

  33 N    1     1.3671     2.5834   13 C    0 1 0
  33 N    1     1.3742     2.5969   37 N    0 0 0
  33 N    1     2.1974     4.1525   45 N    0 0 0
  33 N    1     2.2249     4.2045   41 N    0 0 0
  33 N    1     2.2773     4.3034   53 ZN   1 1 0
  33 N    1     2.4921     4.7093    9 C    0 1 0

  37 N    1     1.3191     2.4928   45 N    0 0 0
  37 N    1     1.3742     2.5969   33 N    0 0 0
  37 N    1     2.1951     4.1481   13 C    0 1 0
  37 N    1     2.2016     4.1605   41 N    0 0 0
  37 N    1     3.0220     5.7107   27 C    0 0 0
  37 N    1     3.0311     5.7280   56 BR   1 1 1

  41 N    1     1.3646     2.5787   13 C    0 1 0
  41 N    1     1.3848     2.6169   45 N    0 0 0
  41 N    1     2.0782     3.9272   54 ZN   0 0 0
  41 N    1     2.2016     4.1605   37 N    0 0 0
  41 N    1     2.2249     4.2045   33 N    0 0 0
  41 N    1     2.5549     4.8281    9 C    0 1 0

  45 N    1     1.3191     2.4928   37 N    0 0 0
  45 N    1     1.3848     2.6169   41 N    0 0 0
  45 N    1     2.1974     4.1525   33 N    0 0 0
  45 N    1     2.1981     4.1538   13 C    0 1 0
  45 N    1     2.7216     5.1431   54 ZN   0 0 0
  45 N    1     3.2785     6.1955   42 N    0 0 0

  49 N    1     1.3200     2.4945   25 C    0 0 0
  49 N    1     1.3361     2.5249   21 C    0 0 0
  49 N    1     2.0688     3.9095    5 H    0 0 0
  49 N    1     2.1550     4.0724    6 H    0 0 0
  49 N    1     2.3727     4.4838   30 C    0 0 0
  49 N    1     2.4207     4.5744    9 C    0 0 0

  53 ZN   4     2.2773     4.3034   33 N   -1-1 0   34 N   -1 0 1   35 N    0 0 1
                                    36 N   -1 0 0
  53 ZN   4     2.9232     5.5241   55 BR  -1 0 0   56 BR   0 0 1   57 BR  -1-1 0
                                    58 BR  -1 0 1
  53 ZN   4     3.0496     5.7629   37 N   -1-1 0   38 N   -1 0 1   39 N    0 0 1
                                    40 N   -1 0 0
  53 ZN   4     3.4355     6.4922   13 C   -1 0 0   14 C    0 0 1   15 C   -1-1 0
                                    16 C   -1 0 1
  53 ZN   4     3.7700     7.1243   25 C   -1 0 0   26 C    0 0 1   27 C   -1-1 0
                                    28 C   -1 0 1
  53 ZN   4     3.9621     7.4872    9 C   -1 0 0   10 C    0 0 1   11 C   -1-1 0
                                    12 C   -1 0 1

  54 ZN   4     2.0782     3.9272   41 N    0 0 0   42 N    0 0 0   43 N    1 1 0
                                    44 N    1 1 0
  54 ZN   4     2.7216     5.1431   45 N    0 0 0   46 N    0 0 0   47 N    1 1 0
                                    48 N    1 1 0
  54 ZN   4     3.3415     6.3145   13 C    0 1 0   14 C    1 0 0   15 C    0 0-1
                                    16 C    1 1 1
  54 ZN   4     3.9050     7.3793    1 H    0 1 0    2 H    1 0 0    3 H    0 0-1
                                     4 H    1 1 1
  54 ZN   4     3.9676     7.4976   37 N    0 0 0   38 N    0 0 0   39 N    1 1 0
                                    40 N    1 1 0
  54 ZN   4     4.1214     7.7883    9 C    0 1 0   10 C    1 0 0   11 C    0 0-1
                                    12 C    1 1 1

  55 BR   1     1.8899     3.5714   25 C    0 0 0
  55 BR   1     2.6895     5.0824   49 N    0 0 0
  55 BR   1     2.9025     5.4848    9 C    0 0 0
  55 BR   1     2.9232     5.5241   53 ZN   1 0 0
  55 BR   1     3.0091     5.6863   34 N    0 0 1
  55 BR   1     3.0311     5.7280   38 N    0 0 1

  59 BR   1     1.9007     3.5918   30 C    0 0 0
  59 BR   1     2.6780     5.0606    2 H    0-1-1
  59 BR   1     2.7374     5.1730   21 C    0 0 0
  59 BR   1     2.8108     5.3117    5 H    0 0 0
  59 BR   1     2.9826     5.6363   17 C    0 0 0
  59 BR   1     3.0366     5.7383    3 H   -1-1-1


 SYMMETRY ALLOWED INTERNAL DEGREE(S) OF FREEDOM:  45
 TTTTTTTTTTTTTTTTTTTTTTTTTTTTTT SYMM        TELAPSE        7.71 TCPU        0.13
 TTTTTTTTTTTTTTTTTTTTTTTTTTTTTT INT_SCREEN  TELAPSE        7.72 TCPU        0.14
 INFORMATION **** EXCBUF **** EXCH. BIPO BUFFER: WORDS USED =           0

 DFT PARAMETERS

     ATOM       ELECTRONS   NET CHARGE   R(ANGSTROM)
   1   1  H       1.0000      0.0000     1.11000000
   9   6  C       6.0000      0.0000     0.77000000
  33   7  N       7.0000      0.0000     0.74000000
  53  30  ZN     30.0000      0.0000     1.37000000
  55  35  BR     35.0000      0.0000     1.14000000

 SIZE OF GRID=     471096
 TTTTTTTTTTTTTTTTTTTTTTTTTTTTTT MAKE_GRID2  TELAPSE        8.44 TCPU        0.86
 BECKE WEIGHT FUNCTION
 RADSAFE =     2.00
 TOLERANCES - DENSITY:10**- 6; POTENTIAL:10**- 9; GRID WGT:10**-14

 RADIAL INTEGRATION  - INTERVALS (POINTS,UPPER LIMIT):            1( 75,  4.0*R)

 ANGULAR INTEGRATION - INTERVALS (ACCURACY LEVEL [N. POINTS] UPPER LIMIT):
  1(  4[  86]   0.2)  2(  8[ 194]   0.5)  3( 12[ 350]   0.9)  4( 16[ 974]   3.5)
  5( 12[ 350]9999.0)
 TTTTTTTTTTTTTTTTTTTTTTTTTTTTTT INT_CALC    TELAPSE        8.47 TCPU        0.89
 EEEEEEEEEE INT_CALC TERMINATION  DATE 15 12 2023 TIME 01:19:58.1

 *******************************************************************************
 Z:\home\sanoj\Downloads\tmp_p\newconn.mol                                       
 CRYSTAL - SCF - TYPE OF CALCULATION :  RESTRICTED CLOSED SHELL
 *******************************************************************************

 CAPPA:IS1  3;IS2  3;IS3  3; K PTS MONK NET   6; SYMMOPS:K SPACE   8;G SPACE   4

 TTTTTTTTTTTTTTTTTTTTTTTTTTTTTT SDIK        TELAPSE        8.65 TCPU        1.07

 AAAAAAAAAAAAAAAAAAAAAAAAAAAAAAAAAAAAAAAAAAAAAAAAAAAAAAAAAAAAAAAAAAAAAAAAAAAAAAA
         ATOMIC WAVEFUNCTION(S)


 NUCLEAR CHARGE  1.0  SYMMETRY SPECIES            S
 N. ELECTRONS    1.0  NUMBER OF PRIMITIVE GTOS    4
                      NUMBER OF CONTRACTED GTOS   2
                      NUMBER OF CLOSED SHELLS     0
                      OPEN SHELL OCCUPATION       1

  ZNUC SCFIT  TOTAL HF ENERGY   KINETIC ENERGY   VIRIAL THEOREM ACCURACY
   1.0   1   -4.946643675E-01  4.917913167E-01 -2.005842012E+00  9.4E-17

 NUCLEAR CHARGE  6.0  SYMMETRY SPECIES            S    P
 N. ELECTRONS    6.0  NUMBER OF PRIMITIVE GTOS    7    4
                      NUMBER OF CONTRACTED GTOS   3    2
                      NUMBER OF CLOSED SHELLS     2    0
                      OPEN SHELL OCCUPATION       0    2

  ZNUC SCFIT  TOTAL HF ENERGY   KINETIC ENERGY   VIRIAL THEOREM ACCURACY
   6.0   6   -3.750912652E+01  3.905246519E+01 -1.960480378E+00  3.7E-06

 NUCLEAR CHARGE  7.0  SYMMETRY SPECIES            S    P
 N. ELECTRONS    7.0  NUMBER OF PRIMITIVE GTOS    7    4
                      NUMBER OF CONTRACTED GTOS   3    2
                      NUMBER OF CLOSED SHELLS     2    0
                      OPEN SHELL OCCUPATION       0    3

  ZNUC SCFIT  TOTAL HF ENERGY   KINETIC ENERGY   VIRIAL THEOREM ACCURACY
   7.0   9   -5.432196661E+01  5.425066284E+01 -2.001314339E+00  1.2E-06

 NUCLEAR CHARGE 30.0  SYMMETRY SPECIES            S    P    D
 N. ELECTRONS   30.0  NUMBER OF PRIMITIVE GTOS   14    9    5
                      NUMBER OF CONTRACTED GTOS   5    3    2
                      NUMBER OF CLOSED SHELLS     4    2    1
                      OPEN SHELL OCCUPATION       0    0    0

  ZNUC SCFIT  TOTAL HF ENERGY   KINETIC ENERGY   VIRIAL THEOREM ACCURACY
  30.0  10   -1.777404290E+03  1.777325716E+03 -2.000044209E+00  2.5E-06

 NUCLEAR CHARGE 35.0  SYMMETRY SPECIES            S    P    D
 N. ELECTRONS   35.0  NUMBER OF PRIMITIVE GTOS   14   10    7
                      NUMBER OF CONTRACTED GTOS   5    4    4
                      NUMBER OF CLOSED SHELLS     4    2    1
                      OPEN SHELL OCCUPATION       0    5    0

  ZNUC SCFIT  TOTAL HF ENERGY   KINETIC ENERGY   VIRIAL THEOREM ACCURACY
  35.0  13   -2.572060514E+03  2.572021521E+03 -2.000015161E+00  3.6E-06

 AAAAAAAAAAAAAAAAAAAAAAAAAAAAAAAAAAAAAAAAAAAAAAAAAAAAAAAAAAAAAAAAAAAAAAAAAAAAAAA

 TOTAL ATOMIC CHARGES:
   1.0000000   1.0000000   1.0000000   1.0000000   1.0000000   1.0000000
   1.0000000   1.0000000   6.0000000   6.0000000   6.0000000   6.0000000
   6.0000000   6.0000000   6.0000000   6.0000000   6.0000000   6.0000000
   6.0000000   6.0000000   6.0000000   6.0000000   6.0000000   6.0000000
   6.0000000   6.0000000   6.0000000   6.0000000   6.0000000   6.0000000
   6.0000000   6.0000000   7.0000000   7.0000000   7.0000000   7.0000000
   7.0000000   7.0000000   7.0000000   7.0000000   7.0000000   7.0000000
   7.0000000   7.0000000   7.0000000   7.0000000   7.0000000   7.0000000
   7.0000000   7.0000000   7.0000000   7.0000000  30.0000000  30.0000000
  35.0000000  35.0000000  35.0000000  35.0000000  35.0000000  35.0000000
  35.0000000  35.0000000
 TTTTTTTTTTTTTTTTTTTTTTTTTTTTTT MOQGAD      TELAPSE       11.70 TCPU        4.08
 TTTTTTTTTTTTTTTTTTTTTTTTTTTTTT SHELLXN     TELAPSE       48.39 TCPU       26.05
 TTTTTTTTTTTTTTTTTTTTTTTTTTTTTT MONMO3      TELAPSE       51.31 TCPU       28.96
 NUMERICALLY INTEGRATED DENSITY    631.9999653569
 TTTTTTTTTTTTTTTTTTTTTTTTTTTTTT NUMDFT      TELAPSE       51.93 TCPU       29.57
 CYC   0 ETOT(AU) -2.615972512936E+04 DETOT -2.62E+04 tst  0.00E+00 PX  1.00E+00
 TTTTTTTTTTTTTTTTTTTTTTTTTTTTTT DIIS        TELAPSE       51.99 TCPU       29.63
 TTTTTTTTTTTTTTTTTTTTTTTTTTTTTT FDIK        TELAPSE       83.86 TCPU       52.79
 INSULATING STATE
 TOP OF VALENCE BANDS -    BAND    316; K    4; EIG -1.3008765E-01 AU
 TOP OF VALENCE BANDS -    BAND    316; K    1; EIG -1.3170287E-01 AU
 BOTTOM OF VIRTUAL BANDS - BAND    317; K    4; EIG -1.0275015E-01 AU
 DIRECT ENERGY BAND GAP:   0.7439 eV
 BOTTOM OF VIRTUAL BANDS - BAND    317; K    1; EIG -1.0124849E-01 AU
 TTTTTTTTTTTTTTTTTTTTTTTTTTTTTT PDIG        TELAPSE       84.65 TCPU       53.58
 TOTAL ATOMIC CHARGES:
   1.2625131   1.2625131   1.2625131   1.2625131   1.3005310   1.3005310
   1.3005310   1.3005310   6.1607724   6.1607724   6.1607724   6.1607724
   5.4698791   5.4698791   5.4698791   5.4698791   6.3094763   6.3094763
   6.3094763   6.3094763   5.9070884   5.9070884   5.9070884   5.9070884
   5.3583533   5.3583533   5.3583533   5.3583533   5.4813044   5.4813044
   5.4813044   5.4813044   7.4653133   7.4653133   7.4653133   7.4653133
   7.2000167   7.2000167   7.2000167   7.2000167   7.4252931   7.4252931
   7.4252931   7.4252931   7.1434092   7.1434092   7.1434092   7.1434092
   7.4979771   7.4979771   7.4979771   7.4979771  28.0311717  28.0183971
  35.0573548  35.0573548  35.0573548  35.0573548  34.9483257  34.9483257
  34.9483257  34.9483257
 TTTTTTTTTTTTTTTTTTTTTTTTTTTTTT MOQGAD      TELAPSE       84.67 TCPU       53.60
 TTTTTTTTTTTTTTTTTTTTTTTTTTTTTT SHELLXN     TELAPSE      113.07 TCPU       79.71
 TTTTTTTTTTTTTTTTTTTTTTTTTTTTTT MONMO3      TELAPSE      117.81 TCPU       84.44
 NUMERICALLY INTEGRATED DENSITY    631.9999683793
 TTTTTTTTTTTTTTTTTTTTTTTTTTTTTT NUMDFT      TELAPSE      119.61 TCPU       86.23
 CYC   1 ETOT(AU) -2.615495156987E+04 DETOT  4.77E+00 tst  0.00E+00 PX  1.00E+00
 TTTTTTTTTTTTTTTTTTTTTTTTTTTTTT DIIS        TELAPSE      119.78 TCPU       86.40
 DIIS TEST: 0.84726E+01 AT SCF   CYCLE   1 - MIX   30 %
 TTTTTTTTTTTTTTTTTTTTTTTTTTTTTT FDIK        TELAPSE      129.74 TCPU       94.22
 INSULATING STATE
 TOP OF VALENCE BANDS -    BAND    316; K    3; EIG -1.4731149E-01 AU
 TOP OF VALENCE BANDS -    BAND    316; K    1; EIG -1.4997916E-01 AU
 BOTTOM OF VIRTUAL BANDS - BAND    317; K    1; EIG -1.3159577E-01 AU
 INDIRECT ENERGY BAND GAP:   0.4276 eV
 TTTTTTTTTTTTTTTTTTTTTTTTTTTTTT PDIG        TELAPSE      130.54 TCPU       95.01
 TOTAL ATOMIC CHARGES:
   1.2239184   1.2239184   1.2239184   1.2239184   1.2460142   1.2460142
   1.2460142   1.2460142   6.3171990   6.3171990   6.3171990   6.3171990
   6.4150553   6.4150553   6.4150553   6.4150553   6.3062527   6.3062527
   6.3062527   6.3062527   5.8810419   5.8810419   5.8810419   5.8810419
   6.3707352   6.3707352   6.3707352   6.3707352   5.9869082   5.9869082
   5.9869082   5.9869082   6.8590157   6.8590157   6.8590157   6.8590157
   6.9618886   6.9618886   6.9618886   6.9618886   6.9561201   6.9561201
   6.9561201   6.9561201   6.8667350   6.8667350   6.8667350   6.8667350
   5.9187173   5.9187173   5.9187173   5.9187173  29.4565169  29.3931615
  35.1069107  35.1069107  35.1069107  35.1069107  34.8710681  34.8710681
  34.8710681  34.8710681
 TTTTTTTTTTTTTTTTTTTTTTTTTTTTTT MOQGAD      TELAPSE      130.56 TCPU       95.03
 TTTTTTTTTTTTTTTTTTTTTTTTTTTTTT SHELLXN     TELAPSE      163.05 TCPU      121.05
 TTTTTTTTTTTTTTTTTTTTTTTTTTTTTT MONMO3      TELAPSE      166.46 TCPU      124.44
 NUMERICALLY INTEGRATED DENSITY    631.9999734429
 TTTTTTTTTTTTTTTTTTTTTTTTTTTTTT NUMDFT      TELAPSE      168.14 TCPU      126.12
 CYC   2 ETOT(AU) -2.615315903543E+04 DETOT  1.79E+00 tst  2.46E-02 PX  6.57E-01
 TTTTTTTTTTTTTTTTTTTTTTTTTTTTTT DIIS        TELAPSE      168.30 TCPU      126.27
 DIIS TEST: 0.24362E+02 AT SCF   CYCLE   2 - DIIS ACTIVE - HISTORY:     2 CYCLES
 TTTTTTTTTTTTTTTTTTTTTTTTTTTTTT FDIK        TELAPSE      178.11 TCPU      131.97
 INSULATING STATE
 TOP OF VALENCE BANDS -    BAND    316; K    3; EIG -2.3233987E-01 AU
 TOP OF VALENCE BANDS -    BAND    316; K    1; EIG -2.3465094E-01 AU
 BOTTOM OF VIRTUAL BANDS - BAND    317; K    4; EIG -1.2627514E-01 AU
 INDIRECT ENERGY BAND GAP:   2.8862 eV
 BOTTOM OF VIRTUAL BANDS - BAND    317; K    1; EIG -1.2625798E-01 AU
 TTTTTTTTTTTTTTTTTTTTTTTTTTTTTT PDIG        TELAPSE      178.92 TCPU      132.77
 TOTAL ATOMIC CHARGES:
   1.2013523   1.2013523   1.2013523   1.2013523   1.2089185   1.2089185
   1.2089185   1.2089185   5.9852781   5.9852781   5.9852781   5.9852781
   5.9455410   5.9455410   5.9455410   5.9455410   6.1094090   6.1094090
   6.1094090   6.1094090   6.1789029   6.1789029   6.1789029   6.1789029
   5.8788671   5.8788671   5.8788671   5.8788671   5.7566230   5.7566230
   5.7566230   5.7566230   7.0460210   7.0460210   7.0460210   7.0460210
   7.1228291   7.1228291   7.1228291   7.1228291   7.0285101   7.0285101
   7.0285101   7.0285101   7.0391522   7.0391522   7.0391522   7.0391522
   7.2763684   7.2763684   7.2763684   7.2763684  29.1059459  29.1808372
  34.8674676  34.8674676  34.8674676  34.8674676  34.7830639  34.7830639
  34.7830639  34.7830639
 TTTTTTTTTTTTTTTTTTTTTTTTTTTTTT MOQGAD      TELAPSE      178.94 TCPU      132.79
 TTTTTTTTTTTTTTTTTTTTTTTTTTTTTT SHELLXN     TELAPSE      207.44 TCPU      158.88
 TTTTTTTTTTTTTTTTTTTTTTTTTTTTTT MONMO3      TELAPSE      212.64 TCPU      164.06
 NUMERICALLY INTEGRATED DENSITY    631.9999713999
 TTTTTTTTTTTTTTTTTTTTTTTTTTTTTT NUMDFT      TELAPSE      214.32 TCPU      165.73
 CYC   3 ETOT(AU) -2.615593051138E+04 DETOT -2.77E+00 tst  9.05E-03 PX  3.11E-01
 TTTTTTTTTTTTTTTTTTTTTTTTTTTTTT DIIS        TELAPSE      214.47 TCPU      165.88
 DIIS TEST: 0.34316E+01 AT SCF   CYCLE   3 - DIIS ACTIVE - HISTORY:     3 CYCLES
 TTTTTTTTTTTTTTTTTTTTTTTTTTTTTT FDIK        TELAPSE      223.69 TCPU      173.05
 INSULATING STATE
 TOP OF VALENCE BANDS -    BAND    316; K    3; EIG -2.2016173E-01 AU
 TOP OF VALENCE BANDS -    BAND    316; K    1; EIG -2.2408257E-01 AU
 BOTTOM OF VIRTUAL BANDS - BAND    317; K    5; EIG -1.2001183E-01 AU
 INDIRECT ENERGY BAND GAP:   2.7252 eV
 BOTTOM OF VIRTUAL BANDS - BAND    317; K    1; EIG -1.1902074E-01 AU
 TTTTTTTTTTTTTTTTTTTTTTTTTTTTTT PDIG        TELAPSE      224.49 TCPU      173.85
 TOTAL ATOMIC CHARGES:
   1.2021436   1.2021436   1.2021436   1.2021436   1.2432689   1.2432689
   1.2432689   1.2432689   6.2257557   6.2257557   6.2257557   6.2257557
   5.8089036   5.8089036   5.8089036   5.8089036   6.3676597   6.3676597
   6.3676597   6.3676597   5.8581417   5.8581417   5.8581417   5.8581417
   5.7095797   5.7095797   5.7095797   5.7095797   5.7285230   5.7285230
   5.7285230   5.7285230   7.2569928   7.2569928   7.2569928   7.2569928
   7.0958338   7.0958338   7.0958338   7.0958338   7.2314953   7.2314953
   7.2314953   7.2314953   7.0222099   7.0222099   7.0222099   7.0222099
   6.9418227   6.9418227   6.9418227   6.9418227  28.7704978  28.8036605
  35.0076059  35.0076059  35.0076059  35.0076059  34.9065242  34.9065242
  34.9065242  34.9065242
 TTTTTTTTTTTTTTTTTTTTTTTTTTTTTT MOQGAD      TELAPSE      224.52 TCPU      173.87
 TTTTTTTTTTTTTTTTTTTTTTTTTTTTTT SHELLXN     TELAPSE      253.43 TCPU      200.02
 TTTTTTTTTTTTTTTTTTTTTTTTTTTTTT MONMO3      TELAPSE      257.07 TCPU      203.65
 NUMERICALLY INTEGRATED DENSITY    631.9999648644
 TTTTTTTTTTTTTTTTTTTTTTTTTTTTTT NUMDFT      TELAPSE      258.75 TCPU      205.33
 CYC   4 ETOT(AU) -2.615638981649E+04 DETOT -4.59E-01 tst  3.27E-03 PX  2.37E-01
 TTTTTTTTTTTTTTTTTTTTTTTTTTTTTT DIIS        TELAPSE      258.89 TCPU      205.47
 DIIS TEST: 0.74180E+00 AT SCF   CYCLE   4 - DIIS ACTIVE - HISTORY:     4 CYCLES
 TTTTTTTTTTTTTTTTTTTTTTTTTTTTTT FDIK        TELAPSE      268.09 TCPU      212.60
 INSULATING STATE
 TOP OF VALENCE BANDS -    BAND    316; K    3; EIG -2.3499526E-01 AU
 TOP OF VALENCE BANDS -    BAND    316; K    1; EIG -2.3995723E-01 AU
 BOTTOM OF VIRTUAL BANDS - BAND    317; K    1; EIG -1.2256034E-01 AU
 INDIRECT ENERGY BAND GAP:   3.0595 eV
 TTTTTTTTTTTTTTTTTTTTTTTTTTTTTT PDIG        TELAPSE      268.89 TCPU      213.39
 TOTAL ATOMIC CHARGES:
   1.2050182   1.2050182   1.2050182   1.2050182   1.2365702   1.2365702
   1.2365702   1.2365702   6.1748886   6.1748886   6.1748886   6.1748886
   5.8717783   5.8717783   5.8717783   5.8717783   6.2634853   6.2634853
   6.2634853   6.2634853   5.9597799   5.9597799   5.9597799   5.9597799
   5.8456605   5.8456605   5.8456605   5.8456605   5.7183198   5.7183198
   5.7183198   5.7183198   7.1666834   7.1666834   7.1666834   7.1666834
   7.1440512   7.1440512   7.1440512   7.1440512   7.1561135   7.1561135
   7.1561135   7.1561135   7.0333496   7.0333496   7.0333496   7.0333496
   7.0145078   7.0145078   7.0145078   7.0145078  28.7448396  28.7602466
  34.9774841  34.9774841  34.9774841  34.9774841  34.8560380  34.8560380
  34.8560380  34.8560380
 TTTTTTTTTTTTTTTTTTTTTTTTTTTTTT MOQGAD      TELAPSE      268.91 TCPU      213.41
 TTTTTTTTTTTTTTTTTTTTTTTTTTTTTT SHELLXN     TELAPSE      297.23 TCPU      239.29
 TTTTTTTTTTTTTTTTTTTTTTTTTTTTTT MONMO3      TELAPSE      302.79 TCPU      244.82
 NUMERICALLY INTEGRATED DENSITY    631.9999681074
 TTTTTTTTTTTTTTTTTTTTTTTTTTTTTT NUMDFT      TELAPSE      304.52 TCPU      246.55
 CYC   5 ETOT(AU) -2.615647298577E+04 DETOT -8.32E-02 tst  3.95E-04 PX  4.16E-02
 TTTTTTTTTTTTTTTTTTTTTTTTTTTTTT DIIS        TELAPSE      304.68 TCPU      246.71
 DIIS TEST: 0.10612E+00 AT SCF   CYCLE   5 - DIIS ACTIVE - HISTORY:     5 CYCLES
 TTTTTTTTTTTTTTTTTTTTTTTTTTTTTT FDIK        TELAPSE      313.76 TCPU      253.48
 INSULATING STATE
 TOP OF VALENCE BANDS -    BAND    316; K    3; EIG -2.3358609E-01 AU
 TOP OF VALENCE BANDS -    BAND    316; K    1; EIG -2.3831638E-01 AU
 BOTTOM OF VIRTUAL BANDS - BAND    317; K    1; EIG -1.2095064E-01 AU
 INDIRECT ENERGY BAND GAP:   3.0650 eV
 TTTTTTTTTTTTTTTTTTTTTTTTTTTTTT PDIG        TELAPSE      314.58 TCPU      254.30
 TOTAL ATOMIC CHARGES:
   1.2071094   1.2071094   1.2071094   1.2071094   1.2339344   1.2339344
   1.2339344   1.2339344   6.1519839   6.1519839   6.1519839   6.1519839
   5.8473279   5.8473279   5.8473279   5.8473279   6.2925351   6.2925351
   6.2925351   6.2925351   5.9570172   5.9570172   5.9570172   5.9570172
   5.7486081   5.7486081   5.7486081   5.7486081   5.7385014   5.7385014
   5.7385014   5.7385014   7.1835362   7.1835362   7.1835362   7.1835362
   7.0978135   7.0978135   7.0978135   7.0978135   7.1902376   7.1902376
   7.1902376   7.1902376   7.0490710   7.0490710   7.0490710   7.0490710
   7.0424596   7.0424596   7.0424596   7.0424596  28.7801005  28.8073461
  34.9890958  34.9890958  34.9890958  34.9890958  34.8739073  34.8739073
  34.8739073  34.8739073
 TTTTTTTTTTTTTTTTTTTTTTTTTTTTTT MOQGAD      TELAPSE      314.60 TCPU      254.32
 TTTTTTTTTTTTTTTTTTTTTTTTTTTTTT SHELLXN     TELAPSE      344.89 TCPU      280.25
 TTTTTTTTTTTTTTTTTTTTTTTTTTTTTT MONMO3      TELAPSE      348.61 TCPU      283.95
 NUMERICALLY INTEGRATED DENSITY    631.9999682750
 TTTTTTTTTTTTTTTTTTTTTTTTTTTTTT NUMDFT      TELAPSE      350.35 TCPU      285.67
 CYC   6 ETOT(AU) -2.615648695245E+04 DETOT -1.40E-02 tst  4.27E-05 PX  4.80E-02
 TTTTTTTTTTTTTTTTTTTTTTTTTTTTTT DIIS        TELAPSE      350.51 TCPU      285.83
 DIIS TEST: 0.24068E-01 AT SCF   CYCLE   6 - DIIS ACTIVE - HISTORY:     6 CYCLES
 TTTTTTTTTTTTTTTTTTTTTTTTTTTTTT FDIK        TELAPSE      357.44 TCPU      292.53
 INSULATING STATE
 TOP OF VALENCE BANDS -    BAND    316; K    3; EIG -2.3373762E-01 AU
 TOP OF VALENCE BANDS -    BAND    316; K    1; EIG -2.3842918E-01 AU
 BOTTOM OF VIRTUAL BANDS - BAND    317; K    1; EIG -1.2164937E-01 AU
 INDIRECT ENERGY BAND GAP:   3.0501 eV
 TTTTTTTTTTTTTTTTTTTTTTTTTTTTTT PDIG        TELAPSE      358.27 TCPU      293.37
 TOTAL ATOMIC CHARGES:
   1.2051065   1.2051065   1.2051065   1.2051065   1.2355568   1.2355568
   1.2355568   1.2355568   6.1649582   6.1649582   6.1649582   6.1649582
   5.8532754   5.8532754   5.8532754   5.8532754   6.2846891   6.2846891
   6.2846891   6.2846891   5.9478802   5.9478802   5.9478802   5.9478802
   5.7782902   5.7782902   5.7782902   5.7782902   5.7135287   5.7135287
   5.7135287   5.7135287   7.2075606   7.2075606   7.2075606   7.2075606
   7.1314513   7.1314513   7.1314513   7.1314513   7.1605786   7.1605786
   7.1605786   7.1605786   7.0183395   7.0183395   7.0183395   7.0183395
   7.0504815   7.0504815   7.0504815   7.0504815  28.7855416  28.8077307
  34.9778017  34.9778017  34.9778017  34.9778017  34.8721836  34.8721836
  34.8721836  34.8721836
 TTTTTTTTTTTTTTTTTTTTTTTTTTTTTT MOQGAD      TELAPSE      358.30 TCPU      293.39
 TTTTTTTTTTTTTTTTTTTTTTTTTTTTTT SHELLXN     TELAPSE      385.73 TCPU      319.39
 TTTTTTTTTTTTTTTTTTTTTTTTTTTTTT MONMO3      TELAPSE      389.29 TCPU      322.94
 NUMERICALLY INTEGRATED DENSITY    631.9999676029
 TTTTTTTTTTTTTTTTTTTTTTTTTTTTTT NUMDFT      TELAPSE      390.98 TCPU      324.62
 CYC   7 ETOT(AU) -2.615648802424E+04 DETOT -1.07E-03 tst  1.85E-05 PX  9.39E-03
 TTTTTTTTTTTTTTTTTTTTTTTTTTTTTT DIIS        TELAPSE      391.22 TCPU      324.86
 DIIS TEST: 0.17988E-01 AT SCF   CYCLE   7 - DIIS ACTIVE - HISTORY:     7 CYCLES
 TTTTTTTTTTTTTTTTTTTTTTTTTTTTTT FDIK        TELAPSE      399.44 TCPU      330.91
 INSULATING STATE
 TOP OF VALENCE BANDS -    BAND    316; K    3; EIG -2.3372504E-01 AU
 TOP OF VALENCE BANDS -    BAND    316; K    1; EIG -2.3836308E-01 AU
 BOTTOM OF VIRTUAL BANDS - BAND    317; K    1; EIG -1.2162292E-01 AU
 INDIRECT ENERGY BAND GAP:   3.0505 eV
 TTTTTTTTTTTTTTTTTTTTTTTTTTTTTT PDIG        TELAPSE      400.28 TCPU      331.75
 TOTAL ATOMIC CHARGES:
   1.2050923   1.2050923   1.2050923   1.2050923   1.2349685   1.2349685
   1.2349685   1.2349685   6.1607059   6.1607059   6.1607059   6.1607059
   5.8549367   5.8549367   5.8549367   5.8549367   6.2846494   6.2846494
   6.2846494   6.2846494   5.9555058   5.9555058   5.9555058   5.9555058
   5.7802000   5.7802000   5.7802000   5.7802000   5.7244430   5.7244430
   5.7244430   5.7244430   7.1770318   7.1770318   7.1770318   7.1770318
   7.1145751   7.1145751   7.1145751   7.1145751   7.1803579   7.1803579
   7.1803579   7.1803579   7.0425913   7.0425913   7.0425913   7.0425913
   7.0431178   7.0431178   7.0431178   7.0431178  28.7783495  28.8062774
  34.9765185  34.9765185  34.9765185  34.9765185  34.8691494  34.8691494
  34.8691494  34.8691494
 TTTTTTTTTTTTTTTTTTTTTTTTTTTTTT MOQGAD      TELAPSE      400.31 TCPU      331.77
 TTTTTTTTTTTTTTTTTTTTTTTTTTTTTT SHELLXN     TELAPSE      428.57 TCPU      357.75
 TTTTTTTTTTTTTTTTTTTTTTTTTTTTTT MONMO3      TELAPSE      432.18 TCPU      361.34
 NUMERICALLY INTEGRATED DENSITY    631.9999678732
 TTTTTTTTTTTTTTTTTTTTTTTTTTTTTT NUMDFT      TELAPSE      433.91 TCPU      363.06
 CYC   8 ETOT(AU) -2.615649030762E+04 DETOT -2.28E-03 tst  1.12E-05 PX  7.59E-03
 TTTTTTTTTTTTTTTTTTTTTTTTTTTTTT DIIS        TELAPSE      434.09 TCPU      363.23
 DIIS TEST: 0.22227E-02 AT SCF   CYCLE   8 - DIIS ACTIVE - HISTORY:     8 CYCLES
 TTTTTTTTTTTTTTTTTTTTTTTTTTTTTT FDIK        TELAPSE      442.90 TCPU      369.99
 INSULATING STATE
 TOP OF VALENCE BANDS -    BAND    316; K    3; EIG -2.3400040E-01 AU
 TOP OF VALENCE BANDS -    BAND    316; K    1; EIG -2.3864549E-01 AU
 BOTTOM OF VIRTUAL BANDS - BAND    317; K    1; EIG -1.2159892E-01 AU
 INDIRECT ENERGY BAND GAP:   3.0586 eV
 TTTTTTTTTTTTTTTTTTTTTTTTTTTTTT PDIG        TELAPSE      443.70 TCPU      370.79
 TOTAL ATOMIC CHARGES:
   1.2049075   1.2049075   1.2049075   1.2049075   1.2342563   1.2342563
   1.2342563   1.2342563   6.1567814   6.1567814   6.1567814   6.1567814
   5.8512588   5.8512588   5.8512588   5.8512588   6.2830038   6.2830038
   6.2830038   6.2830038   5.9589357   5.9589357   5.9589357   5.9589357
   5.7742261   5.7742261   5.7742261   5.7742261   5.7315384   5.7315384
   5.7315384   5.7315384   7.1910880   7.1910880   7.1910880   7.1910880
   7.1180665   7.1180665   7.1180665   7.1180665   7.1740603   7.1740603
   7.1740603   7.1740603   7.0345017   7.0345017   7.0345017   7.0345017
   7.0418958   7.0418958   7.0418958   7.0418958  28.7795801  28.8054354
  34.9818907  34.9818907  34.9818907  34.9818907  34.8673352  34.8673352
  34.8673352  34.8673352
 TTTTTTTTTTTTTTTTTTTTTTTTTTTTTT MOQGAD      TELAPSE      443.72 TCPU      370.81
 TTTTTTTTTTTTTTTTTTTTTTTTTTTTTT SHELLXN     TELAPSE      469.90 TCPU      396.78
 TTTTTTTTTTTTTTTTTTTTTTTTTTTTTT MONMO3      TELAPSE      475.82 TCPU      402.66
 NUMERICALLY INTEGRATED DENSITY    631.9999678745
 TTTTTTTTTTTTTTTTTTTTTTTTTTTTTT NUMDFT      TELAPSE      477.56 TCPU      404.39
 CYC   9 ETOT(AU) -2.615649053947E+04 DETOT -2.32E-04 tst  1.46E-06 PX  3.33E-03
 TTTTTTTTTTTTTTTTTTTTTTTTTTTTTT DIIS        TELAPSE      477.72 TCPU      404.55
 DIIS TEST: 0.91843E-03 AT SCF   CYCLE   9 - DIIS ACTIVE - HISTORY:     9 CYCLES
 TTTTTTTTTTTTTTTTTTTTTTTTTTTTTT FDIK        TELAPSE      485.95 TCPU      410.64
 INSULATING STATE
 TOP OF VALENCE BANDS -    BAND    316; K    3; EIG -2.3386787E-01 AU
 TOP OF VALENCE BANDS -    BAND    316; K    1; EIG -2.3850527E-01 AU
 BOTTOM OF VIRTUAL BANDS - BAND    317; K    1; EIG -1.2161560E-01 AU
 INDIRECT ENERGY BAND GAP:   3.0545 eV
 TTTTTTTTTTTTTTTTTTTTTTTTTTTTTT PDIG        TELAPSE      486.75 TCPU      411.43
 TOTAL ATOMIC CHARGES:
   1.2050449   1.2050449   1.2050449   1.2050449   1.2346054   1.2346054
   1.2346054   1.2346054   6.1606515   6.1606515   6.1606515   6.1606515
   5.8523779   5.8523779   5.8523779   5.8523779   6.2839413   6.2839413
   6.2839413   6.2839413   5.9550047   5.9550047   5.9550047   5.9550047
   5.7763113   5.7763113   5.7763113   5.7763113   5.7242481   5.7242481
   5.7242481   5.7242481   7.1858560   7.1858560   7.1858560   7.1858560
   7.1165006   7.1165006   7.1165006   7.1165006   7.1768955   7.1768955
   7.1768955   7.1768955   7.0370971   7.0370971   7.0370971   7.0370971
   7.0462461   7.0462461   7.0462461   7.0462461  28.7806779  28.8065108
  34.9790533  34.9790533  34.9790533  34.9790533  34.8693694  34.8693694
  34.8693694  34.8693694
 TTTTTTTTTTTTTTTTTTTTTTTTTTTTTT MOQGAD      TELAPSE      486.77 TCPU      411.45
 TTTTTTTTTTTTTTTTTTTTTTTTTTTTTT SHELLXN     TELAPSE      515.17 TCPU      437.40
 TTTTTTTTTTTTTTTTTTTTTTTTTTTTTT MONMO3      TELAPSE      518.79 TCPU      441.00
 NUMERICALLY INTEGRATED DENSITY    631.9999678614
 TTTTTTTTTTTTTTTTTTTTTTTTTTTTTT NUMDFT      TELAPSE      520.48 TCPU      442.68
 CYC  10 ETOT(AU) -2.615649064447E+04 DETOT -1.05E-04 tst  2.26E-07 PX  1.97E-03
 TTTTTTTTTTTTTTTTTTTTTTTTTTTTTT DIIS        TELAPSE      520.64 TCPU      442.84
 DIIS TEST: 0.14801E-03 AT SCF   CYCLE  10 - DIIS ACTIVE - HISTORY:    10 CYCLES
 TTTTTTTTTTTTTTTTTTTTTTTTTTTTTT FDIK        TELAPSE      529.86 TCPU      449.83
 INSULATING STATE
 TOP OF VALENCE BANDS -    BAND    316; K    3; EIG -2.3391922E-01 AU
 TOP OF VALENCE BANDS -    BAND    316; K    1; EIG -2.3854031E-01 AU
 BOTTOM OF VIRTUAL BANDS - BAND    317; K    1; EIG -1.2163628E-01 AU
 INDIRECT ENERGY BAND GAP:   3.0554 eV
 TTTTTTTTTTTTTTTTTTTTTTTTTTTTTT PDIG        TELAPSE      530.66 TCPU      450.63
 TOTAL ATOMIC CHARGES:
   1.2048658   1.2048658   1.2048658   1.2048658   1.2344448   1.2344448
   1.2344448   1.2344448   6.1586887   6.1586887   6.1586887   6.1586887
   5.8529194   5.8529194   5.8529194   5.8529194   6.2843050   6.2843050
   6.2843050   6.2843050   5.9562350   5.9562350   5.9562350   5.9562350
   5.7764637   5.7764637   5.7764637   5.7764637   5.7271872   5.7271872
   5.7271872   5.7271872   7.1858667   7.1858667   7.1858667   7.1858667
   7.1186057   7.1186057   7.1186057   7.1186057   7.1750784   7.1750784
   7.1750784   7.1750784   7.0368378   7.0368378   7.0368378   7.0368378
   7.0445097   7.0445097   7.0445097   7.0445097  28.7797602  28.8058481
  34.9785941  34.9785941  34.9785941  34.9785941  34.8689959  34.8689959
  34.8689959  34.8689959
 TTTTTTTTTTTTTTTTTTTTTTTTTTTTTT MOQGAD      TELAPSE      530.68 TCPU      450.65
 TTTTTTTTTTTTTTTTTTTTTTTTTTTTTT SHELLXN     TELAPSE      559.11 TCPU      476.58
 TTTTTTTTTTTTTTTTTTTTTTTTTTTTTT MONMO3      TELAPSE      562.76 TCPU      480.21
 NUMERICALLY INTEGRATED DENSITY    631.9999678857
 TTTTTTTTTTTTTTTTTTTTTTTTTTTTTT NUMDFT      TELAPSE      564.44 TCPU      481.88
 CYC  11 ETOT(AU) -2.615649066063E+04 DETOT -1.62E-05 tst  5.40E-08 PX  8.61E-04
 TTTTTTTTTTTTTTTTTTTTTTTTTTTTTT DIIS        TELAPSE      564.62 TCPU      482.07
 DIIS TEST: 0.48295E-04 AT SCF   CYCLE  11 - DIIS ACTIVE - HISTORY:    11 CYCLES
 TTTTTTTTTTTTTTTTTTTTTTTTTTTTTT FDIK        TELAPSE      573.52 TCPU      488.82
 INSULATING STATE
 TOP OF VALENCE BANDS -    BAND    316; K    3; EIG -2.3390393E-01 AU
 TOP OF VALENCE BANDS -    BAND    316; K    1; EIG -2.3853952E-01 AU
 BOTTOM OF VIRTUAL BANDS - BAND    317; K    1; EIG -1.2162365E-01 AU
 INDIRECT ENERGY BAND GAP:   3.0553 eV
 TTTTTTTTTTTTTTTTTTTTTTTTTTTTTT PDIG        TELAPSE      574.31 TCPU      489.62
 TOTAL ATOMIC CHARGES:
   1.2050210   1.2050210   1.2050210   1.2050210   1.2345127   1.2345127
   1.2345127   1.2345127   6.1595363   6.1595363   6.1595363   6.1595363
   5.8523764   5.8523764   5.8523764   5.8523764   6.2834708   6.2834708
   6.2834708   6.2834708   5.9561836   5.9561836   5.9561836   5.9561836
   5.7761061   5.7761061   5.7761061   5.7761061   5.7259103   5.7259103
   5.7259103   5.7259103   7.1876298   7.1876298   7.1876298   7.1876298
   7.1160548   7.1160548   7.1160548   7.1160548   7.1767501   7.1767501
   7.1767501   7.1767501   7.0364147   7.0364147   7.0364147   7.0364147
   7.0449485   7.0449485   7.0449485   7.0449485  28.7799146  28.8059603
  34.9797712  34.9797712  34.9797712  34.9797712  34.8688450  34.8688450
  34.8688450  34.8688450
 TTTTTTTTTTTTTTTTTTTTTTTTTTTTTT MOQGAD      TELAPSE      574.34 TCPU      489.64
 TTTTTTTTTTTTTTTTTTTTTTTTTTTTTT SHELLXN     TELAPSE      600.62 TCPU      515.61
 TTTTTTTTTTTTTTTTTTTTTTTTTTTTTT MONMO3      TELAPSE      604.25 TCPU      519.22
 NUMERICALLY INTEGRATED DENSITY    631.9999678515
 TTTTTTTTTTTTTTTTTTTTTTTTTTTTTT NUMDFT      TELAPSE      605.94 TCPU      520.91
 CYC  12 ETOT(AU) -2.615649066243E+04 DETOT -1.80E-06 tst  8.93E-08 PX  6.19E-04
 TTTTTTTTTTTTTTTTTTTTTTTTTTTTTT DIIS        TELAPSE      606.09 TCPU      521.06
 DIIS TEST: 0.33607E-04 AT SCF   CYCLE  12 - DIIS ACTIVE - HISTORY:    12 CYCLES
 TTTTTTTTTTTTTTTTTTTTTTTTTTTTTT FDIK        TELAPSE      613.88 TCPU      528.59
 INSULATING STATE
 TOP OF VALENCE BANDS -    BAND    316; K    3; EIG -2.3390472E-01 AU
 TOP OF VALENCE BANDS -    BAND    316; K    1; EIG -2.3854238E-01 AU
 BOTTOM OF VIRTUAL BANDS - BAND    317; K    1; EIG -1.2160926E-01 AU
 INDIRECT ENERGY BAND GAP:   3.0557 eV
 TTTTTTTTTTTTTTTTTTTTTTTTTTTTTT PDIG        TELAPSE      614.68 TCPU      529.38
 TOTAL ATOMIC CHARGES:
   1.2049855   1.2049855   1.2049855   1.2049855   1.2345294   1.2345294
   1.2345294   1.2345294   6.1594665   6.1594665   6.1594665   6.1594665
   5.8524045   5.8524045   5.8524045   5.8524045   6.2840599   6.2840599
   6.2840599   6.2840599   5.9559805   5.9559805   5.9559805   5.9559805
   5.7760418   5.7760418   5.7760418   5.7760418   5.7261877   5.7261877
   5.7261877   5.7261877   7.1864006   7.1864006   7.1864006   7.1864006
   7.1177116   7.1177116   7.1177116   7.1177116   7.1755911   7.1755911
   7.1755911   7.1755911   7.0367449   7.0367449   7.0367449   7.0367449
   7.0448526   7.0448526   7.0448526   7.0448526  28.7801170  28.8062120
  34.9795603  34.9795603  34.9795603  34.9795603  34.8689010  34.8689010
  34.8689010  34.8689010
 TTTTTTTTTTTTTTTTTTTTTTTTTTTTTT MOQGAD      TELAPSE      614.70 TCPU      529.40
 TTTTTTTTTTTTTTTTTTTTTTTTTTTTTT SHELLXN     TELAPSE      643.02 TCPU      555.36
 TTTTTTTTTTTTTTTTTTTTTTTTTTTTTT MONMO3      TELAPSE      646.64 TCPU      558.96
 NUMERICALLY INTEGRATED DENSITY    631.9999678704
 TTTTTTTTTTTTTTTTTTTTTTTTTTTTTT NUMDFT      TELAPSE      648.36 TCPU      560.68
 CYC  13 ETOT(AU) -2.615649066736E+04 DETOT -4.93E-06 tst  3.49E-08 PX  3.83E-04
[...]
   5-C(  1  0  1)   6-C(  2  1  0)   7-C(  0  0  2)   8-C(  2  1  1)
   9-C(  2  1  2)  10-C(  2  2  1)

 GCALCO - MAX INDICES DIRECT LATTICE VECTOR    14    14    16
 NO.OF VECTORS CREATED 6999 STARS  480 RMAX   211.28681 BOHR
 TTTTTTTTTTTTTTTTTTTTTTTTTTTTTT gordsh1     TELAPSE   101741.50 TCPU   100624.33

 MATRIX SIZE: P(G) 1948284, F(G)  974920, P(G) IRR  490690, F(G) IRR  490690
 MAX G-VECTOR INDEX FOR 1- AND 2-ELECTRON INTEGRALS  63

 TTTTTTTTTTTTTTTTTTTTTTTTTTTTTT INPUT       TELAPSE   101741.53 TCPU   100624.36
 TTTTTTTTTTTTTTTTTTTTTTTTTTTTTT SYMM        TELAPSE   101741.53 TCPU   100624.36

 ***** NEW REFERENCE GEOMETRY *****
 TTTTTTTTTTTTTTTTTTTTTTTTTTTTTT INT_SCREEN  TELAPSE   101741.54 TCPU   100624.37
 INFORMATION **** EXCBUF **** EXCH. BIPO BUFFER: WORDS USED =           0

 DFT PARAMETERS

     ATOM       ELECTRONS   NET CHARGE   R(ANGSTROM)
   1   1  H       1.0000      0.0000     1.11000000
   9   6  C       6.0000      0.0000     0.77000000
  33   7  N       7.0000      0.0000     0.74000000
  53  30  ZN     30.0000      0.0000     1.37000000
  55  35  BR     35.0000      0.0000     1.14000000

 SIZE OF GRID=     942192
 TTTTTTTTTTTTTTTTTTTTTTTTTTTTTT MAKE_GRID2  TELAPSE   101742.40 TCPU   100625.23
 BECKE WEIGHT FUNCTION
 RADSAFE =     2.00
 TOLERANCES - DENSITY:10**- 6; POTENTIAL:10**- 9; GRID WGT:10**-14

 RADIAL INTEGRATION  - INTERVALS (POINTS,UPPER LIMIT):            1( 75,  4.0*R)

 ANGULAR INTEGRATION - INTERVALS (ACCURACY LEVEL [N. POINTS] UPPER LIMIT):
  1(  4[  86]   0.2)  2(  8[ 194]   0.5)  3( 12[ 350]   0.9)  4( 16[ 974]   3.5)
  5( 12[ 350]9999.0)
 TTTTTTTTTTTTTTTTTTTTTTTTTTTTTT INT_CALC    TELAPSE   101742.44 TCPU   100625.27
 CYCLE   0   ALPHA  940.870729  EPSILON    3.092509  DELTA    9.4087E+02
 TTTTTTTTTTTTTTTTTTTTTTTTTTTTTT MOQGAD      TELAPSE   101974.66 TCPU   100856.35
 TTTTTTTTTTTTTTTTTTTTTTTTTTTTTT CP_MONMON   TELAPSE   101979.39 TCPU   100861.06
 DIIS TEST: 0.14317E+03 AT CPHF  CYCLE   1 - MIX    0 %
 CYCLE   1   ALPHA  425.805110  EPSILON    1.946996  DELTA   -5.1507E+02
 TTTTTTTTTTTTTTTTTTTTTTTTTTTTTT MOQGAD      TELAPSE   102215.13 TCPU   101095.21
 TTTTTTTTTTTTTTTTTTTTTTTTTTTTTT CP_MONMON   TELAPSE   102219.86 TCPU   101099.92
 DIIS TEST: 0.12788E+04 AT CPHF  CYCLE   2 - DIIS ACTIVE - HISTORY:     2 CYCLES
 CYCLE   2   ALPHA  694.423841  EPSILON    2.544408  DELTA    2.6862E+02
 TTTTTTTTTTTTTTTTTTTTTTTTTTTTTT MOQGAD      TELAPSE   102455.94 TCPU   101334.37
 TTTTTTTTTTTTTTTTTTTTTTTTTTTTTT CP_MONMON   TELAPSE   102460.68 TCPU   101339.08
 DIIS TEST: 0.25618E+02 AT CPHF  CYCLE   3 - DIIS ACTIVE - HISTORY:     3 CYCLES
 CYCLE   3   ALPHA  740.566240  EPSILON    2.647029  DELTA    4.6142E+01
 TTTTTTTTTTTTTTTTTTTTTTTTTTTTTT MOQGAD      TELAPSE   102696.49 TCPU   101573.27
 TTTTTTTTTTTTTTTTTTTTTTTTTTTTTT CP_MONMON   TELAPSE   102701.23 TCPU   101577.98
 DIIS TEST: 0.42729E+01 AT CPHF  CYCLE   4 - DIIS ACTIVE - HISTORY:     4 CYCLES
 CYCLE   4   ALPHA  743.278212  EPSILON    2.653061  DELTA    2.7120E+00
 TTTTTTTTTTTTTTTTTTTTTTTTTTTTTT MOQGAD      TELAPSE   102937.34 TCPU   101812.47
 TTTTTTTTTTTTTTTTTTTTTTTTTTTTTT CP_MONMON   TELAPSE   102942.07 TCPU   101817.18
 DIIS TEST: 0.25170E+00 AT CPHF  CYCLE   5 - DIIS ACTIVE - HISTORY:     5 CYCLES
 CYCLE   5   ALPHA  743.976668  EPSILON    2.654614  DELTA    6.9846E-01
 TTTTTTTTTTTTTTTTTTTTTTTTTTTTTT MOQGAD      TELAPSE   103179.83 TCPU   102053.38
 TTTTTTTTTTTTTTTTTTTTTTTTTTTTTT CP_MONMON   TELAPSE   103184.56 TCPU   102058.09
 DIIS TEST: 0.66619E-01 AT CPHF  CYCLE   6 - DIIS ACTIVE - HISTORY:     6 CYCLES
 CYCLE   6   ALPHA  744.476629  EPSILON    2.655726  DELTA    4.9996E-01
 TTTTTTTTTTTTTTTTTTTTTTTTTTTTTT MOQGAD      TELAPSE   103424.03 TCPU   102295.93
 TTTTTTTTTTTTTTTTTTTTTTTTTTTTTT CP_MONMON   TELAPSE   103428.76 TCPU   102300.65
 DIIS TEST: 0.29258E-01 AT CPHF  CYCLE   7 - DIIS ACTIVE - HISTORY:     7 CYCLES
 CYCLE   7   ALPHA  744.506688  EPSILON    2.655793  DELTA    3.0059E-02
 TTTTTTTTTTTTTTTTTTTTTTTTTTTTTT MOQGAD      TELAPSE   103664.60 TCPU   102534.91
 TTTTTTTTTTTTTTTTTTTTTTTTTTTTTT CP_MONMON   TELAPSE   103669.33 TCPU   102539.62
 DIIS TEST: 0.19477E-01 AT CPHF  CYCLE   8 - DIIS ACTIVE - HISTORY:     8 CYCLES
 CYCLE   8   ALPHA  744.505175  EPSILON    2.655790  DELTA   -1.5135E-03
 TTTTTTTTTTTTTTTTTTTTTTTTTTTTTT MOQGAD      TELAPSE   103905.46 TCPU   102773.96
 TTTTTTTTTTTTTTTTTTTTTTTTTTTTTT CP_MONMON   TELAPSE   103910.19 TCPU   102778.66
 DIIS TEST: 0.17598E-01 AT CPHF  CYCLE   9 - DIIS ACTIVE - HISTORY:     9 CYCLES
 CYCLE   9   ALPHA  744.549961  EPSILON    2.655889  DELTA    4.4786E-02
 TTTTTTTTTTTTTTTTTTTTTTTTTTTTTT MOQGAD      TELAPSE   104145.90 TCPU   103012.73
 TTTTTTTTTTTTTTTTTTTTTTTTTTTTTT CP_MONMON   TELAPSE   104150.63 TCPU   103017.44
 DIIS TEST: 0.20813E-01 AT CPHF  CYCLE  10 - DIIS ACTIVE - HISTORY:    10 CYCLES
 CYCLE  10   ALPHA  744.549986  EPSILON    2.655889  DELTA    2.5198E-05
 TTTTTTTTTTTTTTTTTTTTTTTTTTTTTT CP_SC       TELAPSE   104166.45 TCPU   103032.09

 *******************************************************************************

 POLARIZABILITY (ALPHA), DIELECTRIC (EPSILON) AND FIRST-ORDER ELECTRIC
 SUSCEPTIBILITY (CHI(1)) TENSORS (INDEPENDENT COMPONENTS)

  FR.(eV) COMP.   ALPHA(Re,Im)           EPSILON(Re,Im)                CHI(1)
  1.435   XX    1318.3870       0.0000       3.9321       0.0000       2.9321
  1.435   ZZ     744.5500       0.0000       2.6559       0.0000       1.6559

 DIELECTRIC TENSOR

 TENSOR IN PRINCIPAL AXES SYSTEM
 AA  3.932111E+00 BB  3.932111E+00 CC  2.655889E+00

 REFRACTIVE INDICES 
 AA  1.629690E+00 BB  1.982955E+00 CC  1.982955E+00

 OPTICALLY ANISOTROPIC - UNIAXIAL CRYSTAL

 BIREFRINGENCE =  0.3533 (NEGATIVE) - OBLATE OPTICAL ELLIPSOID

 EPSILON=N**2=1+CHI(1)=1+ALPHA*4*PI/V,   4*PI/V=   0.00222 BOHR**(-3)
 ALPHA IN BOHR**3; EPSILON AND CHI(1) ARE DIMENSIONLESS.
 *******************************************************************************

 DYNAMIC FIELD: RUN 10/ 10 - RADIATION WAVELENGTH: 1064.0000 NM

 *******************************************************************************

 ELECTRIC FIELD APPLIED ALONG CARTESIAN DIRECTION X

 *******************************************************************************
 THE NUMBER OF SYMMETRY OPERATORS HAS BEEN REDUCED FROM  4 TO  1

 NEW GRID IN RECIPROCAL SPACE
 *******************************************************************************
 POINTS IN THE IBZ                  14 SHRINKING FACTORS               3  3  3
 *******************************************************************************
 *** K POINTS COORDINATES (OBLIQUE COORDINATES IN UNITS OF SHRINK FAC. )
   1-R(  0  0  0)   2-C(  1  0  0)   3-C(  0  1  2)   4-C(  2  0  1)
   5-C(  0  2  0)   6-C(  1  1  0)   7-C(  1  1  1)   8-C(  1  0  1)
   9-C(  0  1  1)  10-C(  2  1  0)  11-C(  0  0  2)  12-C(  2  1  1)
  13-C(  2  1  2)  14-C(  2  2  1)

 GCALCO - MAX INDICES DIRECT LATTICE VECTOR    14    14    16
 NO.OF VECTORS CREATED 6999 STARS  480 RMAX   211.28681 BOHR
 TTTTTTTTTTTTTTTTTTTTTTTTTTTTTT gordsh1     TELAPSE   104166.46 TCPU   103032.10

 MATRIX SIZE: P(G) 1948284, F(G)  974920, P(G) IRR  976758, F(G) IRR  976758
 MAX G-VECTOR INDEX FOR 1- AND 2-ELECTRON INTEGRALS  63

 TTTTTTTTTTTTTTTTTTTTTTTTTTTTTT INPUT       TELAPSE   104166.58 TCPU   103032.22
 TTTTTTTTTTTTTTTTTTTTTTTTTTTTTT SYMM        TELAPSE   104166.58 TCPU   103032.22

 ***** NEW REFERENCE GEOMETRY *****
 TTTTTTTTTTTTTTTTTTTTTTTTTTTTTT INT_SCREEN  TELAPSE   104166.59 TCPU   103032.23
 INFORMATION **** EXCBUF **** EXCH. BIPO BUFFER: WORDS USED =           0

 DFT PARAMETERS

     ATOM       ELECTRONS   NET CHARGE   R(ANGSTROM)
   1   1  H       1.0000      0.0000     1.11000000
   9   6  C       6.0000      0.0000     0.77000000
  33   7  N       7.0000      0.0000     0.74000000
  53  30  ZN     30.0000      0.0000     1.37000000
  55  35  BR     35.0000      0.0000     1.14000000

 SIZE OF GRID=    1884152
 TTTTTTTTTTTTTTTTTTTTTTTTTTTTTT MAKE_GRID2  TELAPSE   104167.89 TCPU   103033.52
 BECKE WEIGHT FUNCTION
 RADSAFE =     2.00
 TOLERANCES - DENSITY:10**- 6; POTENTIAL:10**- 9; GRID WGT:10**-14

 RADIAL INTEGRATION  - INTERVALS (POINTS,UPPER LIMIT):            1( 75,  4.0*R)

 ANGULAR INTEGRATION - INTERVALS (ACCURACY LEVEL [N. POINTS] UPPER LIMIT):
  1(  4[  86]   0.2)  2(  8[ 194]   0.5)  3( 12[ 350]   0.9)  4( 16[ 974]   3.5)
  5( 12[ 350]9999.0)
 TTTTTTTTTTTTTTTTTTTTTTTTTTTTTT INT_CALC    TELAPSE   104167.94 TCPU   103033.57
 CYCLE   0   ALPHA 1704.258675  EPSILON    4.790295  DELTA    1.7043E+03
 TTTTTTTTTTTTTTTTTTTTTTTTTTTTTT MOQGAD      TELAPSE   104605.11 TCPU   103468.50
 TTTTTTTTTTTTTTTTTTTTTTTTTTTTTT CP_MONMON   TELAPSE   104613.77 TCPU   103477.12
 DIIS TEST: 0.30569E+03 AT CPHF  CYCLE   1 - MIX    0 %
 CYCLE   1   ALPHA  530.378024  EPSILON    2.179568  DELTA   -1.1739E+03
 TTTTTTTTTTTTTTTTTTTTTTTTTTTTTT MOQGAD      TELAPSE   105056.15 TCPU   103915.02
 TTTTTTTTTTTTTTTTTTTTTTTTTTTTTT CP_MONMON   TELAPSE   105064.80 TCPU   103923.63
 DIIS TEST: 0.22203E+04 AT CPHF  CYCLE   2 - DIIS ACTIVE - HISTORY:     2 CYCLES
 CYCLE   2   ALPHA 1211.479841  EPSILON    3.694348  DELTA    6.8110E+02
 TTTTTTTTTTTTTTTTTTTTTTTTTTTTTT MOQGAD      TELAPSE   105508.18 TCPU   104362.36
 TTTTTTTTTTTTTTTTTTTTTTTTTTTTTT CP_MONMON   TELAPSE   105516.83 TCPU   104370.97
 DIIS TEST: 0.64072E+02 AT CPHF  CYCLE   3 - DIIS ACTIVE - HISTORY:     3 CYCLES
 CYCLE   3   ALPHA 1272.741331  EPSILON    3.830594  DELTA    6.1261E+01
 TTTTTTTTTTTTTTTTTTTTTTTTTTTTTT MOQGAD      TELAPSE   105958.62 TCPU   104809.40
 TTTTTTTTTTTTTTTTTTTTTTTTTTTTTT CP_MONMON   TELAPSE   105967.28 TCPU   104818.02
 DIIS TEST: 0.79740E+01 AT CPHF  CYCLE   4 - DIIS ACTIVE - HISTORY:     4 CYCLES
 CYCLE   4   ALPHA 1288.022431  EPSILON    3.864580  DELTA    1.5281E+01
 TTTTTTTTTTTTTTTTTTTTTTTTTTTTTT MOQGAD      TELAPSE   106408.45 TCPU   105254.12
 TTTTTTTTTTTTTTTTTTTTTTTTTTTTTT CP_MONMON   TELAPSE   106417.09 TCPU   105262.72
 DIIS TEST: 0.14210E+01 AT CPHF  CYCLE   5 - DIIS ACTIVE - HISTORY:     5 CYCLES
 CYCLE   5   ALPHA 1291.800850  EPSILON    3.872983  DELTA    3.7784E+00
 TTTTTTTTTTTTTTTTTTTTTTTTTTTTTT MOQGAD      TELAPSE   106858.94 TCPU   105698.86
 TTTTTTTTTTTTTTTTTTTTTTTTTTTTTT CP_MONMON   TELAPSE   106867.57 TCPU   105707.45
 DIIS TEST: 0.11739E+00 AT CPHF  CYCLE   6 - DIIS ACTIVE - HISTORY:     6 CYCLES
 CYCLE   6   ALPHA 1293.220007  EPSILON    3.876139  DELTA    1.4192E+00
 TTTTTTTTTTTTTTTTTTTTTTTTTTTTTT MOQGAD      TELAPSE   107311.31 TCPU   106147.91
 TTTTTTTTTTTTTTTTTTTTTTTTTTTTTT CP_MONMON   TELAPSE   107319.94 TCPU   106156.51
 DIIS TEST: 0.23086E-01 AT CPHF  CYCLE   7 - DIIS ACTIVE - HISTORY:     7 CYCLES
 CYCLE   7   ALPHA 1293.616503  EPSILON    3.877021  DELTA    3.9650E-01
 TTTTTTTTTTTTTTTTTTTTTTTTTTTTTT MOQGAD      TELAPSE   107760.73 TCPU   106593.77
 TTTTTTTTTTTTTTTTTTTTTTTTTTTTTT CP_MONMON   TELAPSE   107769.40 TCPU   106602.38
 DIIS TEST: 0.44489E-02 AT CPHF  CYCLE   8 - DIIS ACTIVE - HISTORY:     8 CYCLES
 CYCLE   8   ALPHA 1293.679459  EPSILON    3.877161  DELTA    6.2955E-02
 TTTTTTTTTTTTTTTTTTTTTTTTTTTTTT MOQGAD      TELAPSE   108215.40 TCPU   107042.87
 TTTTTTTTTTTTTTTTTTTTTTTTTTTTTT CP_MONMON   TELAPSE   108224.03 TCPU   107051.47
 DIIS TEST: 0.15528E-03 AT CPHF  CYCLE   9 - DIIS ACTIVE - HISTORY:     9 CYCLES
 CYCLE   9   ALPHA 1293.629478  EPSILON    3.877050  DELTA   -4.9981E-02
 TTTTTTTTTTTTTTTTTTTTTTTTTTTTTT MOQGAD      TELAPSE   108667.50 TCPU   107490.47
 TTTTTTTTTTTTTTTTTTTTTTTTTTTTTT CP_MONMON   TELAPSE   108676.16 TCPU   107499.09
 DIIS TEST: 0.28137E-04 AT CPHF  CYCLE  10 - DIIS ACTIVE - HISTORY:    10 CYCLES
 CYCLE  10   ALPHA 1293.615939  EPSILON    3.877020  DELTA   -1.3539E-02
 TTTTTTTTTTTTTTTTTTTTTTTTTTTTTT MOQGAD      TELAPSE   109119.91 TCPU   107937.73
 TTTTTTTTTTTTTTTTTTTTTTTTTTTTTT CP_MONMON   TELAPSE   109128.58 TCPU   107946.37
 DIIS TEST: 0.64830E-05 AT CPHF  CYCLE  11 - DIIS ACTIVE - HISTORY:    11 CYCLES
 CYCLE  11   ALPHA 1293.609959  EPSILON    3.877006  DELTA   -5.9803E-03
 TTTTTTTTTTTTTTTTTTTTTTTTTTTTTT MOQGAD      TELAPSE   109574.29 TCPU   108385.26
 TTTTTTTTTTTTTTTTTTTTTTTTTTTTTT CP_MONMON   TELAPSE   109582.94 TCPU   108393.86
 DIIS TEST: 0.81015E-06 AT CPHF  CYCLE  12 - DIIS ACTIVE - HISTORY:    12 CYCLES
 CYCLE  12   ALPHA 1293.608378  EPSILON    3.877003  DELTA   -1.5810E-03
 TTTTTTTTTTTTTTTTTTTTTTTTTTTTTT MOQGAD      TELAPSE   110026.25 TCPU   108832.72
 TTTTTTTTTTTTTTTTTTTTTTTTTTTTTT CP_MONMON   TELAPSE   110034.90 TCPU   108841.33
 DIIS TEST: 0.71995E-07 AT CPHF  CYCLE  13 - DIIS ACTIVE - HISTORY:    13 CYCLES
 CYCLE  13   ALPHA 1293.607697  EPSILON    3.877001  DELTA   -6.8031E-04
 TTTTTTTTTTTTTTTTTTTTTTTTTTTTTT CP_SC       TELAPSE   110054.25 TCPU   108858.86

 *******************************************************************************

 ELECTRIC FIELD APPLIED ALONG CARTESIAN DIRECTION Z

 *******************************************************************************
 THE NUMBER OF SYMMETRY OPERATORS HAS BEEN REDUCED FROM  4 TO  2

 NEW GRID IN RECIPROCAL SPACE
 *******************************************************************************
 POINTS IN THE IBZ                  10 SHRINKING FACTORS               3  3  3
 *******************************************************************************
 *** K POINTS COORDINATES (OBLIQUE COORDINATES IN UNITS OF SHRINK FAC. )
   1-R(  0  0  0)   2-C(  1  0  0)   3-C(  2  0  1)   4-C(  1  1  0)
   5-C(  1  0  1)   6-C(  2  1  0)   7-C(  0  0  2)   8-C(  2  1  1)
   9-C(  2  1  2)  10-C(  2  2  1)

 GCALCO - MAX INDICES DIRECT LATTICE VECTOR    14    14    16
 NO.OF VECTORS CREATED 6999 STARS  480 RMAX   211.28681 BOHR
 TTTTTTTTTTTTTTTTTTTTTTTTTTTTTT gordsh1     TELAPSE   110054.26 TCPU   108858.87

 MATRIX SIZE: P(G) 1948284, F(G)  974920, P(G) IRR  490690, F(G) IRR  490690
 MAX G-VECTOR INDEX FOR 1- AND 2-ELECTRON INTEGRALS  63

 TTTTTTTTTTTTTTTTTTTTTTTTTTTTTT INPUT       TELAPSE   110054.29 TCPU   108858.90
 TTTTTTTTTTTTTTTTTTTTTTTTTTTTTT SYMM        TELAPSE   110054.29 TCPU   108858.90

 ***** NEW REFERENCE GEOMETRY *****
 TTTTTTTTTTTTTTTTTTTTTTTTTTTTTT INT_SCREEN  TELAPSE   110054.30 TCPU   108858.91
 INFORMATION **** EXCBUF **** EXCH. BIPO BUFFER: WORDS USED =           0

 DFT PARAMETERS

     ATOM       ELECTRONS   NET CHARGE   R(ANGSTROM)
   1   1  H       1.0000      0.0000     1.11000000
   9   6  C       6.0000      0.0000     0.77000000
  33   7  N       7.0000      0.0000     0.74000000
  53  30  ZN     30.0000      0.0000     1.37000000
  55  35  BR     35.0000      0.0000     1.14000000

 SIZE OF GRID=     942192
 TTTTTTTTTTTTTTTTTTTTTTTTTTTTTT MAKE_GRID2  TELAPSE   110055.16 TCPU   108859.77
 BECKE WEIGHT FUNCTION
 RADSAFE =     2.00
 TOLERANCES - DENSITY:10**- 6; POTENTIAL:10**- 9; GRID WGT:10**-14

 RADIAL INTEGRATION  - INTERVALS (POINTS,UPPER LIMIT):            1( 75,  4.0*R)

 ANGULAR INTEGRATION - INTERVALS (ACCURACY LEVEL [N. POINTS] UPPER LIMIT):
  1(  4[  86]   0.2)  2(  8[ 194]   0.5)  3( 12[ 350]   0.9)  4( 16[ 974]   3.5)
  5( 12[ 350]9999.0)
 TTTTTTTTTTTTTTTTTTTTTTTTTTTTTT INT_CALC    TELAPSE   110055.20 TCPU   108859.81
 CYCLE   0   ALPHA  928.355209  EPSILON    3.064675  DELTA    9.2836E+02
 TTTTTTTTTTTTTTTTTTTTTTTTTTTTTT MOQGAD      TELAPSE   110289.91 TCPU   109093.31
 TTTTTTTTTTTTTTTTTTTTTTTTTTTTTT CP_MONMON   TELAPSE   110294.63 TCPU   109098.01
 DIIS TEST: 0.13876E+03 AT CPHF  CYCLE   1 - MIX    0 %
 CYCLE   1   ALPHA  427.442873  EPSILON    1.950639  DELTA   -5.0091E+02
 TTTTTTTTTTTTTTTTTTTTTTTTTTTTTT MOQGAD      TELAPSE   110534.54 TCPU   109336.33
 TTTTTTTTTTTTTTTTTTTTTTTTTTTTTT CP_MONMON   TELAPSE   110539.27 TCPU   109341.04
 DIIS TEST: 0.11990E+04 AT CPHF  CYCLE   2 - DIIS ACTIVE - HISTORY:     2 CYCLES
 CYCLE   2   ALPHA  686.757747  EPSILON    2.527359  DELTA    2.5931E+02
 TTTTTTTTTTTTTTTTTTTTTTTTTTTTTT MOQGAD      TELAPSE   110779.27 TCPU   109579.14
 TTTTTTTTTTTTTTTTTTTTTTTTTTTTTT CP_MONMON   TELAPSE   110784.00 TCPU   109583.84
 DIIS TEST: 0.24661E+02 AT CPHF  CYCLE   3 - DIIS ACTIVE - HISTORY:     3 CYCLES
 CYCLE   3   ALPHA  731.682355  EPSILON    2.627272  DELTA    4.4925E+01
 TTTTTTTTTTTTTTTTTTTTTTTTTTTTTT MOQGAD      TELAPSE   111022.44 TCPU   109820.71
 TTTTTTTTTTTTTTTTTTTTTTTTTTTTTT CP_MONMON   TELAPSE   111027.16 TCPU   109825.41
 DIIS TEST: 0.37761E+01 AT CPHF  CYCLE   4 - DIIS ACTIVE - HISTORY:     4 CYCLES
 CYCLE   4   ALPHA  734.220364  EPSILON    2.632916  DELTA    2.5380E+00
 TTTTTTTTTTTTTTTTTTTTTTTTTTTTTT MOQGAD      TELAPSE   111265.96 TCPU   110062.50
 TTTTTTTTTTTTTTTTTTTTTTTTTTTTTT CP_MONMON   TELAPSE   111270.68 TCPU   110067.19
 DIIS TEST: 0.21659E+00 AT CPHF  CYCLE   5 - DIIS ACTIVE - HISTORY:     5 CYCLES
 CYCLE   5   ALPHA  734.894102  EPSILON    2.634415  DELTA    6.7374E-01
 TTTTTTTTTTTTTTTTTTTTTTTTTTTTTT MOQGAD      TELAPSE   111511.09 TCPU   110305.99
 TTTTTTTTTTTTTTTTTTTTTTTTTTTTTT CP_MONMON   TELAPSE   111515.80 TCPU   110310.69
 DIIS TEST: 0.55957E-01 AT CPHF  CYCLE   6 - DIIS ACTIVE - HISTORY:     6 CYCLES
 CYCLE   6   ALPHA  735.335886  EPSILON    2.635397  DELTA    4.4178E-01
 TTTTTTTTTTTTTTTTTTTTTTTTTTTTTT MOQGAD      TELAPSE   111756.21 TCPU   110549.50
 TTTTTTTTTTTTTTTTTTTTTTTTTTTTTT CP_MONMON   TELAPSE   111760.93 TCPU   110554.20
 DIIS TEST: 0.20618E-01 AT CPHF  CYCLE   7 - DIIS ACTIVE - HISTORY:     7 CYCLES
 CYCLE   7   ALPHA  735.357301  EPSILON    2.635445  DELTA    2.1415E-02
 TTTTTTTTTTTTTTTTTTTTTTTTTTTTTT MOQGAD      TELAPSE   111999.26 TCPU   110790.91
 TTTTTTTTTTTTTTTTTTTTTTTTTTTTTT CP_MONMON   TELAPSE   112003.98 TCPU   110795.61
 DIIS TEST: 0.12271E-01 AT CPHF  CYCLE   8 - DIIS ACTIVE - HISTORY:     8 CYCLES
 CYCLE   8   ALPHA  735.353363  EPSILON    2.635436  DELTA   -3.9375E-03
 TTTTTTTTTTTTTTTTTTTTTTTTTTTTTT MOQGAD      TELAPSE   112241.47 TCPU   111031.39
 TTTTTTTTTTTTTTTTTTTTTTTTTTTTTT CP_MONMON   TELAPSE   112246.19 TCPU   111036.10
 DIIS TEST: 0.10560E-01 AT CPHF  CYCLE   9 - DIIS ACTIVE - HISTORY:     9 CYCLES
 CYCLE   9   ALPHA  735.374354  EPSILON    2.635483  DELTA    2.0991E-02
 TTTTTTTTTTTTTTTTTTTTTTTTTTTTTT MOQGAD      TELAPSE   112483.61 TCPU   111271.81
 TTTTTTTTTTTTTTTTTTTTTTTTTTTTTT CP_MONMON   TELAPSE   112488.34 TCPU   111276.52
 DIIS TEST: 0.11412E-01 AT CPHF  CYCLE  10 - DIIS ACTIVE - HISTORY:    10 CYCLES
 CYCLE  10   ALPHA  735.374964  EPSILON    2.635484  DELTA    6.0966E-04
 TTTTTTTTTTTTTTTTTTTTTTTTTTTTTT CP_SC       TELAPSE   112503.74 TCPU   111291.23

 *******************************************************************************

 POLARIZABILITY (ALPHA), DIELECTRIC (EPSILON) AND FIRST-ORDER ELECTRIC
 SUSCEPTIBILITY (CHI(1)) TENSORS (INDEPENDENT COMPONENTS)

  FR.(eV) COMP.   ALPHA(Re,Im)           EPSILON(Re,Im)                CHI(1)
  1.165   XX    1293.6077       0.0000       3.8770       0.0000       2.8770
  1.165   ZZ     735.3750       0.0000       2.6355       0.0000       1.6355

 DIELECTRIC TENSOR

 TENSOR IN PRINCIPAL AXES SYSTEM
 AA  3.877001E+00 BB  3.877001E+00 CC  2.635484E+00

 REFRACTIVE INDICES 
 AA  1.623417E+00 BB  1.969010E+00 CC  1.969010E+00

 OPTICALLY ANISOTROPIC - UNIAXIAL CRYSTAL

 BIREFRINGENCE =  0.3456 (NEGATIVE) - OBLATE OPTICAL ELLIPSOID

 EPSILON=N**2=1+CHI(1)=1+ALPHA*4*PI/V,   4*PI/V=   0.00222 BOHR**(-3)
 ALPHA IN BOHR**3; EPSILON AND CHI(1) ARE DIMENSIONLESS.
 *******************************************************************************


 GCALCO - MAX INDICES DIRECT LATTICE VECTOR    14    14    16
 NO.OF VECTORS CREATED 6999 STARS  480 RMAX   211.28681 BOHR

 CAPPA:IS1  3;IS2  3;IS3  3; K PTS MONK NET   6; SYMMOPS:K SPACE   8;G SPACE   4

 TTTTTTTTTTTTTTTTTTTTTTTTTTTTTT END         TELAPSE   112503.79 TCPU   111291.23
 EEEEEEEEEE TERMINATION  DATE 16 12 2023 TIME 08:34:53.4
NODE    0 CPU TIME =    111291.233
    TOTAL CPU TIME =   7126936.682
trying normal rsh (/usr/bin/rsh)
exec: No such file or directory
trying normal rsh (/usr/bin/rsh)
exec: No such file or directory
trying normal rsh (/usr/bin/rsh)
exec: No such file or directory
trying normal rsh (/usr/bin/rsh)
exec: No such file or directory
