Loading crystal17/1.0.2/intel/19.0
  Loading requirement: intel/19.0 ompi/4.0.1/intel/19.0
          64 PROCESSORS WORKING

         
 *******************************************************************************
 *                                                                             *
 *                               CRYSTAL17                                     *
 *                      public : 1.0.2 - March 1st, 2018                       *
 *                       HTTP://WWW.CRYSTAL.UNITO.IT                           *
 *                                                                             *
 *                              MAIN AUTHORS                                   *
 *                                                                             *
 *  R. DOVESI(1,11), V.R. SAUNDERS(2), C. ROETTI(1,11), R. ORLANDO(1,11),      *
 *  C.M. ZICOVICH-WILSON(1,3), F. PASCALE(4), B. CIVALLERI(1,11),              *
 *  K. DOLL(5), N.M. HARRISON(2,6), I.J. BUSH(7), Ph. D'ARCO(8),               *
 *  M. LLUNELL(9), M. CAUSA'(10), Y. NOEL(8), L. MASCHIO(1,11), A. ERBA(1,11)  *
 *  M. RE'RAT(14), S. CASASSA(1,11)                                            *
 *                                                                             *
 *        CONTRIBUTIONS TO THE CODE HAVE ALSO BEEN GIVEN BY                    *
 *                                                                             *
 *  M. FERRABONE(1,11), M. DE LA PIERRE(1,11), M. FERRERO(1,11),               *
 *  J. BAIMA(1,11), E. ALBANESE(1,11), M.F. PEINTINGER(12), R. BAST(13),       *
 *  B. KIRTMAN(15), V. LACIVITA(1,11), R. DEMICHELIS(1,16)                     *
 *  G. BRANDEBURG(17), S. SALUSTRO(1,11), G. SANSONE(1,11)                     *
 *  M.T. RUGGIERO(18)                                                          *
 *                                                                             *
 * (1) THEORETICAL CHEMISTRY GROUP - UNIVERSITA' DI TORINO - TORINO (ITALY)    *
 * (2) COMPUTATIONAL SCIENCE & ENGINEERING DEPARTMENT - STFC DARESBURY (UK)    *
 * (3) UNIVERSIDAD AUTONOMA DEL ESTADO DE MORELOS - CUERNAVACA (MEXICO)        *
 * (4) UNIVERSITE' DE LORRAINE - NANCY (FRANCE)                                *
 * (5) UNIVERSITAET STUTTGART- STUTTGART (GERMANY)                             *
 * (6) IMPERIAL COLLEGE - LONDON (UK)                                          *
 * (7) OXFORD E-RESEARCH CENTRE - OXFORD (UK)                                  *
 * (8) UPMC - SORBONNE UNIVERSITES - PARIS (FRANCE)                            *
 * (9) UNIVERSIDAD DE BARCELONA - BARCELONA (SPAIN)                            *
 *(10) UNIVERSITA' DI NAPOLI "FEDERICO II" - NAPOLI (ITALY)                    *
 *(11) NIS - NANOSTRUCTURED INTERFACES AND SURFACES - TORINO (ITALY)           *
 *(12) MPI FUER CHEMISCHE ENERGIEKONVERSION - MUELHEIM AN DER RUHR (GERMANY)   *
 *(13) UNIVERSITY OF TROMSO - TROMSO (NORWAY)                                  *
 *(14) UNIVERSITE' DE PAU ET DES PAYS DE L'ADOUR - PAU (FRANCE)                *
 *(15) UNIVERSITY OF CALIFORNIA SANTA BARBARA - SANTA BARBARA (USA)            *
 *(16) CURTIN UNIVERSITY - PERTH (AUSTRALIA)                                   *
 *(17) UNIVERSITY COLLEGE LONDON - LONDON (UK)                                 *
 *(18) CAMBRIDGE UNIVERSITY - CAMBRIDGE (UK)                                   *
 *                                                                             *
 *******************************************************************************
 EEEEEEEEEE STARTING  DATE 06 03 2024 TIME 14:08:25.2
 C:\Users\wilso\AppData\Local\Temp\tmp_p\newconn.mol                             

 CRYSTAL CALCULATION
 (INPUT ACCORDING TO THE INTERNATIONAL TABLES FOR X-RAY CRYSTALLOGRAPHY)
 CRYSTAL FAMILY                       :  TETRAGONAL  
 CRYSTAL CLASS  (GROTH - 1921)        :  TETRAGONAL DISPHENOIDAL              

 SPACE GROUP (NONCENTROSYMMETRIC)     :  I -4            

 LATTICE PARAMETERS  (ANGSTROMS AND DEGREES) - CONVENTIONAL CELL
        A           B           C        ALPHA        BETA       GAMMA
    11.42500    11.42500    12.39900    90.00000    90.00000    90.00000


 NUMBER OF IRREDUCIBLE ATOMS IN THE CONVENTIONAL CELL:  124

 INPUT COORDINATES

 ATOM AT. N.              COORDINATES
   1   1     4.546500000000E-01  8.550100000000E-01  4.054400000000E-01
   2   1     5.453500000000E-01  1.449900000000E-01  4.054400000000E-01
   3   1     8.550100000000E-01  5.453500000000E-01  5.945600000000E-01
   4   1     1.449900000000E-01  4.546500000000E-01  5.945600000000E-01
   5   1     9.546500000000E-01  3.550100000000E-01  9.054400000000E-01
   6   1     4.535000000000E-02  6.449900000000E-01  9.054400000000E-01
   7   1     3.550100000000E-01  4.535000000000E-02  9.456000000000E-02
   8   1     6.449900000000E-01  9.546500000000E-01  9.456000000000E-02
   9   6     2.685500000000E-01  8.292500000000E-01  3.792900000000E-01
  10   6     2.506300000000E-01  9.546800000000E-01  3.720500000000E-01
  11   6     1.823200000000E-01  7.414500000000E-01  3.722300000000E-01
  12   6     3.373500000000E-01  5.973800000000E-01  3.761400000000E-01
  13   6     3.852200000000E-01  7.914000000000E-01  3.903900000000E-01
  14   6     7.821600000000E-01  3.757800000000E-01  3.725200000000E-01
  15   6     7.314500000000E-01  1.707500000000E-01  3.792900000000E-01
  16   6     7.493700000000E-01  4.532000000000E-02  3.720500000000E-01
  17   6     8.176800000000E-01  2.585500000000E-01  3.722300000000E-01
  18   6     6.626500000000E-01  4.026200000000E-01  3.761400000000E-01
  19   6     6.147800000000E-01  2.086000000000E-01  3.903900000000E-01
  20   6     2.178400000000E-01  6.242200000000E-01  3.725200000000E-01
  21   6     8.292500000000E-01  7.314500000000E-01  6.207100000000E-01
  22   6     9.546800000000E-01  7.493700000000E-01  6.279500000000E-01
  23   6     7.414500000000E-01  8.176800000000E-01  6.277700000000E-01
  24   6     5.973800000000E-01  6.626500000000E-01  6.238600000000E-01
  25   6     7.914000000000E-01  6.147800000000E-01  6.096100000000E-01
  26   6     3.757800000000E-01  2.178400000000E-01  6.274800000000E-01
  27   6     1.707500000000E-01  2.685500000000E-01  6.207100000000E-01
  28   6     4.532000000000E-02  2.506300000000E-01  6.279500000000E-01
  29   6     2.585500000000E-01  1.823200000000E-01  6.277700000000E-01
  30   6     4.026200000000E-01  3.373500000000E-01  6.238600000000E-01
  31   6     2.086000000000E-01  3.852200000000E-01  6.096100000000E-01
  32   6     6.242200000000E-01  7.821600000000E-01  6.274800000000E-01
  33   6     7.685500000000E-01  3.292500000000E-01  8.792900000000E-01
  34   6     7.506300000000E-01  4.546800000000E-01  8.720500000000E-01
  35   6     6.823200000000E-01  2.414500000000E-01  8.722300000000E-01
  36   6     8.373500000000E-01  9.738000000000E-02  8.761400000000E-01
  37   6     8.852200000000E-01  2.914000000000E-01  8.903900000000E-01
  38   6     2.821600000000E-01  8.757800000000E-01  8.725200000000E-01
  39   6     2.314500000000E-01  6.707500000000E-01  8.792900000000E-01
  40   6     2.493700000000E-01  5.453200000000E-01  8.720500000000E-01
  41   6     3.176800000000E-01  7.585500000000E-01  8.722300000000E-01
  42   6     1.626500000000E-01  9.026200000000E-01  8.761400000000E-01
  43   6     1.147800000000E-01  7.086000000000E-01  8.903900000000E-01
  44   6     7.178400000000E-01  1.242200000000E-01  8.725200000000E-01
  45   6     3.292500000000E-01  2.314500000000E-01  1.207100000000E-01
  46   6     4.546800000000E-01  2.493700000000E-01  1.279500000000E-01
  47   6     2.414500000000E-01  3.176800000000E-01  1.277700000000E-01
  48   6     9.738000000000E-02  1.626500000000E-01  1.238600000000E-01
  49   6     2.914000000000E-01  1.147800000000E-01  1.096100000000E-01
  50   6     8.757800000000E-01  7.178400000000E-01  1.274800000000E-01
  51   6     6.707500000000E-01  7.685500000000E-01  1.207100000000E-01
  52   6     5.453200000000E-01  7.506300000000E-01  1.279500000000E-01
  53   6     7.585500000000E-01  6.823200000000E-01  1.277700000000E-01
  54   6     9.026200000000E-01  8.373500000000E-01  1.238600000000E-01
  55   6     7.086000000000E-01  8.852200000000E-01  1.096100000000E-01
  56   6     1.242200000000E-01  2.821600000000E-01  1.274800000000E-01
  57   7     3.391800000000E-01  2.622000000000E-02  3.369300000000E-01
  58   7     2.987800000000E-01  1.391300000000E-01  3.485900000000E-01
  59   7     1.570000000000E-01  2.056000000000E-02  4.022100000000E-01
  60   7     1.908000000000E-01  1.357700000000E-01  3.865200000000E-01
  61   7     4.186900000000E-01  6.799400000000E-01  3.857700000000E-01
  62   7     6.608200000000E-01  9.737800000000E-01  3.369300000000E-01
  63   7     7.012200000000E-01  8.608700000000E-01  3.485900000000E-01
  64   7     8.430000000000E-01  9.794400000000E-01  4.022100000000E-01
  65   7     8.092000000000E-01  8.642300000000E-01  3.865200000000E-01
  66   7     5.813100000000E-01  3.200600000000E-01  3.857700000000E-01
  67   7     2.622000000000E-02  6.608200000000E-01  6.630700000000E-01
  68   7     1.391300000000E-01  7.012200000000E-01  6.514100000000E-01
  69   7     2.056000000000E-02  8.430000000000E-01  5.977900000000E-01
  70   7     1.357700000000E-01  8.092000000000E-01  6.134800000000E-01
  71   7     6.799400000000E-01  5.813100000000E-01  6.142300000000E-01
  72   7     9.737800000000E-01  3.391800000000E-01  6.630700000000E-01
  73   7     8.608700000000E-01  2.987800000000E-01  6.514100000000E-01
  74   7     9.794400000000E-01  1.570000000000E-01  5.977900000000E-01
  75   7     8.642300000000E-01  1.908000000000E-01  6.134800000000E-01
  76   7     3.200600000000E-01  4.186900000000E-01  6.142300000000E-01
  77   7     8.391800000000E-01  5.262200000000E-01  8.369300000000E-01
  78   7     7.987800000000E-01  6.391300000000E-01  8.485900000000E-01
  79   7     6.570000000000E-01  5.205600000000E-01  9.022100000000E-01
  80   7     6.908000000000E-01  6.357700000000E-01  8.865200000000E-01
  81   7     9.186900000000E-01  1.799400000000E-01  8.857700000000E-01
  82   7     1.608200000000E-01  4.737800000000E-01  8.369300000000E-01
  83   7     2.012200000000E-01  3.608700000000E-01  8.485900000000E-01
  84   7     3.430000000000E-01  4.794400000000E-01  9.022100000000E-01
  85   7     3.092000000000E-01  3.642300000000E-01  8.865200000000E-01
  86   7     8.131000000000E-02  8.200600000000E-01  8.857700000000E-01
  87   7     5.262200000000E-01  1.608200000000E-01  1.630700000000E-01
  88   7     6.391300000000E-01  2.012200000000E-01  1.514100000000E-01
  89   7     5.205600000000E-01  3.430000000000E-01  9.779000000000E-02
  90   7     6.357700000000E-01  3.092000000000E-01  1.134800000000E-01
  91   7     1.799400000000E-01  8.131000000000E-02  1.142300000000E-01
  92   7     4.737800000000E-01  8.391800000000E-01  1.630700000000E-01
  93   7     3.608700000000E-01  7.987800000000E-01  1.514100000000E-01
  94   7     4.794400000000E-01  6.570000000000E-01  9.779000000000E-02
  95   7     3.642300000000E-01  6.908000000000E-01  1.134800000000E-01
  96   7     8.200600000000E-01  9.186900000000E-01  1.142300000000E-01
  97  35     3.465000000000E-02  7.719600000000E-01  3.666200000000E-01
  98  35     1.194000000000E-01  5.120900000000E-01  3.707000000000E-01
  99  35     3.771000000000E-01  4.522100000000E-01  3.722800000000E-01
 100  35     9.653500000000E-01  2.280400000000E-01  3.666200000000E-01
 101  35     8.806000000000E-01  4.879100000000E-01  3.707000000000E-01
 102  35     6.229000000000E-01  5.477900000000E-01  3.722800000000E-01
 103  35     7.719600000000E-01  9.653500000000E-01  6.333800000000E-01
 104  35     5.120900000000E-01  8.806000000000E-01  6.293000000000E-01
 105  35     4.522100000000E-01  6.229000000000E-01  6.277200000000E-01
 106  35     2.280400000000E-01  3.465000000000E-02  6.333800000000E-01
 107  35     4.879100000000E-01  1.194000000000E-01  6.293000000000E-01
 108  35     5.477900000000E-01  3.771000000000E-01  6.277200000000E-01
 109  35     5.346500000000E-01  2.719600000000E-01  8.666200000000E-01
 110  35     6.194000000000E-01  1.209000000000E-02  8.707000000000E-01
 111  35     8.771000000000E-01  9.522100000000E-01  8.722800000000E-01
 112  35     4.653500000000E-01  7.280400000000E-01  8.666200000000E-01
 113  35     3.806000000000E-01  9.879100000000E-01  8.707000000000E-01
 114  35     1.229000000000E-01  4.779000000000E-02  8.722800000000E-01
 115  35     2.719600000000E-01  4.653500000000E-01  1.333800000000E-01
 116  35     1.209000000000E-02  3.806000000000E-01  1.293000000000E-01
 117  35     9.522100000000E-01  1.229000000000E-01  1.277200000000E-01
 118  35     7.280400000000E-01  5.346500000000E-01  1.333800000000E-01
 119  35     9.879100000000E-01  6.194000000000E-01  1.293000000000E-01
 120  35     4.779000000000E-02  8.771000000000E-01  1.277200000000E-01
 121  30     4.499237967172E-16  5.000000000000E-01  7.500000000000E-01
 122  30     3.886929015602E-16 -4.664314818722E-16  5.000000000000E-01
 123  30     5.000000000000E-01 -4.664314818722E-16  2.500000000000E-01
 124  30     5.000000000000E-01  5.000000000000E-01  4.120962222895E-17

 *******************************************************************************

 << INFORMATION >>: FROM NOW ON, ALL COORDINATES REFER TO THE PRIMITIVE CELL

 *******************************************************************************

 LATTICE PARAMETERS  (ANGSTROMS AND DEGREES) - PRIMITIVE CELL
       A          B          C        ALPHA      BETA     GAMMA        VOLUME
   10.18328   10.18328   10.18328   111.75436 111.75436 104.99554    809.224610

 INPUT LIST - ATOM N.   2 NOT IRREDUCIBLE

 INPUT LIST - ATOM N.   3 NOT IRREDUCIBLE

 INPUT LIST - ATOM N.   4 NOT IRREDUCIBLE

 INPUT LIST - ATOM N.   1 NOT IRREDUCIBLE

 INPUT LIST - ATOM N.   2 NOT IRREDUCIBLE

 INPUT LIST - ATOM N.   3 NOT IRREDUCIBLE

 INPUT LIST - ATOM N.   4 NOT IRREDUCIBLE

 INPUT LIST - ATOM N.   6 NOT IRREDUCIBLE

 INPUT LIST - ATOM N.  10 NOT IRREDUCIBLE

 INPUT LIST - ATOM N.  14 NOT IRREDUCIBLE

 INPUT LIST - ATOM N.  18 NOT IRREDUCIBLE

 INPUT LIST - ATOM N.  22 NOT IRREDUCIBLE

 INPUT LIST - ATOM N.  26 NOT IRREDUCIBLE

 INPUT LIST - ATOM N.   7 NOT IRREDUCIBLE

 INPUT LIST - ATOM N.  11 NOT IRREDUCIBLE

 INPUT LIST - ATOM N.  15 NOT IRREDUCIBLE

 INPUT LIST - ATOM N.  19 NOT IRREDUCIBLE

 INPUT LIST - ATOM N.  23 NOT IRREDUCIBLE

 INPUT LIST - ATOM N.  27 NOT IRREDUCIBLE

 INPUT LIST - ATOM N.   8 NOT IRREDUCIBLE

 INPUT LIST - ATOM N.  12 NOT IRREDUCIBLE

 INPUT LIST - ATOM N.  16 NOT IRREDUCIBLE

 INPUT LIST - ATOM N.  20 NOT IRREDUCIBLE

 INPUT LIST - ATOM N.  24 NOT IRREDUCIBLE

 INPUT LIST - ATOM N.  28 NOT IRREDUCIBLE

 INPUT LIST - ATOM N.   5 NOT IRREDUCIBLE

 INPUT LIST - ATOM N.   9 NOT IRREDUCIBLE

 INPUT LIST - ATOM N.  13 NOT IRREDUCIBLE

 INPUT LIST - ATOM N.  17 NOT IRREDUCIBLE

 INPUT LIST - ATOM N.  21 NOT IRREDUCIBLE

 INPUT LIST - ATOM N.  25 NOT IRREDUCIBLE

 INPUT LIST - ATOM N.   6 NOT IRREDUCIBLE

 INPUT LIST - ATOM N.  10 NOT IRREDUCIBLE

 INPUT LIST - ATOM N.  14 NOT IRREDUCIBLE

 INPUT LIST - ATOM N.  18 NOT IRREDUCIBLE

 INPUT LIST - ATOM N.  22 NOT IRREDUCIBLE

 INPUT LIST - ATOM N.  26 NOT IRREDUCIBLE

 INPUT LIST - ATOM N.   7 NOT IRREDUCIBLE

 INPUT LIST - ATOM N.  11 NOT IRREDUCIBLE

 INPUT LIST - ATOM N.  15 NOT IRREDUCIBLE

 INPUT LIST - ATOM N.  19 NOT IRREDUCIBLE

 INPUT LIST - ATOM N.  23 NOT IRREDUCIBLE

 INPUT LIST - ATOM N.  27 NOT IRREDUCIBLE

 INPUT LIST - ATOM N.   8 NOT IRREDUCIBLE

 INPUT LIST - ATOM N.  12 NOT IRREDUCIBLE

 INPUT LIST - ATOM N.  16 NOT IRREDUCIBLE

 INPUT LIST - ATOM N.  20 NOT IRREDUCIBLE

 INPUT LIST - ATOM N.  24 NOT IRREDUCIBLE

 INPUT LIST - ATOM N.  28 NOT IRREDUCIBLE

 INPUT LIST - ATOM N.  30 NOT IRREDUCIBLE

 INPUT LIST - ATOM N.  34 NOT IRREDUCIBLE

 INPUT LIST - ATOM N.  38 NOT IRREDUCIBLE

 INPUT LIST - ATOM N.  42 NOT IRREDUCIBLE

 INPUT LIST - ATOM N.  46 NOT IRREDUCIBLE

 INPUT LIST - ATOM N.  31 NOT IRREDUCIBLE

 INPUT LIST - ATOM N.  35 NOT IRREDUCIBLE

 INPUT LIST - ATOM N.  39 NOT IRREDUCIBLE

 INPUT LIST - ATOM N.  43 NOT IRREDUCIBLE

 INPUT LIST - ATOM N.  47 NOT IRREDUCIBLE

 INPUT LIST - ATOM N.  32 NOT IRREDUCIBLE

 INPUT LIST - ATOM N.  36 NOT IRREDUCIBLE

 INPUT LIST - ATOM N.  40 NOT IRREDUCIBLE

 INPUT LIST - ATOM N.  44 NOT IRREDUCIBLE

 INPUT LIST - ATOM N.  48 NOT IRREDUCIBLE

 INPUT LIST - ATOM N.  29 NOT IRREDUCIBLE

 INPUT LIST - ATOM N.  33 NOT IRREDUCIBLE

 INPUT LIST - ATOM N.  37 NOT IRREDUCIBLE

 INPUT LIST - ATOM N.  41 NOT IRREDUCIBLE

 INPUT LIST - ATOM N.  45 NOT IRREDUCIBLE

 INPUT LIST - ATOM N.  30 NOT IRREDUCIBLE

 INPUT LIST - ATOM N.  34 NOT IRREDUCIBLE

 INPUT LIST - ATOM N.  38 NOT IRREDUCIBLE

 INPUT LIST - ATOM N.  42 NOT IRREDUCIBLE

 INPUT LIST - ATOM N.  46 NOT IRREDUCIBLE

 INPUT LIST - ATOM N.  31 NOT IRREDUCIBLE

 INPUT LIST - ATOM N.  35 NOT IRREDUCIBLE

 INPUT LIST - ATOM N.  39 NOT IRREDUCIBLE

 INPUT LIST - ATOM N.  43 NOT IRREDUCIBLE

 INPUT LIST - ATOM N.  47 NOT IRREDUCIBLE

 INPUT LIST - ATOM N.  32 NOT IRREDUCIBLE

 INPUT LIST - ATOM N.  36 NOT IRREDUCIBLE

 INPUT LIST - ATOM N.  40 NOT IRREDUCIBLE

 INPUT LIST - ATOM N.  44 NOT IRREDUCIBLE

 INPUT LIST - ATOM N.  48 NOT IRREDUCIBLE

 INPUT LIST - ATOM N.  50 NOT IRREDUCIBLE

 INPUT LIST - ATOM N.  54 NOT IRREDUCIBLE

 INPUT LIST - ATOM N.  58 NOT IRREDUCIBLE

 INPUT LIST - ATOM N.  51 NOT IRREDUCIBLE

 INPUT LIST - ATOM N.  55 NOT IRREDUCIBLE

 INPUT LIST - ATOM N.  59 NOT IRREDUCIBLE

 INPUT LIST - ATOM N.  52 NOT IRREDUCIBLE

 INPUT LIST - ATOM N.  56 NOT IRREDUCIBLE

 INPUT LIST - ATOM N.  60 NOT IRREDUCIBLE

 INPUT LIST - ATOM N.  49 NOT IRREDUCIBLE

 INPUT LIST - ATOM N.  53 NOT IRREDUCIBLE

 INPUT LIST - ATOM N.  57 NOT IRREDUCIBLE

 INPUT LIST - ATOM N.  50 NOT IRREDUCIBLE

 INPUT LIST - ATOM N.  54 NOT IRREDUCIBLE

 INPUT LIST - ATOM N.  58 NOT IRREDUCIBLE

 INPUT LIST - ATOM N.  51 NOT IRREDUCIBLE

 INPUT LIST - ATOM N.  55 NOT IRREDUCIBLE

 INPUT LIST - ATOM N.  59 NOT IRREDUCIBLE

 INPUT LIST - ATOM N.  52 NOT IRREDUCIBLE

 INPUT LIST - ATOM N.  56 NOT IRREDUCIBLE

 INPUT LIST - ATOM N.  60 NOT IRREDUCIBLE

 INPUT LIST - ATOM N.  61 NOT IRREDUCIBLE

 INPUT LIST - ATOM N.  62 NOT IRREDUCIBLE

 COORDINATES OF THE EQUIVALENT ATOMS (FRACTIONAL UNITS)

 N. ATOM EQUIV AT. N.          X                  Y                  Z

   1   1   1    1 H     2.60450000000E-01 -1.39910000000E-01  3.09660000000E-01
   2   1   2    1 H    -4.49570000000E-01 -4.92100000000E-02 -3.09660000000E-01
   3   1   3    1 H     1.39910000000E-01  4.49570000000E-01  4.00360000000E-01
   4   1   4    1 H     4.92100000000E-02 -2.60450000000E-01 -4.00360000000E-01








   5   9   1    6 C     2.08540000000E-01 -3.52160000000E-01  9.78000000000E-02
   6   9   2    6 C    -4.49960000000E-01  1.10740000000E-01 -9.78000000000E-02
   7   9   3    6 C     3.52160000000E-01  4.49960000000E-01 -4.39300000000E-01
   8   9   4    6 C    -1.10740000000E-01 -2.08540000000E-01  4.39300000000E-01

   9  10   1    6 C     3.26730000000E-01 -3.77320000000E-01  2.05310000000E-01
  10  10   2    6 C     4.17370000000E-01  1.21420000000E-01 -2.05310000000E-01
  11  10   3    6 C     3.77320000000E-01 -4.17370000000E-01 -2.95950000000E-01
  12  10   4    6 C    -1.21420000000E-01 -3.26730000000E-01  2.95950000000E-01

  13  11   1    6 C     1.13680000000E-01 -4.45450000000E-01 -7.62300000000E-02
  14  11   2    6 C    -3.69220000000E-01  1.89910000000E-01  7.62300000000E-02
  15  11   3    6 C     4.45450000000E-01  3.69220000000E-01 -4.40870000000E-01
  16  11   4    6 C    -1.89910000000E-01 -1.13680000000E-01  4.40870000000E-01

  17  12   1    6 C    -2.64800000000E-02 -2.86510000000E-01 -6.52700000000E-02
  18  12   2    6 C    -2.21240000000E-01  3.87900000000E-02  6.52700000000E-02
  19  12   3    6 C     2.86510000000E-01  2.21240000000E-01  2.60030000000E-01
  20  12   4    6 C    -3.87900000000E-02  2.64800000000E-02 -2.60030000000E-01

  21  13   1    6 C     1.81790000000E-01 -2.24390000000E-01  1.76620000000E-01
  22  13   2    6 C    -4.01010000000E-01  5.17000000000E-03 -1.76620000000E-01
  23  13   3    6 C     2.24390000000E-01  4.01010000000E-01  4.06180000000E-01
  24  13   4    6 C    -5.17000000000E-03 -1.81790000000E-01 -4.06180000000E-01

  25  14   1    6 C    -2.51700000000E-01  1.54680000000E-01  1.57940000000E-01
  26  14   2    6 C    -3.26000000000E-03 -4.09640000000E-01 -1.57940000000E-01
  27  14   3    6 C    -1.54680000000E-01  3.26000000000E-03 -4.06380000000E-01
  28  14   4    6 C     4.09640000000E-01  2.51700000000E-01  4.06380000000E-01




 NUMBER OF SYMMETRY OPERATORS         :    4
 *******************************************************************************
 * GEOMETRY EDITING - INPUT COORDINATES ARE GIVEN IN ANGSTROM         
 *******************************************************************************

 GEOMETRY NOW FULLY CONSISTENT WITH THE GROUP
 *******************************************************************************
 *  GEOMETRY EDITING
 *  THE SYMMETRY OF THE CRYSTAL IS KEPT AND APPLIED TO THE PERTURBATION
 *******************************************************************************
 INFORMATION **** NEW DEFAULT **** FINALRUN 4 FOR GEOMETRY OPTIMIZATIONS
 INFORMATION **** NEW DEFAULT **** OPTGEOM OPTIMIZES BOTH ATOMIC COORDINATES AND CELL PARAMETERS
 INFORMATION **** NEW DEFAULT **** TOL. ON ATOMIC DISP TO REDEFINE REF. GEOMETRY: 0.8 Angs
 INFORMATION **** NEW DEFAULT **** N POINTS TO REDEFINE REF. GEOMETRY: N OF OPT DEGS OF FREEDOM
 INFORMATION **** NEW DEFAULT **** TOL. ON ENERGY TO REDEFINE REF. GEOMETRY: 10**-3*(5*N. ATOMS)

 IMPORTANT INFORMATION:
 THE COORDINATE SYSTEM ADOPTED IN THE OPTIMIZATION IS NOT IN
 GENERAL HOMOGENEOUS UNITS. FOR THIS REASON THE GRADIENT AND 
 HESSIAN MATRIX IN TERMS OF THIS SYSTEM ARE GIVEN WITHOUT
 UNITS. FOR MORE DETAILS SEE THE MANUAL.

 *******************************************************************************
 COMBINED CELL/ATOM OPTIMIZATION CONTROL

 INITIAL TRUST RADIUS         0.50000 MAXIMUM TRUST RADIUS               4.00000
 MAXIMUM GRADIENT COMPONENT   0.00045 MAXIMUM DISPLACEMENT COMPONENT     0.00180
 R.M.S. OF GRADIENT COMPONENT 0.00030 R.M.S. OF DISPLACEMENT COMPONENTS  0.00120
 THRESHOLD ON ENERGY CHANGE 0.100E-06 EXTRAPOLATING POLYNOMIAL ORDER           2
 MAXIMUM ALLOWED NUMBER OF STEPS   -1 SORTING OF ENERGY POINTS:               NO
 ANALYTICAL  GRADIENT                 HESSIAN UPDATING                      BFGS
 STEP SIZE NUMERICAL GRADIENT 0.00100
 INITIAL HESSIAN MATRIX: SCHLEGEL MODEL 2
 *******************************************************************************


 GCALCO - MAX INDICES DIRECT LATTICE VECTOR    14    14    15
 NO.OF VECTORS CREATED 6999 STARS  488 RMAX   208.70432 BOHR

 GEOMETRY FOR WAVE FUNCTION - DIMENSIONALITY OF THE SYSTEM    3
 (NON PERIODIC DIRECTION: LATTICE PARAMETER FORMALLY SET TO 500)
 *******************************************************************************
 LATTICE PARAMETERS (ANGSTROMS AND DEGREES) - BOHR = 0.5291772083 ANGSTROM
 PRIMITIVE CELL - CENTRING CODE 6/0 VOLUME=   809.224610 - DENSITY  3.380 g/cm^3
         A              B              C           ALPHA      BETA       GAMMA 
    10.18327613    10.18327613    10.18327613   111.754356 111.754356 104.995542
 *******************************************************************************
 ATOMS IN THE ASYMMETRIC UNIT   17 - ATOMS IN THE UNIT CELL:   62
     ATOM                 X/A                 Y/B                 Z/C    
 *******************************************************************************
      1 T   1 H     2.604500000000E-01 -1.399100000000E-01  3.096600000000E-01
      2 F   1 H    -4.495700000000E-01 -4.921000000000E-02 -3.096600000000E-01
      3 F   1 H     1.399100000000E-01  4.495700000000E-01  4.003600000000E-01
      4 F   1 H     4.921000000000E-02 -2.604500000000E-01 -4.003600000000E-01
      5 T   6 C     2.085400000000E-01 -3.521600000000E-01  9.780000000000E-02
      6 F   6 C    -4.499600000000E-01  1.107400000000E-01 -9.780000000000E-02
      7 F   6 C     3.521600000000E-01  4.499600000000E-01 -4.393000000000E-01
      8 F   6 C    -1.107400000000E-01 -2.085400000000E-01  4.393000000000E-01
      9 T   6 C     3.267300000000E-01 -3.773200000000E-01  2.053100000000E-01
     10 F   6 C     4.173700000000E-01  1.214200000000E-01 -2.053100000000E-01
     11 F   6 C     3.773200000000E-01 -4.173700000000E-01 -2.959500000000E-01
     12 F   6 C    -1.214200000000E-01 -3.267300000000E-01  2.959500000000E-01
     13 T   6 C     1.136800000000E-01 -4.454500000000E-01 -7.623000000000E-02
     14 F   6 C    -3.692200000000E-01  1.899100000000E-01  7.623000000000E-02
     15 F   6 C     4.454500000000E-01  3.692200000000E-01 -4.408700000000E-01
     16 F   6 C    -1.899100000000E-01 -1.136800000000E-01  4.408700000000E-01
     17 T   6 C    -2.648000000000E-02 -2.865100000000E-01 -6.527000000000E-02
     18 F   6 C    -2.212400000000E-01  3.879000000000E-02  6.527000000000E-02
     19 F   6 C     2.865100000000E-01  2.212400000000E-01  2.600300000000E-01
     20 F   6 C    -3.879000000000E-02  2.648000000000E-02 -2.600300000000E-01
     21 T   6 C     1.817900000000E-01 -2.243900000000E-01  1.766200000000E-01
     22 F   6 C    -4.010100000000E-01  5.170000000000E-03 -1.766200000000E-01
     23 F   6 C     2.243900000000E-01  4.010100000000E-01  4.061800000000E-01
     24 F   6 C    -5.170000000000E-03 -1.817900000000E-01 -4.061800000000E-01
     25 T   6 C    -2.517000000000E-01  1.546800000000E-01  1.579400000000E-01
     26 F   6 C    -3.259999999999E-03 -4.096400000000E-01 -1.579400000000E-01
     27 F   6 C    -1.546800000000E-01  3.259999999999E-03 -4.063800000000E-01
     28 F   6 C     4.096400000000E-01  2.517000000000E-01  4.063800000000E-01
     29 T   7 N     3.631500000000E-01 -3.238900000000E-01  3.654000000000E-01
     30 F   7 N     3.107100000000E-01 -2.250000000000E-03 -3.654000000000E-01
     31 F   7 N     3.238900000000E-01 -3.107100000000E-01 -3.129600000000E-01
     32 F   7 N     2.250000000000E-03 -3.631500000000E-01  3.129600000000E-01
     33 T   7 N     4.877200000000E-01 -3.526300000000E-01  4.379100000000E-01
     34 F   7 N     2.094600000000E-01  4.981000000000E-02 -4.379100000000E-01
     35 F   7 N     3.526300000000E-01 -2.094600000000E-01 -1.596500000000E-01
     36 F   7 N    -4.981000000000E-02 -4.877200000000E-01  1.596500000000E-01
     37 T   7 N     4.227700000000E-01 -4.407900000000E-01  1.775600000000E-01
     38 F   7 N     3.816500000000E-01  2.452100000000E-01 -1.775600000000E-01
     39 F   7 N     4.407900000000E-01 -3.816500000000E-01 -1.364400000000E-01
     40 F   7 N    -2.452100000000E-01 -4.227700000000E-01  1.364400000000E-01
     41 T   7 N    -4.777100000000E-01 -4.226800000000E-01  3.265700000000E-01
     42 F   7 N     2.507500000000E-01  1.957200000000E-01 -3.265700000000E-01
     43 F   7 N     4.226800000000E-01 -2.507500000000E-01 -5.503000000000E-02
     44 F   7 N    -1.957200000000E-01  4.777100000000E-01  5.503000000000E-02
     45 T   7 N     6.571000000000E-02 -1.955400000000E-01  9.863000000000E-02
     46 F   7 N    -2.941700000000E-01 -3.292000000000E-02 -9.863000000000E-02
     47 F   7 N     1.955400000000E-01  2.941700000000E-01  2.612500000000E-01
     48 F   7 N     3.292000000000E-02 -6.571000000000E-02 -2.612500000000E-01
     49 T  35 BR    1.385800000000E-01  4.012700000000E-01 -1.933900000000E-01
     50 F  35 BR   -4.053400000000E-01  3.319700000000E-01  1.933900000000E-01
     51 F  35 BR   -4.012700000000E-01  4.053400000000E-01 -2.626900000000E-01
     52 F  35 BR   -3.319700000000E-01 -1.385800000000E-01  2.626900000000E-01
     53 T  35 BR   -1.172100000000E-01  4.901000000000E-01 -3.685100000000E-01
     54 F  35 BR   -1.413900000000E-01  2.513000000000E-01  3.685100000000E-01
     55 F  35 BR   -4.901000000000E-01  1.413900000000E-01  3.926900000000E-01
     56 F  35 BR   -2.513000000000E-01  1.172100000000E-01 -3.926900000000E-01
     57 T  35 BR   -1.755100000000E-01 -2.506200000000E-01 -1.706900000000E-01
     58 F  35 BR   -7.993000000000E-02 -4.820000000000E-03  1.706900000000E-01
     59 F  35 BR    2.506200000000E-01  7.993000000000E-02  7.511000000000E-02
     60 F  35 BR    4.820000000000E-03  1.755100000000E-01 -7.511000000000E-02
     61 T  30 ZN    2.500000000000E-01 -2.500000000000E-01  5.000000000000E-01
     62 T  30 ZN    5.000000000000E-01  5.000000000000E-01  0.000000000000E+00

 TRANSFORMATION MATRIX PRIMITIVE-CRYSTALLOGRAPHIC CELL
  0.0000  1.0000  1.0000  1.0000  0.0000  1.0000  1.0000  1.0000  0.0000

 *******************************************************************************
 CRYSTALLOGRAPHIC CELL (VOLUME=       1618.44921938)
         A              B              C           ALPHA      BETA       GAMMA 
    11.42500000    11.42500000    12.39900000    90.000000  90.000000  90.000000

 COORDINATES IN THE CRYSTALLOGRAPHIC CELL
     ATOM                 X/A                 Y/B                 Z/C    
 *******************************************************************************
      1 T   1 H    -4.535000000000E-02  3.550100000000E-01 -9.456000000000E-02
      2 F   1 H     4.535000000000E-02 -3.550100000000E-01 -9.456000000000E-02
      3 F   1 H     3.550100000000E-01  4.535000000000E-02  9.456000000000E-02
      4 F   1 H    -3.550100000000E-01 -4.535000000000E-02  9.456000000000E-02
      5 T   6 C    -2.314500000000E-01  3.292500000000E-01 -1.207100000000E-01
      6 F   6 C     2.314500000000E-01 -3.292500000000E-01 -1.207100000000E-01
      7 F   6 C     3.292500000000E-01  2.314500000000E-01  1.207100000000E-01
      8 F   6 C    -3.292500000000E-01 -2.314500000000E-01  1.207100000000E-01
      9 T   6 C     2.506300000000E-01 -4.532000000000E-02  3.720500000000E-01
     10 F   6 C    -2.506300000000E-01  4.532000000000E-02  3.720500000000E-01
     11 F   6 C    -4.532000000000E-02 -2.506300000000E-01 -3.720500000000E-01
     12 F   6 C     4.532000000000E-02  2.506300000000E-01 -3.720500000000E-01
     13 T   6 C    -3.176800000000E-01  2.414500000000E-01 -1.277700000000E-01
     14 F   6 C     3.176800000000E-01 -2.414500000000E-01 -1.277700000000E-01
     15 F   6 C     2.414500000000E-01  3.176800000000E-01  1.277700000000E-01
     16 F   6 C    -2.414500000000E-01 -3.176800000000E-01  1.277700000000E-01
     17 T   6 C    -1.626500000000E-01  9.738000000000E-02 -1.238600000000E-01
     18 F   6 C     1.626500000000E-01 -9.738000000000E-02 -1.238600000000E-01
     19 F   6 C     9.738000000000E-02  1.626500000000E-01  1.238600000000E-01
     20 F   6 C    -9.738000000000E-02 -1.626500000000E-01  1.238600000000E-01
     21 T   6 C    -1.147800000000E-01  2.914000000000E-01 -1.096100000000E-01
     22 F   6 C     1.147800000000E-01 -2.914000000000E-01 -1.096100000000E-01
     23 F   6 C     2.914000000000E-01  1.147800000000E-01  1.096100000000E-01
     24 F   6 C    -2.914000000000E-01 -1.147800000000E-01  1.096100000000E-01
     25 T   6 C     2.821600000000E-01 -1.242200000000E-01 -1.274800000000E-01
     26 F   6 C    -2.821600000000E-01  1.242200000000E-01 -1.274800000000E-01
     27 F   6 C    -1.242200000000E-01 -2.821600000000E-01  1.274800000000E-01
     28 F   6 C     1.242200000000E-01  2.821600000000E-01  1.274800000000E-01
     29 T   7 N     3.391800000000E-01  2.622000000000E-02  3.369300000000E-01
     30 F   7 N    -3.391800000000E-01 -2.622000000000E-02  3.369300000000E-01
     31 F   7 N     2.622000000000E-02 -3.391800000000E-01 -3.369300000000E-01
     32 F   7 N    -2.622000000000E-02  3.391800000000E-01 -3.369300000000E-01
     33 T   7 N    -2.012200000000E-01 -3.608700000000E-01 -1.514100000000E-01
     34 F   7 N     2.012200000000E-01  3.608700000000E-01 -1.514100000000E-01
     35 F   7 N    -3.608700000000E-01  2.012200000000E-01  1.514100000000E-01
     36 F   7 N     3.608700000000E-01 -2.012200000000E-01  1.514100000000E-01
     37 T   7 N     1.570000000000E-01  2.056000000000E-02  4.022100000000E-01
     38 F   7 N    -1.570000000000E-01 -2.056000000000E-02  4.022100000000E-01
     39 F   7 N     2.056000000000E-02 -1.570000000000E-01 -4.022100000000E-01
     40 F   7 N    -2.056000000000E-02  1.570000000000E-01 -4.022100000000E-01
     41 T   7 N     1.908000000000E-01  1.357700000000E-01  3.865200000000E-01
     42 F   7 N    -1.908000000000E-01 -1.357700000000E-01  3.865200000000E-01
     43 F   7 N     1.357700000000E-01 -1.908000000000E-01 -3.865200000000E-01
     44 F   7 N    -1.357700000000E-01  1.908000000000E-01 -3.865200000000E-01
     45 T   7 N    -8.131000000000E-02  1.799400000000E-01 -1.142300000000E-01
     46 F   7 N     8.131000000000E-02 -1.799400000000E-01 -1.142300000000E-01
     47 F   7 N     1.799400000000E-01  8.131000000000E-02  1.142300000000E-01
     48 F   7 N    -1.799400000000E-01 -8.131000000000E-02  1.142300000000E-01
     49 T  35 BR    3.465000000000E-02 -2.280400000000E-01  3.666200000000E-01
     50 F  35 BR   -3.465000000000E-02  2.280400000000E-01  3.666200000000E-01
     51 F  35 BR   -2.280400000000E-01 -3.465000000000E-02 -3.666200000000E-01
     52 F  35 BR    2.280400000000E-01  3.465000000000E-02 -3.666200000000E-01
     53 T  35 BR   -3.806000000000E-01  1.209000000000E-02 -1.293000000000E-01
     54 F  35 BR    3.806000000000E-01 -1.209000000000E-02 -1.293000000000E-01
     55 F  35 BR    1.209000000000E-02  3.806000000000E-01  1.293000000000E-01
     56 F  35 BR   -1.209000000000E-02 -3.806000000000E-01  1.293000000000E-01
     57 T  35 BR   -1.229000000000E-01 -4.779000000000E-02 -1.277200000000E-01
     58 F  35 BR    1.229000000000E-01  4.779000000000E-02 -1.277200000000E-01
     59 F  35 BR   -4.779000000000E-02  1.229000000000E-01  1.277200000000E-01
     60 F  35 BR    4.779000000000E-02 -1.229000000000E-01  1.277200000000E-01
     61 T  30 ZN    5.000000000000E-01  1.234145584094E-16  2.500000000000E-01
     62 T  30 ZN    0.000000000000E+00  0.000000000000E+00  5.000000000000E-01

 T = ATOM BELONGING TO THE ASYMMETRIC UNIT

 ****    4 SYMMOPS - TRANSLATORS IN FRACTIONAL UNITS
 **** MATRICES AND TRANSLATORS IN THE CRYSTALLOGRAPHIC REFERENCE FRAME
   V INV                    ROTATION MATRICES                   TRANSLATORS
   1   1  1.00  0.00  0.00  0.00  1.00  0.00  0.00  0.00  1.00  0.00  0.00  0.00
   2   2  0.00  1.00 -1.00  1.00  0.00 -1.00  0.00  0.00 -1.00  0.00  0.00  0.00
   3   4 -0.00 -1.00  0.00  0.00 -1.00  1.00  1.00 -1.00  0.00  0.00  0.00  0.00
   4   3 -1.00 -0.00  1.00 -1.00  0.00  0.00 -1.00  1.00  0.00  0.00  0.00  0.00

 DIRECT LATTICE VECTORS CARTESIAN COMPONENTS (ANGSTROM)
          X                    Y                    Z
  -0.571250000000E+01   0.571250000000E+01   0.619950000000E+01
   0.571250000000E+01  -0.571250000000E+01   0.619950000000E+01
   0.571250000000E+01   0.571250000000E+01  -0.619950000000E+01


 CARTESIAN COORDINATES - PRIMITIVE CELL
 *******************************************************************************
 *      ATOM          X(ANGSTROM)         Y(ANGSTROM)         Z(ANGSTROM)
 *******************************************************************************
    1     1 H    -5.181237500000E-01  4.055989250000E+00 -1.172449440000E+00
    2     1 H     5.181237500000E-01 -4.055989250000E+00 -1.172449440000E+00
    3     1 H     4.055989250000E+00  5.181237500000E-01  1.172449440000E+00
    4     1 H    -4.055989250000E+00 -5.181237500000E-01  1.172449440000E+00
    5     6 C    -2.644316250000E+00  3.761681250000E+00 -1.496683290000E+00
    6     6 C     2.644316250000E+00 -3.761681250000E+00 -1.496683290000E+00
    7     6 C     3.761681250000E+00  2.644316250000E+00  1.496683290000E+00
    8     6 C    -3.761681250000E+00 -2.644316250000E+00  1.496683290000E+00
    9     6 C     2.863447750000E+00 -5.177810000000E-01  4.613047950000E+00
   10     6 C    -2.863447750000E+00  5.177810000000E-01  4.613047950000E+00
   11     6 C    -5.177810000000E-01 -2.863447750000E+00 -4.613047950000E+00
   12     6 C     5.177810000000E-01  2.863447750000E+00 -4.613047950000E+00
   13     6 C    -3.629494000000E+00  2.758566250000E+00 -1.584220230000E+00
   14     6 C     3.629494000000E+00 -2.758566250000E+00 -1.584220230000E+00
   15     6 C     2.758566250000E+00  3.629494000000E+00  1.584220230000E+00
   16     6 C    -2.758566250000E+00 -3.629494000000E+00  1.584220230000E+00
   17     6 C    -1.858276250000E+00  1.112566500000E+00 -1.535740140000E+00
   18     6 C     1.858276250000E+00 -1.112566500000E+00 -1.535740140000E+00
   19     6 C     1.112566500000E+00  1.858276250000E+00  1.535740140000E+00
   20     6 C    -1.112566500000E+00 -1.858276250000E+00  1.535740140000E+00
   21     6 C    -1.311361500000E+00  3.329245000000E+00 -1.359054390000E+00
   22     6 C     1.311361500000E+00 -3.329245000000E+00 -1.359054390000E+00
   23     6 C     3.329245000000E+00  1.311361500000E+00  1.359054390000E+00
   24     6 C    -3.329245000000E+00 -1.311361500000E+00  1.359054390000E+00
   25     6 C     3.223678000000E+00 -1.419213500000E+00 -1.580624520000E+00
   26     6 C    -3.223678000000E+00  1.419213500000E+00 -1.580624520000E+00
   27     6 C    -1.419213500000E+00 -3.223678000000E+00  1.580624520000E+00
   28     6 C     1.419213500000E+00  3.223678000000E+00  1.580624520000E+00
   29     7 N     3.875131500000E+00  2.995635000000E-01  4.177595070000E+00
   30     7 N    -3.875131500000E+00 -2.995635000000E-01  4.177595070000E+00
   31     7 N     2.995635000000E-01 -3.875131500000E+00 -4.177595070000E+00
   32     7 N    -2.995635000000E-01  3.875131500000E+00 -4.177595070000E+00
   33     7 N    -2.298938500000E+00 -4.122939750000E+00 -1.877332590000E+00
   34     7 N     2.298938500000E+00  4.122939750000E+00 -1.877332590000E+00
   35     7 N    -4.122939750000E+00  2.298938500000E+00  1.877332590000E+00
   36     7 N     4.122939750000E+00 -2.298938500000E+00  1.877332590000E+00
   37     7 N     1.793725000000E+00  2.348980000000E-01  4.987001790000E+00
   38     7 N    -1.793725000000E+00 -2.348980000000E-01  4.987001790000E+00
   39     7 N     2.348980000000E-01 -1.793725000000E+00 -4.987001790000E+00
   40     7 N    -2.348980000000E-01  1.793725000000E+00 -4.987001790000E+00
   41     7 N     2.179890000000E+00  1.551172250000E+00  4.792461480000E+00
   42     7 N    -2.179890000000E+00 -1.551172250000E+00  4.792461480000E+00
   43     7 N     1.551172250000E+00 -2.179890000000E+00 -4.792461480000E+00
   44     7 N    -1.551172250000E+00  2.179890000000E+00 -4.792461480000E+00
   45     7 N    -9.289667500000E-01  2.055814500000E+00 -1.416337770000E+00
   46     7 N     9.289667500000E-01 -2.055814500000E+00 -1.416337770000E+00
   47     7 N     2.055814500000E+00  9.289667500000E-01  1.416337770000E+00
   48     7 N    -2.055814500000E+00 -9.289667500000E-01  1.416337770000E+00
   49    35 BR    3.958762500000E-01 -2.605357000000E+00  4.545721380000E+00
   50    35 BR   -3.958762500000E-01  2.605357000000E+00  4.545721380000E+00
   51    35 BR   -2.605357000000E+00 -3.958762500000E-01 -4.545721380000E+00
   52    35 BR    2.605357000000E+00  3.958762500000E-01 -4.545721380000E+00
   53    35 BR   -4.348355000000E+00  1.381282500000E-01 -1.603190700000E+00
   54    35 BR    4.348355000000E+00 -1.381282500000E-01 -1.603190700000E+00
   55    35 BR    1.381282500000E-01  4.348355000000E+00  1.603190700000E+00
   56    35 BR   -1.381282500000E-01 -4.348355000000E+00  1.603190700000E+00
   57    35 BR   -1.404132500000E+00 -5.460007500000E-01 -1.583600280000E+00
   58    35 BR    1.404132500000E+00  5.460007500000E-01 -1.583600280000E+00
   59    35 BR   -5.460007500000E-01  1.404132500000E+00  1.583600280000E+00
   60    35 BR    5.460007500000E-01 -1.404132500000E+00  1.583600280000E+00
   61    30 ZN    5.712500000000E+00  1.410011329828E-15 -9.299250000000E+00
   62    30 ZN    0.000000000000E+00  0.000000000000E+00  6.199500000000E+00

 *******************************************************************************
 STARTING BASIS SET HANDLING 
 *******************************************************************************

 Loading internal basis set: POB-DZVPP           

 Please cite in your publication:
 Peintinger, M. F., Oliveira, D. V. and Bredow, T. (2013), Generally applicable 
 solid-state Gaussian basis sets, in preparation                                
                                                                                
                    

 *******************************************************************************
 LOCAL ATOMIC FUNCTIONS BASIS SET
 *******************************************************************************
   ATOM   X(AU)   Y(AU)   Z(AU)  N. TYPE  EXPONENT  S COEF   P COEF   D/F/G COEF
 *******************************************************************************
   1 H   -0.979   7.665  -2.216
                                  1 S  
                                         2.263E+01 1.441E-02 0.000E+00 0.000E+00
                                         3.236E+00 1.072E-01 0.000E+00 0.000E+00
                                         7.304E-01 3.846E-01 0.000E+00 0.000E+00
                                  2 S  
                                         1.417E-01 1.000E+00 0.000E+00 0.000E+00
                           3-     5 P  
                                         3.944E-01 0.000E+00 1.000E+00 0.000E+00
                           6-     8 P  
                                         1.006E-01 0.000E+00 1.000E+00 0.000E+00
   2 H    0.979  -7.665  -2.216
   3 H    7.665   0.979   2.216
   4 H   -7.665  -0.979   2.216
   5 C   -4.997   7.109  -2.828
                                 33 S  
                                         1.238E+03 5.457E-03 0.000E+00 0.000E+00
                                         1.863E+02 4.064E-02 0.000E+00 0.000E+00
                                         4.225E+01 1.803E-01 0.000E+00 0.000E+00
                                         1.168E+01 4.632E-01 0.000E+00 0.000E+00
                                         3.593E+00 4.409E-01 0.000E+00 0.000E+00
                                 34 S  
                                         5.281E+00 1.000E+00 0.000E+00 0.000E+00
                                 35 S  
                                         4.447E-01 1.000E+00 0.000E+00 0.000E+00
                          36-    38 P  
                                         9.468E+00 0.000E+00 3.839E-02 0.000E+00
                                         2.010E+00 0.000E+00 2.112E-01 0.000E+00
                                         5.477E-01 0.000E+00 5.133E-01 0.000E+00
                          39-    41 P  
                                         1.604E-01 0.000E+00 1.000E+00 0.000E+00
                          42-    46 D  
                                         6.070E-01 0.000E+00 0.000E+00 1.000E+00
                          47-    51 D  
                                         2.939E-01 0.000E+00 0.000E+00 1.000E+00
   6 C    4.997  -7.109  -2.828
   7 C    7.109   4.997   2.828
   8 C   -7.109  -4.997   2.828
   9 C    5.411  -0.978   8.717
  10 C   -5.411   0.978   8.717
  11 C   -0.978  -5.411  -8.717
  12 C    0.978   5.411  -8.717
  13 C   -6.859   5.213  -2.994
  14 C    6.859  -5.213  -2.994
  15 C    5.213   6.859   2.994
  16 C   -5.213  -6.859   2.994
  17 C   -3.512   2.102  -2.902
  18 C    3.512  -2.102  -2.902
  19 C    2.102   3.512   2.902
  20 C   -2.102  -3.512   2.902
  21 C   -2.478   6.291  -2.568
  22 C    2.478  -6.291  -2.568
  23 C    6.291   2.478   2.568
  24 C   -6.291  -2.478   2.568
  25 C    6.092  -2.682  -2.987
  26 C   -6.092   2.682  -2.987
  27 C   -2.682  -6.092   2.987
  28 C    2.682   6.092   2.987
  29 N    7.323   0.566   7.895
                                489 S  
                                         1.713E+03-5.393E-03 0.000E+00 0.000E+00
                                         2.576E+02-4.022E-02 0.000E+00 0.000E+00
                                         5.846E+01-1.793E-01 0.000E+00 0.000E+00
                                         1.620E+01-4.638E-01 0.000E+00 0.000E+00
                                         5.005E+00-4.417E-01 0.000E+00 0.000E+00
                                490 S  
                                         6.217E-01 1.000E+00 0.000E+00 0.000E+00
                                491 S  
                                         2.921E-01 1.000E+00 0.000E+00 0.000E+00
                         492-   494 P  
                                         1.357E+01 0.000E+00-4.007E-02 0.000E+00
                                         2.926E+00 0.000E+00-2.181E-01 0.000E+00
                                         7.993E-01 0.000E+00-5.129E-01 0.000E+00
                         495-   497 P  
                                         2.244E-01 0.000E+00 1.000E+00 0.000E+00
                         498-   502 D  
                                         3.118E-01 0.000E+00 0.000E+00 1.000E+00
  30 N   -7.323  -0.566   7.895
  31 N    0.566  -7.323  -7.895
  32 N   -0.566   7.323  -7.895
  33 N   -4.344  -7.791  -3.548
  34 N    4.344   7.791  -3.548
  35 N   -7.791   4.344   3.548
  36 N    7.791  -4.344   3.548
  37 N    3.390   0.444   9.424
  38 N   -3.390  -0.444   9.424
  39 N    0.444  -3.390  -9.424
  40 N   -0.444   3.390  -9.424
  41 N    4.119   2.931   9.056
  42 N   -4.119  -2.931   9.056
  43 N    2.931  -4.119  -9.056
  44 N   -2.931   4.119  -9.056
  45 N   -1.755   3.885  -2.676
  46 N    1.755  -3.885  -2.676
  47 N    3.885   1.755   2.676
  48 N   -3.885  -1.755   2.676
  49 BR   0.748  -4.923   8.590
                                769 S  
                                         1.133E+05 1.428E-03 0.000E+00 0.000E+00
                                         1.701E+04 1.095E-02 0.000E+00 0.000E+00
                                         3.870E+03 5.442E-02 0.000E+00 0.000E+00
                                         1.093E+03 1.905E-01 0.000E+00 0.000E+00
                                         3.564E+02 3.902E-01 0.000E+00 0.000E+00
                                         1.231E+02 3.081E-01 0.000E+00 0.000E+00
                                770 S  
                                         2.367E+02-1.123E-01 0.000E+00 0.000E+00
                                         2.847E+01 6.478E-01 0.000E+00 0.000E+00
                                         1.188E+01 4.424E-01 0.000E+00 0.000E+00
                                771 S  
                                         2.127E+01-2.264E-01 0.000E+00 0.000E+00
                                         3.613E+00 7.382E-01 0.000E+00 0.000E+00
                                         1.663E+00 4.268E-01 0.000E+00 0.000E+00
                                772 S  
                                         3.641E-01 1.000E+00 0.000E+00 0.000E+00
                                773 S  
                                         1.243E-01 1.000E+00 0.000E+00 0.000E+00
                         774-   776 P  
                                         1.560E+03 0.000E+00 8.717E-03 0.000E+00
                                         3.685E+02 0.000E+00 6.624E-02 0.000E+00
                                         1.172E+02 0.000E+00 2.650E-01 0.000E+00
                                         4.265E+01 0.000E+00 5.384E-01 0.000E+00
                                         1.609E+01 0.000E+00 3.658E-01 0.000E+00
                         777-   779 P  
                                         8.635E+00 0.000E+00 3.425E-01 0.000E+00
                                         3.561E+00 0.000E+00 5.750E-01 0.000E+00
                                         1.529E+00 0.000E+00 2.433E-01 0.000E+00
                         780-   782 P  
                                         6.447E-01 0.000E+00 1.000E+00 0.000E+00
                         783-   785 P  
                                         2.103E-01 0.000E+00 1.000E+00 0.000E+00
                         786-   790 D  
                                         1.049E+02 0.000E+00 0.000E+00 2.265E-02
                                         3.028E+01 0.000E+00 0.000E+00 1.346E-01
                                         1.065E+01 0.000E+00 0.000E+00 3.647E-01
                                         3.870E+00 0.000E+00 0.000E+00 4.904E-01
                         791-   795 D  
                                         1.342E+00 0.000E+00 0.000E+00 1.000E+00
                         796-   800 D  
                                         4.101E-01 0.000E+00 0.000E+00 1.000E+00
                         801-   805 D  
                                         1.985E-01 0.000E+00 0.000E+00 1.000E+00
  50 BR  -0.748   4.923   8.590
  51 BR  -4.923  -0.748  -8.590
  52 BR   4.923   0.748  -8.590
  53 BR  -8.217   0.261  -3.030
  54 BR   8.217  -0.261  -3.030
  55 BR   0.261   8.217   3.030
  56 BR  -0.261  -8.217   3.030
  57 BR  -2.653  -1.032  -2.993
  58 BR   2.653   1.032  -2.993
  59 BR  -1.032   2.653   2.993
  60 BR   1.032  -2.653   2.993
  61 ZN  10.795   0.000 -17.573
                               1213 S  
                                         8.200E+04 1.421E-03 0.000E+00 0.000E+00
                                         1.231E+04 1.089E-02 0.000E+00 0.000E+00
                                         2.801E+03 5.406E-02 0.000E+00 0.000E+00
                                         7.910E+02 1.885E-01 0.000E+00 0.000E+00
                                         2.576E+02 3.835E-01 0.000E+00 0.000E+00
                                         8.881E+01 2.972E-01 0.000E+00 0.000E+00
                               1214 S  
                                         1.719E+02-1.105E-01 0.000E+00 0.000E+00
                                         2.030E+01 6.461E-01 0.000E+00 0.000E+00
                                         8.346E+00 4.422E-01 0.000E+00 0.000E+00
                               1215 S  
                                         1.485E+01-2.271E-01 0.000E+00 0.000E+00
                                         2.450E+00 7.243E-01 0.000E+00 0.000E+00
                                         9.985E-01 4.484E-01 0.000E+00 0.000E+00
                               1216 S  
                                         1.493E+00 1.000E+00 0.000E+00 0.000E+00
                               1217 S  
                                         1.830E-01 1.000E+00 0.000E+00 0.000E+00
                        1218-  1220 P  
                                         1.072E+03 0.000E+00 9.277E-03 0.000E+00
                                         2.527E+02 0.000E+00 6.954E-02 0.000E+00
                                         8.010E+01 0.000E+00 2.716E-01 0.000E+00
                                         2.890E+01 0.000E+00 5.340E-01 0.000E+00
                                         1.077E+01 0.000E+00 3.450E-01 0.000E+00
                        1221-  1223 P  
                                         5.645E+00 0.000E+00 3.413E-01 0.000E+00
                                         2.168E+00 0.000E+00 5.639E-01 0.000E+00
                                         8.054E-01 0.000E+00 2.368E-01 0.000E+00
                        1224-  1226 P  
                                         2.721E-01 0.000E+00 1.000E+00 0.000E+00
                        1227-  1231 D  
                                         5.609E+01 0.000E+00 0.000E+00 2.959E-02
                                         1.575E+01 0.000E+00 0.000E+00 1.587E-01
                                         5.312E+00 0.000E+00 0.000E+00 3.798E-01
                                         1.774E+00 0.000E+00 0.000E+00 4.690E-01
                        1232-  1236 D  
                                         5.073E-01 0.000E+00 0.000E+00 1.000E+00
                        1237-  1243 F  
                                         2.814E+00 0.000E+00 0.000E+00 1.000E+00
                        1244-  1250 F  
                                         1.300E+00 0.000E+00 0.000E+00 1.000E+00
  62 ZN   0.000   0.000  11.715

 *******************************************************************************
 FINISHED BASIS SET HANDLING 
 *******************************************************************************

 INFORMATION **** SET_MPP **** PCRYSTAL CALCULATION
 INFORMATION **** READM2 **** NEW DEFAULT: FOCK/KS MATRIX MIXING SET TO 30 %
 INFORMATION **** READM2 **** NEW DEFAULT: FULL DIRECT SCF MODE
 INFORMATION **** READM2 **** NEW DEFAULT: COULOMB BIPOLAR BUFFER SET TO 32 Mb
 INFORMATION **** READM2 **** NEW DEFAULT: EXCHANGE BIPOLAR BUFFER SET TO 32 Mb

 *******************************************************************************
 NEW DEFAULT: DFT INTEGRATION GRID INCREASED TO XLGRID
 NEW DEFAULT: DIIS ACCELERATOR ACTIVE
 USE KEYWORD NODIIS TO TURN IT OFF
 *******************************************************************************

 INFORMATION **** DFTD3_INPUT **** PERFORM DISPERSION CORRECTION DFT-D3(BJ) IN THE BECKE-JOHNSON DAMPING SCHEME

 PLEASE CITE:
 (1) DFT-D3 Reference
  S. Grimme, J. Antony, S. Ehrlich, and H. Krieg, J. Chem. Phys. 132 (2010), 154104
 (2) BJ-Damping Reference
  S. Grimme, S. Ehrlich, and L. Goerigk, J. Comput. Chem. 32 (2011), 1456-1465
 (3) General DFT-D Review
  S. Grimme, A. Hansen, J. G. Brandenburg, and C. Bannwarth,
  Chem. Rev. 116 (2016), 5105-5154

 INFORMATION **** BIPOSIZE **** COULOMB BIPOLAR BUFFER SET TO    30000000
 INFORMATION **** EXCHSIZE **** EXCHANGE BIPOLAR BUFFER SIZE SET TO    30000000
 INFORMATION **** TOLINTEG **** COULOMB AND EXCHANGE SERIES TOLERANCES MODIFIED
 INFORMATION **** MAXCYCLE **** MAX NUMBER OF SCF CYCLES SET TO        1000
 *******************************************************************************
 N. OF ATOMS PER CELL        62  COULOMB OVERLAP TOL         (T1) 10**  -12
 NUMBER OF SHELLS           484  COULOMB PENETRATION TOL     (T2) 10**  -12
 NUMBER OF AO              1288  EXCHANGE OVERLAP TOL        (T3) 10**   20
 N. OF ELECTRONS PER CELL   768  EXCHANGE PSEUDO OVP (F(G))  (T4) 10**   20
 CORE ELECTRONS PER CELL    460  EXCHANGE PSEUDO OVP (P(G))  (T5) 10**   20
 N. OF SYMMETRY OPERATORS     4  POLE ORDER IN MONO ZONE                  4
 *******************************************************************************
 TYPE OF CALCULATION :  RESTRICTED CLOSED SHELL
 KOHN-SHAM HAMILTONIAN

 (EXCHANGE)[CORRELATION] FUNCTIONAL:(PERDEW-BURKE-ERNZERHOF)[PERDEW-BURKE-ERNZERHOF]


 CAPPA:IS1  3;IS2  3;IS3  3; K PTS MONK NET   6; SYMMOPS:K SPACE   8;G SPACE   4

 *******************************************************************************
 MAX NUMBER OF SCF CYCLES    1000  CONVERGENCE ON DELTAP        10**-16
 WEIGHT OF F(I) IN F(I+1)      30% CONVERGENCE ON ENERGY        10**- 7
 SHRINK. FACT.(MONKH.)    3  3  3  NUMBER OF K POINTS IN THE IBZ      6
 SHRINKING FACTOR(GILAT NET)    3  NUMBER OF K POINTS(GILAT NET)      6
 *******************************************************************************
 *** K POINTS COORDINATES (OBLIQUE COORDINATES IN UNITS OF IS =  3)
   1-R(  0  0  0)   2-C(  1  0  0)   3-C(  1  1  0)   4-C(  2  1  0)
   5-C(  2  1  1)   6-C(  2  2  1)

 DIRECT LATTICE VECTORS COMPON. (A.U.)     RECIP. LATTICE VECTORS COMPON. (A.U.) 
        X            Y            Z              X            Y            Z
  -10.7950605   10.7950605   11.7153572      0.0000000    0.2910213    0.2681602
   10.7950605  -10.7950605   11.7153572      0.2910213    0.0000000    0.2681602
   10.7950605   10.7950605  -11.7153572      0.2910213    0.2910213    0.0000000

 DISK SPACE FOR EIGENVECTORS (FTN 10)    18248384 REALS

 SYMMETRY ADAPTION OF THE BLOCH FUNCTIONS ENABLED
 TTTTTTTTTTTTTTTTTTTTTTTTTTTTTT gordsh1     TELAPSE        3.02 TCPU        0.06

 MATRIX SIZE: P(G) 2238096, F(G) 1119840, P(G) IRR  282569, F(G) IRR  282569
 MAX G-VECTOR INDEX FOR 1- AND 2-ELECTRON INTEGRALS  59

 TTTTTTTTTTTTTTTTTTTTTTTTTTTTTT INPUT       TELAPSE        3.09 TCPU        0.12

 NEIGHBORS OF THE NON-EQUIVALENT ATOMS

 N = NUMBER OF NEIGHBORS AT DISTANCE R
    ATOM  N     R/ANG      R/AU   NEIGHBORS (ATOM LABELS AND CELL INDICES)
   1 H    1     1.0919     2.0634   21 C    0 0 0
   1 H    1     2.0564     3.8861   45 N    0 0 0
   1 H    1     2.1708     4.1022    5 C    0 0 0
   1 H    1     2.5076     4.7387   29 N    0-1 0
   1 H    1     2.5936     4.9013   61 ZN   1 0 0
   1 H    1     2.6270     4.9644    9 C    0-1 0

   5 C    1     1.4081     2.6609   21 C    0 0 0
   5 C    1     1.4087     2.6621   13 C    0 0 0
   5 C    1     1.4504     2.7408    9 C    0-1 0
   5 C    1     2.1708     4.1022    1 H    0 0 0
   5 C    1     2.4145     4.5628   26 C    0 0 0
   5 C    1     2.4205     4.5741   45 N    0 0 0

   9 C    1     1.3604     2.5708   37 N    0 0 0
   9 C    1     1.3716     2.5919   29 N    0 0 0
   9 C    1     1.4504     2.7408    5 C    0 1 0
   9 C    1     2.1863     4.1316   41 N    0 0 0
   9 C    1     2.1973     4.1523   33 N    1 1 1
   9 C    1     2.4282     4.5886   21 C    0 1 0

  13 C    1     1.3995     2.6446   26 C    0 0 0
  13 C    1     1.4087     2.6621    5 C    0 0 0
  13 C    1     1.7242     3.2582   49 BR   0-1 0
  13 C    1     2.3979     4.5314   21 C    0 0 0
  13 C    1     2.4184     4.5702   17 C    0 0 0
  13 C    1     2.5581     4.8341    9 C    0-1 0

  17 C    1     1.3295     2.5124   45 N    0 0 0
  17 C    1     1.4001     2.6459   26 C    0 0 0
  17 C    1     1.7203     3.2509   57 BR   0 0 0
  17 C    1     2.2900     4.3274   21 C    0 0 0
  17 C    1     2.4184     4.5702   13 C    0 0 0
  17 C    1     2.6748     5.0546   53 BR   0 0 0

  21 C    1     1.0919     2.0634    1 H    0 0 0
  21 C    1     1.3308     2.5149   45 N    0 0 0
  21 C    1     1.4081     2.6609    5 C    0 0 0
  21 C    1     2.2900     4.3274   17 C    0 0 0
  21 C    1     2.3979     4.5314   13 C    0 0 0
  21 C    1     2.4282     4.5886    9 C    0-1 0

  25 C    1     1.3995     2.6446   14 C    0 0 0
  25 C    1     1.4001     2.6459   18 C    0 0 0
  25 C    1     1.7049     3.2217   54 BR   0 0 0
  25 C    1     2.3870     4.5108   46 N    0 0 0
  25 C    1     2.4145     4.5628    6 C    0 0 0
  25 C    1     2.6782     5.0611   58 BR   0 0 0

  29 N    1     1.3716     2.5919    9 C    0 0 0
  29 N    1     1.3777     2.6035   33 N    1 1 1
  29 N    1     2.1511     4.0651   61 ZN   1 1 0
  29 N    1     2.1951     4.1481   41 N    0 0 0
  29 N    1     2.2342     4.2220   37 N    0 0 0
  29 N    1     2.4477     4.6255    5 C    0 1 0

  33 N    1     1.3208     2.4960   41 N   -1-1-1
  33 N    1     1.3777     2.6035   29 N   -1-1-1
  33 N    1     2.1973     4.1523    9 C   -1-1-1
  33 N    1     2.2138     4.1835   37 N   -1-1-1
  33 N    1     2.9047     5.4891    2 H    0 0 0
  33 N    1     2.9773     5.6264   23 C   -1-1-1

  37 N    1     1.3604     2.5708    9 C    0 0 0
  37 N    1     1.3855     2.6182   41 N    0 0 0
  37 N    1     2.1778     4.1154   62 ZN   0 0 0
  37 N    1     2.2138     4.1835   33 N    1 1 1
  37 N    1     2.2342     4.2220   29 N    0 0 0
  37 N    1     2.5460     4.8113    5 C    0 1 0

  41 N    1     1.3208     2.4960   33 N    1 1 1
  41 N    1     1.3855     2.6182   37 N    0 0 0
  41 N    1     2.1863     4.1316    9 C    0 0 0
  41 N    1     2.1951     4.1481   29 N    0 0 0
  41 N    1     2.7941     5.2800   50 BR   0 0 0
  41 N    1     3.0229     5.7124   62 ZN   0 0 0

  45 N    1     1.3295     2.5124   17 C    0 0 0
  45 N    1     1.3308     2.5149   21 C    0 0 0
  45 N    1     2.0564     3.8861    1 H    0 0 0
  45 N    1     2.3870     4.5108   26 C    0 0 0
  45 N    1     2.4205     4.5741    5 C    0 0 0
  45 N    1     2.6501     5.0080   57 BR   0 0 0

  49 BR   1     1.7242     3.2582   13 C    0 1 0
  49 BR   1     2.6898     5.0829   26 C    0 1 0
  49 BR   1     2.7558     5.2077    5 C    0 1 0
  49 BR   1     2.7941     5.2800   42 N    0 0 0
  49 BR   1     2.9833     5.6377   39 N    1 1 0
  49 BR   1     3.1112     5.8793   62 ZN   0 0 0

  53 BR   1     1.7049     3.2217   26 C    0 0 0
  53 BR   1     2.6748     5.0546   17 C    0 0 0
  53 BR   1     2.7173     5.1350   13 C    0 0 0
  53 BR   1     2.7422     5.1821   54 BR   0-1-1
  53 BR   1     2.8671     5.4181    4 H    0 0 0
  53 BR   1     3.0227     5.7121   57 BR   0 0 0

  57 BR   1     1.7203     3.2509   17 C    0 0 0
  57 BR   1     2.6501     5.0080   45 N    0 0 0
  57 BR   1     2.6782     5.0611   26 C    0 0 0
  57 BR   1     2.7840     5.2611   46 N    0 0 0
  57 BR   1     3.0131     5.6939   58 BR   0 0 0
  57 BR   1     3.0227     5.7121   53 BR   0 0 0

  61 ZN   4     2.1511     4.0651   29 N   -1-1 0   30 N   -1 0 1   31 N    0 0 1
                                    32 N   -1 0 0
  61 ZN   4     2.5936     4.9013    1 H   -1 0 0    2 H    0 0 1    3 H   -1-1 0
                                     4 H   -1 0 1
  61 ZN   4     3.0506     5.7648   33 N    0 0 1   34 N   -1 0 0   35 N   -1 0 1
                                    36 N   -1-1 0
  61 ZN   4     3.2295     6.1028   21 C   -1 0 0   22 C    0 0 1   23 C   -1-1 0
                                    24 C   -1 0 1
  61 ZN   4     3.2673     6.1743    9 C   -1-1 0   10 C   -1 0 1   11 C    0 0 1
                                    12 C   -1 0 0
  61 ZN   4     3.6562     6.9092    5 C   -1 0 0    6 C    0 0 1    7 C   -1-1 0
                                     8 C   -1 0 1

  62 ZN   4     2.1778     4.1154   37 N    0 0 0   38 N    0 0 0   39 N    1 1 0
                                    40 N    1 1 0
  62 ZN   4     3.0229     5.7124   41 N    0 0 0   42 N    0 0 0   43 N    1 1 0
                                    44 N    1 1 0
  62 ZN   4     3.1112     5.8793   49 BR   0 0 0   50 BR   0 0 0   51 BR   1 1 0
                                    52 BR   1 1 0
  62 ZN   4     3.3143     6.2630    9 C    0 0 0   10 C    0 0 0   11 C    1 1 0
                                    12 C    1 1 0
  62 ZN   4     3.9319     7.4301    5 C    0 1 0    6 C    1 0 0    7 C    0 0-1
                                     8 C    1 1 1
  62 ZN   4     3.9464     7.4577   13 C    0 1 0   14 C    1 0 0   15 C    0 0-1
                                    16 C    1 1 1


 SYMMETRY ALLOWED ELASTIC DISTORTION 1
  0.5773503  0.0000000  0.0000000
  0.0000000  0.5773503  0.0000000
  0.0000000  0.0000000  0.5773503

 SYMMETRY ALLOWED ELASTIC DISTORTION 2
  0.4082483  0.0000000  0.0000000
  0.0000000  0.4082483  0.0000000
  0.0000000  0.0000000 -0.8164966

 SYMMETRY ALLOWED INTERNAL DEGREE(S) OF FREEDOM:  45
 TTTTTTTTTTTTTTTTTTTTTTTTTTTTTT SYMM        TELAPSE        4.71 TCPU        1.74
 TTTTTTTTTTTTTTTTTTTTTTTTTTTTTT INT_SCREEN  TELAPSE        4.72 TCPU        1.75

 *******************************************************************************
 *                             OPTIMIZATION STARTS                             *
 *******************************************************************************
 RECLASIFICATION OF INDICES FOR INTEGRAL CALC ACCORDING TO DIFFERENT CRITERIA:
           FIXDELTE                  FIXDELTX              FIXDELTN
          0.10000000               0.80000000                 47
 DEFAULT MAX NUM OF POINTS  100
 *******************************************************************************

 *******************************************************************************
 COORDINATE AND CELL OPTIMIZATION - POINT    1
 INFORMATION **** EXCBUF **** EXCH. BIPO BUFFER: WORDS USED =           0

 DFT PARAMETERS

     ATOM       ELECTRONS   NET CHARGE   R(ANGSTROM)
   1   1  H       1.0000      0.0000     1.11000000
   5   6  C       6.0000      0.0000     0.77000000
  29   7  N       7.0000      0.0000     0.74000000
  49  35  BR     35.0000      0.0000     1.14000000
  61  30  ZN     30.0000      0.0000     1.37000000

 SIZE OF GRID=     463988
 TTTTTTTTTTTTTTTTTTTTTTTTTTTTTT MAKE_GRID2  TELAPSE       11.07 TCPU        8.02
 BECKE WEIGHT FUNCTION
 RADSAFE =     2.00
 TOLERANCES - DENSITY:10**- 6; POTENTIAL:10**- 9; GRID WGT:10**-14

 RADIAL INTEGRATION  - INTERVALS (POINTS,UPPER LIMIT):            1( 75,  4.0*R)

 ANGULAR INTEGRATION - INTERVALS (ACCURACY LEVEL [N. POINTS] UPPER LIMIT):
  1(  4[  86]   0.2)  2(  8[ 194]   0.5)  3( 12[ 350]   0.9)  4( 16[ 974]   3.5)
  5( 12[ 350]9999.0)
 TTTTTTTTTTTTTTTTTTTTTTTTTTTTTT INT_CALC    TELAPSE       11.20 TCPU        8.15

 *******************************************************************************
 C:\Users\wilso\AppData\Local\Temp\tmp_p\newconn.mol                             
 CRYSTAL - SCF - TYPE OF CALCULATION :  RESTRICTED CLOSED SHELL
 *******************************************************************************

 CAPPA:IS1  3;IS2  3;IS3  3; K PTS MONK NET   6; SYMMOPS:K SPACE   8;G SPACE   4

 TTTTTTTTTTTTTTTTTTTTTTTTTTTTTT SDIK        TELAPSE       11.45 TCPU        8.40

 AAAAAAAAAAAAAAAAAAAAAAAAAAAAAAAAAAAAAAAAAAAAAAAAAAAAAAAAAAAAAAAAAAAAAAAAAAAAAAA
         ATOMIC WAVEFUNCTION(S)


 NUCLEAR CHARGE  1.0  SYMMETRY SPECIES            S
 N. ELECTRONS    1.0  NUMBER OF PRIMITIVE GTOS    4
                      NUMBER OF CONTRACTED GTOS   2
                      NUMBER OF CLOSED SHELLS     0
                      OPEN SHELL OCCUPATION       1

  ZNUC SCFIT  TOTAL HF ENERGY   KINETIC ENERGY   VIRIAL THEOREM ACCURACY
   1.0   1   -4.946643675E-01  4.917913167E-01 -2.005842012E+00  9.4E-17

 NUCLEAR CHARGE  6.0  SYMMETRY SPECIES            S    P
 N. ELECTRONS    6.0  NUMBER OF PRIMITIVE GTOS    7    4
                      NUMBER OF CONTRACTED GTOS   3    2
                      NUMBER OF CLOSED SHELLS     2    0
                      OPEN SHELL OCCUPATION       0    2

  ZNUC SCFIT  TOTAL HF ENERGY   KINETIC ENERGY   VIRIAL THEOREM ACCURACY
   6.0   6   -3.750912652E+01  3.905246519E+01 -1.960480378E+00  3.7E-06

 NUCLEAR CHARGE  7.0  SYMMETRY SPECIES            S    P
 N. ELECTRONS    7.0  NUMBER OF PRIMITIVE GTOS    7    4
                      NUMBER OF CONTRACTED GTOS   3    2
                      NUMBER OF CLOSED SHELLS     2    0
                      OPEN SHELL OCCUPATION       0    3

  ZNUC SCFIT  TOTAL HF ENERGY   KINETIC ENERGY   VIRIAL THEOREM ACCURACY
   7.0   9   -5.432196661E+01  5.425066284E+01 -2.001314339E+00  1.2E-06

 NUCLEAR CHARGE 35.0  SYMMETRY SPECIES            S    P    D
 N. ELECTRONS   35.0  NUMBER OF PRIMITIVE GTOS   14   10    7
                      NUMBER OF CONTRACTED GTOS   5    4    4
                      NUMBER OF CLOSED SHELLS     4    2    1
                      OPEN SHELL OCCUPATION       0    5    0

  ZNUC SCFIT  TOTAL HF ENERGY   KINETIC ENERGY   VIRIAL THEOREM ACCURACY
  35.0  13   -2.572060514E+03  2.572021521E+03 -2.000015161E+00  3.6E-06

 NUCLEAR CHARGE 30.0  SYMMETRY SPECIES            S    P    D
 N. ELECTRONS   30.0  NUMBER OF PRIMITIVE GTOS   14    9    5
                      NUMBER OF CONTRACTED GTOS   5    3    2
                      NUMBER OF CLOSED SHELLS     4    2    1
                      OPEN SHELL OCCUPATION       0    0    0

  ZNUC SCFIT  TOTAL HF ENERGY   KINETIC ENERGY   VIRIAL THEOREM ACCURACY
  30.0  10   -1.777404290E+03  1.777325716E+03 -2.000044209E+00  2.5E-06

 AAAAAAAAAAAAAAAAAAAAAAAAAAAAAAAAAAAAAAAAAAAAAAAAAAAAAAAAAAAAAAAAAAAAAAAAAAAAAAA

 CHARGE NORMALIZATION FACTOR   1.00000000
 TOTAL ATOMIC CHARGES:
   1.0000000   1.0000000   1.0000000   1.0000000   6.0000000   6.0000000
   6.0000000   6.0000000   6.0000000   6.0000000   6.0000000   6.0000000
   6.0000000   6.0000000   6.0000000   6.0000000   6.0000000   6.0000000
   6.0000000   6.0000000   6.0000000   6.0000000   6.0000000   6.0000000
   6.0000000   6.0000000   6.0000000   6.0000000   7.0000000   7.0000000
   7.0000000   7.0000000   7.0000000   7.0000000   7.0000000   7.0000000
   7.0000000   7.0000000   7.0000000   7.0000000   7.0000000   7.0000000
   7.0000000   7.0000000   7.0000000   7.0000000   7.0000000   7.0000000
  35.0000000  35.0000000  35.0000000  35.0000000  35.0000000  35.0000000
  35.0000000  35.0000000  35.0000000  35.0000000  35.0000000  35.0000000
  30.0000000  30.0000000
 TTTTTTTTTTTTTTTTTTTTTTTTTTTTTT MOQGAD      TELAPSE       12.57 TCPU        9.51
 TTTTTTTTTTTTTTTTTTTTTTTTTTTTTT SHELLXN     TELAPSE       32.60 TCPU       27.13
 TTTTTTTTTTTTTTTTTTTTTTTTTTTTTT MONMO3      TELAPSE       34.82 TCPU       29.34
 NUMERICALLY INTEGRATED DENSITY    768.0002871511
 TTTTTTTTTTTTTTTTTTTTTTTTTTTTTT NUMDFT      TELAPSE       35.34 TCPU       29.85
 CYC   0 ETOT(AU) -3.645401998170E+04 DETOT -3.65E+04 tst  0.00E+00 PX  1.00E+00
 TTTTTTTTTTTTTTTTTTTTTTTTTTTTTT DIIS        TELAPSE       35.40 TCPU       29.91
 TTTTTTTTTTTTTTTTTTTTTTTTTTTTTT FDIK        TELAPSE       53.43 TCPU       47.69
 INSULATING STATE
 TOP OF VALENCE BANDS -    BAND    384; K    4; EIG -1.3548403E-01 AU
 TOP OF VALENCE BANDS -    BAND    384; K    1; EIG -1.3582093E-01 AU
 BOTTOM OF VIRTUAL BANDS - BAND    385; K    6; EIG -9.4478699E-02 AU
 INDIRECT ENERGY BAND GAP:   1.1158 eV
 BOTTOM OF VIRTUAL BANDS - BAND    385; K    1; EIG -9.2898888E-02 AU
 TTTTTTTTTTTTTTTTTTTTTTTTTTTTTT PDIG        TELAPSE       54.33 TCPU       48.58
 CHARGE NORMALIZATION FACTOR   1.00000000
 TOTAL ATOMIC CHARGES:
   1.4149941   1.4149941   1.4149941   1.4149941   6.1612776   6.1612776
   6.1612776   6.1612776   5.4789818   5.4789818   5.4789818   5.4789818
   5.7863777   5.7863777   5.7863777   5.7863777   5.4960057   5.4960057
   5.4960057   5.4960057   5.9340180   5.9340180   5.9340180   5.9340180
   5.9138536   5.9138536   5.9138536   5.9138536   7.4170636   7.4170636
   7.4170636   7.4170636   7.1890623   7.1890623   7.1890623   7.1890623
   7.4423934   7.4423934   7.4423934   7.4423934   7.1440212   7.1440212
   7.1440212   7.1440212   7.5715006   7.5715006   7.5715006   7.5715006
  35.0645845  35.0645845  35.0645845  35.0645845  35.0094025  35.0094025
  35.0094025  35.0094025  35.0438337  35.0438337  35.0438337  35.0438337
  27.7577836  27.9727352
 TTTTTTTTTTTTTTTTTTTTTTTTTTTTTT MOQGAD      TELAPSE       54.34 TCPU       48.59
 TTTTTTTTTTTTTTTTTTTTTTTTTTTTTT SHELLXN     TELAPSE       78.01 TCPU       69.78
 TTTTTTTTTTTTTTTTTTTTTTTTTTTTTT MONMO3      TELAPSE       80.52 TCPU       72.28
 NUMERICALLY INTEGRATED DENSITY    768.0002754797
 TTTTTTTTTTTTTTTTTTTTTTTTTTTTTT NUMDFT      TELAPSE       81.88 TCPU       73.63
 CYC   1 ETOT(AU) -3.644596486809E+04 DETOT  8.06E+00 tst  0.00E+00 PX  1.00E+00
 TTTTTTTTTTTTTTTTTTTTTTTTTTTTTT DIIS        TELAPSE       82.06 TCPU       73.80
 DIIS TEST: 0.94524E+01 AT SCF   CYCLE   1 - MIX   30 %
 TTTTTTTTTTTTTTTTTTTTTTTTTTTTTT FDIK        TELAPSE       89.56 TCPU       80.00
 INSULATING STATE
 TOP OF VALENCE BANDS -    BAND    384; K    6; EIG -1.2247325E-01 AU
 TOP OF VALENCE BANDS -    BAND    384; K    1; EIG -1.2263128E-01 AU
 BOTTOM OF VIRTUAL BANDS - BAND    385; K    1; EIG -1.1426136E-01 AU
 INDIRECT ENERGY BAND GAP:   0.2235 eV
 TTTTTTTTTTTTTTTTTTTTTTTTTTTTTT PDIG        TELAPSE       90.44 TCPU       80.87
 CHARGE NORMALIZATION FACTOR   1.00000000
 TOTAL ATOMIC CHARGES:
   1.4334403   1.4334403   1.4334403   1.4334403   6.1116626   6.1116626
   6.1116626   6.1116626   6.2827031   6.2827031   6.2827031   6.2827031
   6.2611746   6.2611746   6.2611746   6.2611746   6.1865537   6.1865537
   6.1865537   6.1865537   6.2128283   6.2128283   6.2128283   6.2128283
   6.0279883   6.0279883   6.0279883   6.0279883   6.8877462   6.8877462
   6.8877462   6.8877462   6.8968393   6.8968393   6.8968393   6.8968393
   6.9124311   6.9124311   6.9124311   6.9124311   6.9437832   6.9437832
   6.9437832   6.9437832   6.0209027   6.0209027   6.0209027   6.0209027
  35.1419563  35.1419563  35.1419563  35.1419563  34.9903018  34.9903018
  34.9903018  34.9903018  34.8967166  34.8967166  34.8967166  34.8967166
  29.6534620  29.5184266
 TTTTTTTTTTTTTTTTTTTTTTTTTTTTTT MOQGAD      TELAPSE       90.46 TCPU       80.88
 TTTTTTTTTTTTTTTTTTTTTTTTTTTTTT SHELLXN     TELAPSE      111.85 TCPU      102.00
 TTTTTTTTTTTTTTTTTTTTTTTTTTTTTT MONMO3      TELAPSE      114.76 TCPU      104.89
 NUMERICALLY INTEGRATED DENSITY    768.0002896507
 TTTTTTTTTTTTTTTTTTTTTTTTTTTTTT NUMDFT      TELAPSE      116.07 TCPU      106.19
 CYC   2 ETOT(AU) -3.644476050889E+04 DETOT  1.20E+00 tst  4.41E-02 PX  7.81E-01
 TTTTTTTTTTTTTTTTTTTTTTTTTTTTTT DIIS        TELAPSE      116.24 TCPU      106.36
 DIIS TEST: 0.16786E+02 AT SCF   CYCLE   2 - DIIS ACTIVE - HISTORY:     2 CYCLES
 TTTTTTTTTTTTTTTTTTTTTTTTTTTTTT FDIK        TELAPSE      121.85 TCPU      111.78
 INSULATING STATE
 TOP OF VALENCE BANDS -    BAND    384; K    2; EIG -2.0011924E-01 AU
 TOP OF VALENCE BANDS -    BAND    384; K    1; EIG -2.0019707E-01 AU
 BOTTOM OF VIRTUAL BANDS - BAND    385; K    1; EIG -1.1106441E-01 AU
 INDIRECT ENERGY BAND GAP:   2.4233 eV
 TTTTTTTTTTTTTTTTTTTTTTTTTTTTTT PDIG        TELAPSE      122.72 TCPU      112.65
 CHARGE NORMALIZATION FACTOR   1.00000000
 TOTAL ATOMIC CHARGES:
   1.3466082   1.3466082   1.3466082   1.3466082   5.9259579   5.9259579
   5.9259579   5.9259579   5.8353945   5.8353945   5.8353945   5.8353945
   5.7825142   5.7825142   5.7825142   5.7825142   5.9154883   5.9154883
   5.9154883   5.9154883   6.0808541   6.0808541   6.0808541   6.0808541
   5.8404423   5.8404423   5.8404423   5.8404423   7.1297292   7.1297292
   7.1297292   7.1297292   7.1495501   7.1495501   7.1495501   7.1495501
   7.0614482   7.0614482   7.0614482   7.0614482   7.0293352   7.0293352
   7.0293352   7.0293352   7.4066441   7.4066441   7.4066441   7.4066441
  35.0192111  35.0192111  35.0192111  35.0192111  34.9434267  34.9434267
  34.9434267  34.9434267  35.0129399  35.0129399  35.0129399  35.0129399
  29.0675657  29.0142590
 TTTTTTTTTTTTTTTTTTTTTTTTTTTTTT MOQGAD      TELAPSE      122.74 TCPU      112.66
 TTTTTTTTTTTTTTTTTTTTTTTTTTTTTT SHELLXN     TELAPSE      143.52 TCPU      133.21
 TTTTTTTTTTTTTTTTTTTTTTTTTTTTTT MONMO3      TELAPSE      149.14 TCPU      138.80
 NUMERICALLY INTEGRATED DENSITY    768.0002839508
 TTTTTTTTTTTTTTTTTTTTTTTTTTTTTT NUMDFT      TELAPSE      150.51 TCPU      140.16
 CYC   3 ETOT(AU) -3.644723034310E+04 DETOT -2.47E+00 tst  7.70E-03 PX  5.23E-01
 TTTTTTTTTTTTTTTTTTTTTTTTTTTTTT DIIS        TELAPSE      150.68 TCPU      140.33
 DIIS TEST: 0.30635E+01 AT SCF   CYCLE   3 - DIIS ACTIVE - HISTORY:     3 CYCLES
 TTTTTTTTTTTTTTTTTTTTTTTTTTTTTT FDIK        TELAPSE      158.36 TCPU      145.86
 INSULATING STATE
 TOP OF VALENCE BANDS -    BAND    384; K    4; EIG -1.8231696E-01 AU
 TOP OF VALENCE BANDS -    BAND    384; K    1; EIG -1.8354537E-01 AU
 BOTTOM OF VIRTUAL BANDS - BAND    385; K    6; EIG -1.1062852E-01 AU
 INDIRECT ENERGY BAND GAP:   1.9507 eV
 BOTTOM OF VIRTUAL BANDS - BAND    385; K    1; EIG -1.0808362E-01 AU
 TTTTTTTTTTTTTTTTTTTTTTTTTTTTTT PDIG        TELAPSE      159.22 TCPU      146.72
 CHARGE NORMALIZATION FACTOR   1.00000000
 TOTAL ATOMIC CHARGES:
   1.3584186   1.3584186   1.3584186   1.3584186   6.1553923   6.1553923
   6.1553923   6.1553923   5.7722981   5.7722981   5.7722981   5.7722981
   6.0204669   6.0204669   6.0204669   6.0204669   5.6688180   5.6688180
   5.6688180   5.6688180   6.0224076   6.0224076   6.0224076   6.0224076
   5.9654565   5.9654565   5.9654565   5.9654565   7.1668598   7.1668598
   7.1668598   7.1668598   7.0442222   7.0442222   7.0442222   7.0442222
   7.2802385   7.2802385   7.2802385   7.2802385   7.1179506   7.1179506
   7.1179506   7.1179506   7.0256535   7.0256535   7.0256535   7.0256535
  35.0802698  35.0802698  35.0802698  35.0802698  35.0265717  35.0265717
  35.0265717  35.0265717  34.9374110  34.9374110  34.9374110  34.9374110
  28.6864907  28.7437692
 TTTTTTTTTTTTTTTTTTTTTTTTTTTTTT MOQGAD      TELAPSE      159.24 TCPU      146.74
 TTTTTTTTTTTTTTTTTTTTTTTTTTTTTT SHELLXN     TELAPSE      180.28 TCPU      167.47
 TTTTTTTTTTTTTTTTTTTTTTTTTTTTTT MONMO3      TELAPSE      183.48 TCPU      170.66
 NUMERICALLY INTEGRATED DENSITY    768.0002821110
 TTTTTTTTTTTTTTTTTTTTTTTTTTTTTT NUMDFT      TELAPSE      184.81 TCPU      171.99
 CYC   4 ETOT(AU) -3.644754661759E+04 DETOT -3.16E-01 tst  3.16E-03 PX  2.10E-01
 TTTTTTTTTTTTTTTTTTTTTTTTTTTTTT DIIS        TELAPSE      184.96 TCPU      172.13
 DIIS TEST: 0.92569E+00 AT SCF   CYCLE   4 - DIIS ACTIVE - HISTORY:     4 CYCLES
 TTTTTTTTTTTTTTTTTTTTTTTTTTTTTT FDIK        TELAPSE      192.52 TCPU      177.65
 INSULATING STATE
 TOP OF VALENCE BANDS -    BAND    384; K    5; EIG -1.9555067E-01 AU
 TOP OF VALENCE BANDS -    BAND    384; K    1; EIG -1.9659210E-01 AU
 BOTTOM OF VIRTUAL BANDS - BAND    385; K    6; EIG -1.1001242E-01 AU
 INDIRECT ENERGY BAND GAP:   2.3276 eV
 BOTTOM OF VIRTUAL BANDS - BAND    385; K    1; EIG -1.0906806E-01 AU
 TTTTTTTTTTTTTTTTTTTTTTTTTTTTTT PDIG        TELAPSE      193.39 TCPU      178.51
 CHARGE NORMALIZATION FACTOR   1.00000000
 TOTAL ATOMIC CHARGES:
   1.3593896   1.3593896   1.3593896   1.3593896   6.0942152   6.0942152
   6.0942152   6.0942152   5.8242274   5.8242274   5.8242274   5.8242274
   5.9628883   5.9628883   5.9628883   5.9628883   5.8379923   5.8379923
   5.8379923   5.8379923   6.1008096   6.1008096   6.1008096   6.1008096
   5.9447243   5.9447243   5.9447243   5.9447243   7.2162823   7.2162823
   7.2162823   7.2162823   7.1486184   7.1486184   7.1486184   7.1486184
   7.1004779   7.1004779   7.1004779   7.1004779   7.0151888   7.0151888
   7.0151888   7.0151888   7.0299161   7.0299161   7.0299161   7.0299161
  35.0501006  35.0501006  35.0501006  35.0501006  34.9766494  34.9766494
  34.9766494  34.9766494  34.9702122  34.9702122  34.9702122  34.9702122
  28.7260780  28.7471528
 TTTTTTTTTTTTTTTTTTTTTTTTTTTTTT MOQGAD      TELAPSE      193.41 TCPU      178.53
 TTTTTTTTTTTTTTTTTTTTTTTTTTTTTT SHELLXN     TELAPSE      214.59 TCPU      199.48
 TTTTTTTTTTTTTTTTTTTTTTTTTTTTTT MONMO3      TELAPSE      217.55 TCPU      202.42
 NUMERICALLY INTEGRATED DENSITY    768.0002841681
 TTTTTTTTTTTTTTTTTTTTTTTTTTTTTT NUMDFT      TELAPSE      218.88 TCPU      203.75
 CYC   5 ETOT(AU) -3.644765672010E+04 DETOT -1.10E-01 tst  5.31E-04 PX  8.22E-02
 TTTTTTTTTTTTTTTTTTTTTTTTTTTTTT DIIS        TELAPSE      219.07 TCPU      203.94
 DIIS TEST: 0.22859E+00 AT SCF   CYCLE   5 - DIIS ACTIVE - HISTORY:     5 CYCLES
 TTTTTTTTTTTTTTTTTTTTTTTTTTTTTT FDIK        TELAPSE      226.87 TCPU      209.59
 INSULATING STATE
 TOP OF VALENCE BANDS -    BAND    384; K    5; EIG -1.9525875E-01 AU
 TOP OF VALENCE BANDS -    BAND    384; K    1; EIG -1.9625280E-01 AU
 BOTTOM OF VIRTUAL BANDS - BAND    385; K    6; EIG -1.0991746E-01 AU
 INDIRECT ENERGY BAND GAP:   2.3223 eV
 BOTTOM OF VIRTUAL BANDS - BAND    385; K    1; EIG -1.0878342E-01 AU
 TTTTTTTTTTTTTTTTTTTTTTTTTTTTTT PDIG        TELAPSE      227.74 TCPU      210.45
 CHARGE NORMALIZATION FACTOR   1.00000000
 TOTAL ATOMIC CHARGES:
   1.3553628   1.3553628   1.3553628   1.3553628   6.0830511   6.0830511
   6.0830511   6.0830511   5.8201165   5.8201165   5.8201165   5.8201165
   5.9536005   5.9536005   5.9536005   5.9536005   5.8166640   5.8166640
   5.8166640   5.8166640   6.0655798   6.0655798   6.0655798   6.0655798
   5.9155789   5.9155789   5.9155789   5.9155789   7.1257427   7.1257427
   7.1257427   7.1257427   7.0580578   7.0580578   7.0580578   7.0580578
   7.2063810   7.2063810   7.2063810   7.2063810   7.0972829   7.0972829
   7.0972829   7.0972829   7.0831410   7.0831410   7.0831410   7.0831410
  35.0743359  35.0743359  35.0743359  35.0743359  34.9859522  34.9859522
  34.9859522  34.9859522  34.9726525  34.9726525  34.9726525  34.9726525
  28.7572416  28.7887601
 TTTTTTTTTTTTTTTTTTTTTTTTTTTTTT MOQGAD      TELAPSE      227.76 TCPU      210.47
 TTTTTTTTTTTTTTTTTTTTTTTTTTTTTT SHELLXN     TELAPSE      251.01 TCPU      231.37
 TTTTTTTTTTTTTTTTTTTTTTTTTTTTTT MONMO3      TELAPSE      254.02 TCPU      234.37
 NUMERICALLY INTEGRATED DENSITY    768.0002830415
 TTTTTTTTTTTTTTTTTTTTTTTTTTTTTT NUMDFT      TELAPSE      255.38 TCPU      235.72
 CYC   6 ETOT(AU) -3.644768372728E+04 DETOT -2.70E-02 tst  2.09E-04 PX  3.31E-02
 TTTTTTTTTTTTTTTTTTTTTTTTTTTTTT DIIS        TELAPSE      255.54 TCPU      235.88
[...]
  45 N    1     2.8060     5.3026   13 C    0 0 0

  49 BR   1     1.8916     3.5746   13 C    0 1 0
  49 BR   1     2.8377     5.3625   26 C    0 1 0
  49 BR   1     2.8466     5.3792   42 N    0 0 0
  49 BR   1     2.9191     5.5163    5 C    0 1 0
  49 BR   1     3.0637     5.7895   39 N    1 1 0
  49 BR   1     3.0711     5.8036   62 ZN   0 0 0

  53 BR   1     1.8576     3.5104   26 C    0 0 0
  53 BR   1     2.7967     5.2850   54 BR   0-1-1
  53 BR   1     2.7999     5.2911   17 C    0 0 0
  53 BR   1     2.8544     5.3940   13 C    0 0 0
  53 BR   1     3.0158     5.6990    4 H    0 0 0
  53 BR   1     3.1415     5.9365   57 BR   0 0 0

  57 BR   1     1.8909     3.5732   17 C    0 0 0
  57 BR   1     2.8176     5.3245   45 N    0 0 0
  57 BR   1     2.8265     5.3413   26 C    0 0 0
  57 BR   1     2.8884     5.4582   46 N    0 0 0
  57 BR   1     3.1061     5.8697   58 BR   0 0 0
  57 BR   1     3.1415     5.9365   53 BR   0 0 0

  61 ZN   4     2.1744     4.1091   29 N   -1-1 0   30 N   -1 0 1   31 N    0 0 1
                                    32 N   -1 0 0
  61 ZN   4     2.5988     4.9111    1 H   -1 0 0    2 H    0 0 1    3 H   -1-1 0
                                     4 H   -1 0 1
  61 ZN   4     3.0834     5.8268   33 N    0 0 1   34 N   -1 0 0   35 N   -1 0 1
                                    36 N   -1-1 0
  61 ZN   4     3.2501     6.1418   21 C   -1 0 0   22 C    0 0 1   23 C   -1-1 0
                                    24 C   -1 0 1
  61 ZN   4     3.2852     6.2081    9 C   -1-1 0   10 C   -1 0 1   11 C    0 0 1
                                    12 C   -1 0 0
  61 ZN   4     3.6752     6.9451    5 C   -1 0 0    6 C    0 0 1    7 C   -1-1 0
                                     8 C   -1 0 1

  62 ZN   4     2.3492     4.4394   37 N    0 0 0   38 N    0 0 0   39 N    1 1 0
                                    40 N    1 1 0
  62 ZN   4     3.0711     5.8036   49 BR   0 0 0   50 BR   0 0 0   51 BR   1 1 0
                                    52 BR   1 1 0
  62 ZN   4     3.1747     5.9993   41 N    0 0 0   42 N    0 0 0   43 N    1 1 0
                                    44 N    1 1 0
  62 ZN   4     3.4890     6.5933    9 C    0 0 0   10 C    0 0 0   11 C    1 1 0
                                    12 C    1 1 0
  62 ZN   4     4.0080     7.5740   13 C    0 1 0   14 C    1 0 0   15 C    0 0-1
                                    16 C    1 1 1
  62 ZN   4     4.0717     7.6944    5 C    0 1 0    6 C    1 0 0    7 C    0 0-1
                                     8 C    1 1 1


 FINAL OPTIMIZED GEOMETRY - DIMENSIONALITY OF THE SYSTEM      3
 (NON PERIODIC DIRECTION: LATTICE PARAMETER FORMALLY SET TO 500)
 *******************************************************************************
 LATTICE PARAMETERS (ANGSTROMS AND DEGREES) - BOHR = 0.5291772083 ANGSTROM
 PRIMITIVE CELL - CENTRING CODE 6/0 VOLUME=   891.438227 - DENSITY  3.068 g/cm^3
         A              B              C           ALPHA      BETA       GAMMA 
    10.52476278    10.52476278    10.52476278   112.265328 112.265328 104.016871
 *******************************************************************************
 ATOMS IN THE ASYMMETRIC UNIT   17 - ATOMS IN THE UNIT CELL:   62
     ATOM                 X/A                 Y/B                 Z/C    
 *******************************************************************************
      1 T   1 H     2.572463254316E-01 -1.431449970506E-01  3.157566617382E-01
      2 F   1 H    -4.589016587888E-01 -5.851033630667E-02 -3.157566617382E-01
      3 F   1 H     1.431449970506E-01  4.589016587888E-01  4.003913224821E-01
      4 F   1 H     5.851033630667E-02 -2.572463254316E-01 -4.003913224821E-01
      5 T   6 C     2.148084728258E-01 -3.455038020541E-01  1.103967640615E-01
      6 F   6 C    -4.559005661156E-01  1.044117087643E-01 -1.103967640615E-01
      7 F   6 C     3.455038020541E-01  4.559005661156E-01 -4.396877251201E-01
      8 F   6 C    -1.044117087643E-01 -2.148084728258E-01  4.396877251201E-01
      9 T   6 C     3.284061058502E-01 -3.714857665613E-01  2.150194916756E-01
     10 F   6 C     4.134947417631E-01  1.133866141746E-01 -2.150194916756E-01
     11 F   6 C     3.714857665613E-01 -4.134947417631E-01 -3.001081275885E-01
     12 F   6 C    -1.133866141746E-01 -3.284061058502E-01  3.001081275885E-01
     13 T   6 C     1.264931284395E-01 -4.353029863170E-01 -5.944489769943E-02
     14 F   6 C    -3.758580886176E-01  1.859380261389E-01  5.944489769942E-02
     15 F   6 C     4.353029863170E-01  3.758580886176E-01 -4.382038852435E-01
     16 F   6 C    -1.859380261389E-01 -1.264931284395E-01  4.382038852435E-01
     17 T   6 C    -1.392647093365E-02 -2.827315371549E-01 -5.299835542197E-02
     18 F   6 C    -2.297331817330E-01  3.907188448832E-02  5.299835542197E-02
     19 F   6 C     2.827315371549E-01  2.297331817330E-01  2.688050662213E-01
     20 F   6 C    -3.907188448832E-02  1.392647093365E-02 -2.688050662213E-01
     21 T   6 C     1.843808038274E-01 -2.237664646020E-01  1.854844306660E-01
     22 F   6 C    -4.092508952680E-01 -1.103626838589E-03 -1.854844306660E-01
     23 F   6 C     2.237664646020E-01  4.092508952680E-01  4.081472684294E-01
     24 F   6 C     1.103626838589E-03 -1.843808038274E-01 -4.081472684294E-01
     25 T   6 C    -2.606367226247E-01  1.529182151823E-01  1.400344444782E-01
     26 F   6 C     1.288377070410E-02 -4.006711671029E-01 -1.400344444782E-01
     27 F   6 C    -1.529182151823E-01 -1.288377070410E-02 -4.135549378070E-01
     28 F   6 C     4.006711671029E-01  2.606367226247E-01  4.135549378070E-01
     29 T   7 N     3.618607953279E-01 -3.235330225292E-01  3.696406002246E-01
     30 F   7 N     3.068263772463E-01 -7.779804896668E-03 -3.696406002246E-01
     31 F   7 N     3.235330225292E-01 -3.068263772463E-01 -3.146061821429E-01
     32 F   7 N     7.779804896668E-03 -3.618607953279E-01  3.146061821429E-01
     33 T   7 N     4.799971791535E-01 -3.565257982821E-01  4.376748819567E-01
     34 F   7 N     2.057993197612E-01  4.232229719679E-02 -4.376748819567E-01
     35 F   7 N     3.565257982821E-01 -2.057993197612E-01 -1.634770225644E-01
     36 F   7 N    -4.232229719679E-02 -4.799971791535E-01  1.634770225644E-01
     37 T   7 N     4.202993303340E-01 -4.350390878725E-01  1.861815624016E-01
     38 F   7 N     3.787793497259E-01  2.341177679324E-01 -1.861815624016E-01
     39 F   7 N     4.350390878725E-01 -3.787793497259E-01 -1.446615817935E-01
     40 F   7 N    -2.341177679324E-01 -4.202993303340E-01  1.446615817935E-01
     41 T   7 N    -4.863563909817E-01 -4.231184586788E-01  3.285369467386E-01
     42 F   7 N     2.483445945827E-01  1.851066622797E-01 -3.285369467386E-01
     43 F   7 N     4.231184586788E-01 -2.483445945827E-01 -6.323793230298E-02
     44 F   7 N    -1.851066622797E-01  4.863563909817E-01  6.323793230298E-02
     45 T   7 N     7.173682056975E-02 -1.959798937103E-01  1.071825062591E-01
     46 F   7 N    -3.031623999694E-01 -3.544568568932E-02 -1.071825062591E-01
     47 F   7 N     1.959798937103E-01  3.031623999694E-01  2.677167142800E-01
     48 F   7 N     3.544568568932E-02 -7.173682056975E-02 -2.677167142800E-01
     49 T  35 BR    1.530372275585E-01  4.003826636915E-01 -1.838317905637E-01
     50 F  35 BR   -4.157855457448E-01  3.368690181222E-01  1.838317905637E-01
     51 F  35 BR   -4.003826636915E-01  4.157855457448E-01 -2.473454361330E-01
     52 F  35 BR   -3.368690181222E-01 -1.530372275585E-01  2.473454361330E-01
     53 T  35 BR   -1.056054496117E-01  4.935128636544E-01 -3.636282775532E-01
     54 F  35 BR   -1.428588587924E-01  2.580228279415E-01  3.636282775532E-01
     55 F  35 BR   -4.935128636544E-01  1.428588587924E-01  4.008816867339E-01
     56 F  35 BR   -2.580228279415E-01  1.056054496117E-01 -4.008816867339E-01
     57 T  35 BR   -1.711214174866E-01 -2.454107348358E-01 -1.718702663599E-01
     58 F  35 BR   -7.354046847586E-02  7.488488732918E-04  1.718702663599E-01
     59 F  35 BR    2.454107348358E-01  7.354046847586E-02  7.428931734915E-02
     60 F  35 BR   -7.488488732917E-04  1.711214174866E-01 -7.428931734915E-02
     61 T  30 ZN    2.500000000000E-01 -2.500000000000E-01  5.000000000000E-01
     62 T  30 ZN   -5.000000000000E-01 -5.000000000000E-01  0.000000000000E+00

 TRANSFORMATION MATRIX PRIMITIVE-CRYSTALLOGRAPHIC CELL
  0.0000  1.0000  1.0000  1.0000  0.0000  1.0000  1.0000  1.0000  0.0000

 *******************************************************************************
 CRYSTALLOGRAPHIC CELL (VOLUME=       1782.87645419)
         A              B              C           ALPHA      BETA       GAMMA 
    11.73030773    11.73030773    12.95693973    90.000000  90.000000  90.000000

 COORDINATES IN THE CRYSTALLOGRAPHIC CELL
     ATOM                 X/A                 Y/B                 Z/C    
 *******************************************************************************
      1 T   1 H    -4.231733037195E-02  3.580739921102E-01 -1.008276666786E-01
      2 F   1 H     4.231733037195E-02 -3.580739921102E-01 -1.008276666786E-01
      3 F   1 H     3.580739921102E-01  4.231733037195E-02  1.008276666786E-01
      4 F   1 H    -3.580739921102E-01 -4.231733037195E-02  1.008276666786E-01
      5 T   6 C    -2.249577554092E-01  3.353545194707E-01 -1.205460466449E-01
      6 F   6 C     2.249577554092E-01 -3.353545194707E-01 -1.205460466449E-01
      7 F   6 C     3.353545194707E-01  2.249577554092E-01  1.205460466449E-01
      8 F   6 C    -3.353545194707E-01 -2.249577554092E-01  1.205460466449E-01
      9 T   6 C     2.575638096321E-01 -4.254431795644E-02  3.709504238067E-01
     10 F   6 C    -2.575638096321E-01  4.254431795644E-02  3.709504238067E-01
     11 F   6 C    -4.254431795644E-02 -2.575638096321E-01 -3.709504238067E-01
     12 F   6 C     4.254431795644E-02  2.575638096321E-01 -3.709504238067E-01
     13 T   6 C    -3.106205062279E-01  2.511756085285E-01 -1.246824800890E-01
     14 F   6 C     3.106205062279E-01 -2.511756085285E-01 -1.246824800890E-01
     15 F   6 C     2.511756085285E-01  3.106205062279E-01  1.246824800890E-01
     16 F   6 C    -2.511756085285E-01 -3.106205062279E-01  1.246824800890E-01
     17 T   6 C    -1.609017108216E-01  1.079033553997E-01 -1.218298263333E-01
     18 F   6 C     1.609017108216E-01 -1.079033553997E-01 -1.218298263333E-01
     19 F   6 C     1.079033553997E-01  1.609017108216E-01  1.218298263333E-01
     20 F   6 C    -1.079033553997E-01 -1.609017108216E-01  1.218298263333E-01
     21 T   6 C    -1.113314188817E-01  2.968158495477E-01 -1.124350457203E-01
     22 F   6 C     1.113314188817E-01 -2.968158495477E-01 -1.124350457203E-01
     23 F   6 C     2.968158495477E-01  1.113314188817E-01  1.124350457203E-01
     24 F   6 C    -2.968158495477E-01 -1.113314188817E-01  1.124350457203E-01
     25 T   6 C     2.767946911426E-01 -1.367602466644E-01 -1.238764759603E-01
     26 F   6 C    -2.767946911426E-01  1.367602466644E-01 -1.238764759603E-01
     27 F   6 C    -1.367602466644E-01 -2.767946911426E-01  1.238764759603E-01
     28 F   6 C     1.367602466644E-01  2.767946911426E-01  1.238764759603E-01
     29 T   7 N     3.421233911838E-01  2.751720904081E-02  3.343435862871E-01
     30 F   7 N    -3.421233911838E-01 -2.751720904081E-02  3.343435862871E-01
     31 F   7 N     2.751720904081E-02 -3.421233911838E-01 -3.343435862871E-01
     32 F   7 N    -2.751720904081E-02  3.421233911838E-01 -3.343435862871E-01
     33 T   7 N    -1.994240477395E-01 -3.629010703038E-01 -1.571017505427E-01
     34 F   7 N     1.994240477395E-01  3.629010703038E-01 -1.571017505427E-01
     35 F   7 N    -3.629010703038E-01  1.994240477395E-01  1.571017505427E-01
     36 F   7 N     3.629010703038E-01 -1.994240477395E-01  1.571017505427E-01
     37 T   7 N     1.654215720976E-01  2.075999030404E-02  3.995393400299E-01
     38 F   7 N    -1.654215720976E-01 -2.075999030404E-02  3.995393400299E-01
     39 F   7 N     2.075999030404E-02 -1.654215720976E-01 -3.995393400299E-01
     40 F   7 N    -2.075999030404E-02  1.654215720976E-01 -3.995393400299E-01
     41 T   7 N     1.958874395208E-01  1.326495072178E-01  3.809941018005E-01
     42 F   7 N    -1.958874395208E-01 -1.326495072178E-01  3.809941018005E-01
     43 F   7 N     1.326495072178E-01 -1.958874395208E-01 -3.809941018005E-01
     44 F   7 N    -1.326495072178E-01  1.958874395208E-01 -3.809941018005E-01
     45 T   7 N    -8.026710401048E-02  1.874496102695E-01 -1.157127896998E-01
     46 F   7 N     8.026710401048E-02 -1.874496102695E-01 -1.157127896998E-01
     47 F   7 N     1.874496102695E-01  8.026710401048E-02  1.157127896998E-01
     48 F   7 N    -1.874496102695E-01 -8.026710401048E-02  1.157127896998E-01
     49 T  35 BR    3.175682278465E-02 -2.155886133483E-01  3.686258409069E-01
     50 F  35 BR   -3.175682278465E-02  2.155886133483E-01  3.686258409069E-01
     51 F  35 BR   -2.155886133483E-01 -3.175682278465E-02 -3.686258409069E-01
     52 F  35 BR    2.155886133483E-01  3.175682278465E-02 -3.686258409069E-01
     53 T  35 BR   -3.822549821436E-01  1.862670459036E-02 -1.242321542020E-01
     54 F  35 BR    3.822549821436E-01 -1.862670459036E-02 -1.242321542020E-01
     55 F  35 BR    1.862670459036E-02  3.822549821436E-01  1.242321542020E-01
     56 F  35 BR   -1.862670459036E-02 -3.822549821436E-01  1.242321542020E-01
     57 T  35 BR   -1.230797918545E-01 -4.879047450537E-02 -1.223309429812E-01
     58 F  35 BR    1.230797918545E-01  4.879047450537E-02 -1.223309429812E-01
     59 F  35 BR   -4.879047450537E-02  1.230797918545E-01  1.223309429812E-01
     60 F  35 BR    4.879047450537E-02 -1.230797918545E-01  1.223309429812E-01
     61 T  30 ZN    5.000000000000E-01  1.234145584094E-16  2.500000000000E-01
     62 T  30 ZN    0.000000000000E+00  0.000000000000E+00  5.000000000000E-01

 T = ATOM BELONGING TO THE ASYMMETRIC UNIT
 INFORMATION **** fort.34 **** GEOMETRY OUTPUT FILE

 DIRECT LATTICE VECTORS CARTESIAN COMPONENTS (ANGSTROM)
          X                    Y                    Z
  -0.586515386360E+01   0.586515386360E+01   0.647846986722E+01
   0.586515386360E+01  -0.586515386360E+01   0.647846986722E+01
   0.586515386360E+01   0.586515386360E+01  -0.647846986722E+01


 CARTESIAN COORDINATES - PRIMITIVE CELL
 *******************************************************************************
 *      ATOM          X(ANGSTROM)         Y(ANGSTROM)         Z(ANGSTROM)
 *******************************************************************************
    1     1 H    -4.963953074561E-01  4.200318116556E+00 -1.306418000719E+00
    2     1 H     4.963953074561E-01 -4.200318116556E+00 -1.306418000719E+00
    3     1 H     4.200318116556E+00  4.963953074561E-01  1.306418000719E+00
    4     1 H    -4.200318116556E+00 -4.963953074561E-01  1.306418000719E+00
    5     6 C    -2.638823696568E+00  3.933811711096E+00 -1.561907861603E+00
    6     6 C     2.638823696568E+00 -3.933811711096E+00 -1.561907861603E+00
    7     6 C     3.933811711096E+00  2.638823696568E+00  1.561907861603E+00
    8     6 C    -3.933811711096E+00 -2.638823696568E+00  1.561907861603E+00
    9     6 C     3.021302746372E+00 -4.990579416725E-01  4.806382285726E+00
   10     6 C    -3.021302746372E+00  4.990579416725E-01  4.806382285726E+00
   11     6 C    -4.990579416725E-01 -3.021302746372E+00 -4.806382285726E+00
   12     6 C     4.990579416725E-01  3.021302746372E+00 -4.806382285726E+00
   13     6 C    -3.643674124430E+00  2.946367181604E+00 -1.615503380454E+00
   14     6 C     3.643674124430E+00 -2.946367181604E+00 -1.615503380454E+00
   15     6 C     2.946367181604E+00  3.643674124430E+00  1.615503380454E+00
   16     6 C    -2.946367181604E+00 -3.643674124430E+00  1.615503380454E+00
   17     6 C    -1.887426581769E+00  1.265739563634E+00 -1.578541717657E+00
   18     6 C     1.887426581769E+00 -1.265739563634E+00 -1.578541717657E+00
   19     6 C     1.265739563634E+00  1.887426581769E+00  1.578541717657E+00
   20     6 C    -1.265739563634E+00 -1.887426581769E+00  1.578541717657E+00
   21     6 C    -1.305951803187E+00  3.481741253502E+00 -1.456814111436E+00
   22     6 C     1.305951803187E+00 -3.481741253502E+00 -1.456814111436E+00
   23     6 C     3.481741253502E+00  1.305951803187E+00  1.456814111436E+00
   24     6 C    -3.481741253502E+00 -1.305951803187E+00  1.456814111436E+00
   25     6 C     3.246886904355E+00 -1.604239778220E+00 -1.605060033532E+00
   26     6 C    -3.246886904355E+00  1.604239778220E+00 -1.605060033532E+00
   27     6 C    -1.604239778220E+00 -3.246886904355E+00  1.605060033532E+00
   28     6 C     1.604239778220E+00  3.246886904355E+00  1.605060033532E+00
   29     7 N     4.013212659256E+00  3.227853298422E-01  4.332069698117E+00
   30     7 N    -4.013212659256E+00 -3.227853298422E-01  4.332069698117E+00
   31     7 N     3.227853298422E-01 -4.013212659256E+00 -4.332069698117E+00
   32     7 N    -3.227853298422E-01  4.013212659256E+00 -4.332069698117E+00
   33     7 N    -2.339305448186E+00 -4.256941229191E+00 -2.035557913956E+00
   34     7 N     2.339305448186E+00  4.256941229191E+00 -2.035557913956E+00
   35     7 N    -4.256941229191E+00  2.339305448186E+00  2.035557913956E+00
   36     7 N     4.256941229191E+00 -2.339305448186E+00  2.035557913956E+00
   37     7 N     1.940445945420E+00  2.435210746799E-01  5.176807150304E+00
   38     7 N    -1.940445945420E+00 -2.435210746799E-01  5.176807150304E+00
   39     7 N     2.435210746799E-01 -1.940445945420E+00 -5.176807150304E+00
   40     7 N    -2.435210746799E-01  1.940445945420E+00 -5.176807150304E+00
   41     7 N     2.297819945470E+00  1.556019539525E+00  4.936517616204E+00
   42     7 N    -2.297819945470E+00 -1.556019539525E+00  4.936517616204E+00
   43     7 N     1.556019539525E+00 -2.297819945470E+00 -4.936517616204E+00
   44     7 N    -1.556019539525E+00  2.297819945470E+00 -4.936517616204E+00
   45     7 N    -9.415578304134E-01  2.198841611804E+00 -1.499283642644E+00
   46     7 N     9.415578304134E-01 -2.198841611804E+00 -1.499283642644E+00
   47     7 N     2.198841611804E+00  9.415578304134E-01  1.499283642644E+00
   48     7 N    -2.198841611804E+00 -9.415578304134E-01  1.499283642644E+00
   49    35 BR    3.725173037018E-01 -2.528920777054E+00  4.776262805186E+00
   50    35 BR   -3.725173037018E-01  2.528920777054E+00  4.776262805186E+00
   51    35 BR   -2.528920777054E+00 -3.725173037018E-01 -4.776262805186E+00
   52    35 BR    2.528920777054E+00  3.725173037018E-01 -4.776262805186E+00
   53    35 BR   -4.483968570796E+00  2.184969767884E-01 -1.609668535075E+00
   54    35 BR    4.483968570796E+00 -2.184969767884E-01 -1.609668535075E+00
   55    35 BR    2.184969767884E-01  4.483968570796E+00  1.609668535075E+00
   56    35 BR   -2.184969767884E-01 -4.483968570796E+00  1.609668535075E+00
   57    35 BR   -1.443763833452E+00 -5.723272801037E-01 -1.585034655864E+00
   58    35 BR    1.443763833452E+00  5.723272801037E-01 -1.585034655864E+00
   59    35 BR   -5.723272801037E-01  1.443763833452E+00  1.585034655864E+00
   60    35 BR    5.723272801037E-01 -1.443763833452E+00  1.585034655864E+00
   61    30 ZN    5.865153863596E+00  1.447690748158E-15 -9.717704800827E+00
   62    30 ZN    0.000000000000E+00  0.000000000000E+00  6.478469867218E+00

 ****    4 SYMMOPS - TRANSLATORS IN FRACTIONAL UNITS
 **** MATRICES AND TRANSLATORS IN THE CRYSTALLOGRAPHIC REFERENCE FRAME
   V INV                    ROTATION MATRICES                   TRANSLATORS
   1   1  1.00  0.00  0.00  0.00  1.00  0.00  0.00  0.00  1.00  0.00  0.00  0.00
   2   2  0.00  1.00 -1.00  1.00  0.00 -1.00  0.00  0.00 -1.00  0.00  0.00  0.00
   3   4 -0.00 -1.00  0.00 -0.00 -1.00  1.00  1.00 -1.00  0.00  0.00  0.00  0.00
   4   3 -1.00 -0.00  1.00 -1.00 -0.00  0.00 -1.00  1.00  0.00  0.00  0.00  0.00
 TTTTTTTTTTTTTTTTTTTTTTTTTTTTTT END         TELAPSE    14867.22 TCPU    14058.97
 EEEEEEEEEE TERMINATION  DATE 06 03 2024 TIME 18:16:12.1
NODE    0 CPU TIME =     14058.968
    TOTAL CPU TIME =    904059.013
