Loading crystal17/1.0.2/intel/19.0
  Loading requirement: intel/19.0 ompi/4.0.1/intel/19.0
          64 PROCESSORS WORKING

         
 *******************************************************************************
 *                                                                             *
 *                               CRYSTAL17                                     *
 *                      public : 1.0.2 - March 1st, 2018                       *
 *                       HTTP://WWW.CRYSTAL.UNITO.IT                           *
 *                                                                             *
 *                              MAIN AUTHORS                                   *
 *                                                                             *
 *  R. DOVESI(1,11), V.R. SAUNDERS(2), C. ROETTI(1,11), R. ORLANDO(1,11),      *
 *  C.M. ZICOVICH-WILSON(1,3), F. PASCALE(4), B. CIVALLERI(1,11),              *
 *  K. DOLL(5), N.M. HARRISON(2,6), I.J. BUSH(7), Ph. D'ARCO(8),               *
 *  M. LLUNELL(9), M. CAUSA'(10), Y. NOEL(8), L. MASCHIO(1,11), A. ERBA(1,11)  *
 *  M. RE'RAT(14), S. CASASSA(1,11)                                            *
 *                                                                             *
 *        CONTRIBUTIONS TO THE CODE HAVE ALSO BEEN GIVEN BY                    *
 *                                                                             *
 *  M. FERRABONE(1,11), M. DE LA PIERRE(1,11), M. FERRERO(1,11),               *
 *  J. BAIMA(1,11), E. ALBANESE(1,11), M.F. PEINTINGER(12), R. BAST(13),       *
 *  B. KIRTMAN(15), V. LACIVITA(1,11), R. DEMICHELIS(1,16)                     *
 *  G. BRANDEBURG(17), S. SALUSTRO(1,11), G. SANSONE(1,11)                     *
 *  M.T. RUGGIERO(18)                                                          *
 *                                                                             *
 * (1) THEORETICAL CHEMISTRY GROUP - UNIVERSITA' DI TORINO - TORINO (ITALY)    *
 * (2) COMPUTATIONAL SCIENCE & ENGINEERING DEPARTMENT - STFC DARESBURY (UK)    *
 * (3) UNIVERSIDAD AUTONOMA DEL ESTADO DE MORELOS - CUERNAVACA (MEXICO)        *
 * (4) UNIVERSITE' DE LORRAINE - NANCY (FRANCE)                                *
 * (5) UNIVERSITAET STUTTGART- STUTTGART (GERMANY)                             *
 * (6) IMPERIAL COLLEGE - LONDON (UK)                                          *
 * (7) OXFORD E-RESEARCH CENTRE - OXFORD (UK)                                  *
 * (8) UPMC - SORBONNE UNIVERSITES - PARIS (FRANCE)                            *
 * (9) UNIVERSIDAD DE BARCELONA - BARCELONA (SPAIN)                            *
 *(10) UNIVERSITA' DI NAPOLI "FEDERICO II" - NAPOLI (ITALY)                    *
 *(11) NIS - NANOSTRUCTURED INTERFACES AND SURFACES - TORINO (ITALY)           *
 *(12) MPI FUER CHEMISCHE ENERGIEKONVERSION - MUELHEIM AN DER RUHR (GERMANY)   *
 *(13) UNIVERSITY OF TROMSO - TROMSO (NORWAY)                                  *
 *(14) UNIVERSITE' DE PAU ET DES PAYS DE L'ADOUR - PAU (FRANCE)                *
 *(15) UNIVERSITY OF CALIFORNIA SANTA BARBARA - SANTA BARBARA (USA)            *
 *(16) CURTIN UNIVERSITY - PERTH (AUSTRALIA)                                   *
 *(17) UNIVERSITY COLLEGE LONDON - LONDON (UK)                                 *
 *(18) CAMBRIDGE UNIVERSITY - CAMBRIDGE (UK)                                   *
 *                                                                             *
 *******************************************************************************
 EEEEEEEEEE STARTING  DATE 26 03 2024 TIME 00:46:36.7
 C:\Users\wilso\AppData\Local\Temp\tmp_p\newconn.mol                             

 CRYSTAL CALCULATION
 (INPUT ACCORDING TO THE INTERNATIONAL TABLES FOR X-RAY CRYSTALLOGRAPHY)
 CRYSTAL FAMILY                       :  TETRAGONAL  
 CRYSTAL CLASS  (GROTH - 1921)        :  TETRAGONAL DISPHENOIDAL              

 SPACE GROUP (NONCENTROSYMMETRIC)     :  I -4            

 LATTICE PARAMETERS  (ANGSTROMS AND DEGREES) - CONVENTIONAL CELL
        A           B           C        ALPHA        BETA       GAMMA
    10.90645    10.90645    11.96262    90.00000    90.00000    90.00000


 NUMBER OF IRREDUCIBLE ATOMS IN THE CONVENTIONAL CELL:  124

 INPUT COORDINATES

 ATOM AT. N.              COORDINATES
   1   6     2.662400000000E-01  8.146300000000E-01  3.862900000000E-01
   2   6     2.511600000000E-01  9.466800000000E-01  3.776900000000E-01
   3   6     1.729100000000E-01  7.284500000000E-01  3.667500000000E-01
   4   6     3.196800000000E-01  5.674600000000E-01  3.731300000000E-01
   5   6     3.814700000000E-01  7.613900000000E-01  4.046800000000E-01
   6   6     8.019200000000E-01  3.964800000000E-01  3.590300000000E-01
   7   6     7.337600000000E-01  1.853700000000E-01  3.862900000000E-01
   8   6     7.488400000000E-01  5.332000000000E-02  3.776900000000E-01
   9   6     8.270900000000E-01  2.715500000000E-01  3.667500000000E-01
  10   6     6.803200000000E-01  4.325400000000E-01  3.731300000000E-01
  11   6     6.185300000000E-01  2.386100000000E-01  4.046800000000E-01
  12   6     1.980800000000E-01  6.035200000000E-01  3.590300000000E-01
  13   6     8.146300000000E-01  7.337600000000E-01  6.137100000000E-01
  14   6     9.466800000000E-01  7.488400000000E-01  6.223100000000E-01
  15   6     7.284500000000E-01  8.270900000000E-01  6.332500000000E-01
  16   6     5.674600000000E-01  6.803200000000E-01  6.268700000000E-01
  17   6     7.613900000000E-01  6.185300000000E-01  5.953200000000E-01
  18   6     3.964800000000E-01  1.980800000000E-01  6.409700000000E-01
  19   6     1.853700000000E-01  2.662400000000E-01  6.137100000000E-01
  20   6     5.332000000000E-02  2.511600000000E-01  6.223100000000E-01
  21   6     2.715500000000E-01  1.729100000000E-01  6.332500000000E-01
  22   6     4.325400000000E-01  3.196800000000E-01  6.268700000000E-01
  23   6     2.386100000000E-01  3.814700000000E-01  5.953200000000E-01
  24   6     6.035200000000E-01  8.019200000000E-01  6.409700000000E-01
  25   6     7.662400000000E-01  3.146300000000E-01  8.862900000000E-01
  26   6     7.511600000000E-01  4.466800000000E-01  8.776900000000E-01
  27   6     6.729100000000E-01  2.284500000000E-01  8.667500000000E-01
  28   6     8.196800000000E-01  6.746000000000E-02  8.731300000000E-01
  29   6     8.814700000000E-01  2.613900000000E-01  9.046800000000E-01
  30   6     3.019200000000E-01  8.964800000000E-01  8.590300000000E-01
  31   6     2.337600000000E-01  6.853700000000E-01  8.862900000000E-01
  32   6     2.488400000000E-01  5.533200000000E-01  8.776900000000E-01
  33   6     3.270900000000E-01  7.715500000000E-01  8.667500000000E-01
  34   6     1.803200000000E-01  9.325400000000E-01  8.731300000000E-01
  35   6     1.185300000000E-01  7.386100000000E-01  9.046800000000E-01
  36   6     6.980800000000E-01  1.035200000000E-01  8.590300000000E-01
  37   6     3.146300000000E-01  2.337600000000E-01  1.137100000000E-01
  38   6     4.466800000000E-01  2.488400000000E-01  1.223100000000E-01
  39   6     2.284500000000E-01  3.270900000000E-01  1.332500000000E-01
  40   6     6.746000000000E-02  1.803200000000E-01  1.268700000000E-01
  41   6     2.613900000000E-01  1.185300000000E-01  9.532000000000E-02
  42   6     8.964800000000E-01  6.980800000000E-01  1.409700000000E-01
  43   6     6.853700000000E-01  7.662400000000E-01  1.137100000000E-01
  44   6     5.533200000000E-01  7.511600000000E-01  1.223100000000E-01
  45   6     7.715500000000E-01  6.729100000000E-01  1.332500000000E-01
  46   6     9.325400000000E-01  8.196800000000E-01  1.268700000000E-01
  47   6     7.386100000000E-01  8.814700000000E-01  9.532000000000E-02
  48   6     1.035200000000E-01  3.019200000000E-01  1.409700000000E-01
  49   7     3.382700000000E-01  2.135000000000E-02  3.335400000000E-01
  50   7     2.930900000000E-01  1.387900000000E-01  3.397300000000E-01
  51   7     1.538000000000E-01  1.529000000000E-02  4.091900000000E-01
  52   7     1.826500000000E-01  1.354700000000E-01  3.841500000000E-01
  53   7     4.093500000000E-01  6.442800000000E-01  3.976300000000E-01
  54   7     6.617300000000E-01  9.786500000000E-01  3.335400000000E-01
  55   7     7.069100000000E-01  8.612100000000E-01  3.397300000000E-01
  56   7     8.462000000000E-01  9.847100000000E-01  4.091900000000E-01
  57   7     8.173500000000E-01  8.645300000000E-01  3.841500000000E-01
  58   7     5.906500000000E-01  3.557200000000E-01  3.976300000000E-01
  59   7     2.135000000000E-02  6.617300000000E-01  6.664600000000E-01
  60   7     1.387900000000E-01  7.069100000000E-01  6.602700000000E-01
  61   7     1.529000000000E-02  8.462000000000E-01  5.908100000000E-01
  62   7     1.354700000000E-01  8.173500000000E-01  6.158500000000E-01
  63   7     6.442800000000E-01  5.906500000000E-01  6.023700000000E-01
  64   7     9.786500000000E-01  3.382700000000E-01  6.664600000000E-01
  65   7     8.612100000000E-01  2.930900000000E-01  6.602700000000E-01
  66   7     9.847100000000E-01  1.538000000000E-01  5.908100000000E-01
  67   7     8.645300000000E-01  1.826500000000E-01  6.158500000000E-01
  68   7     3.557200000000E-01  4.093500000000E-01  6.023700000000E-01
  69   7     8.382700000000E-01  5.213500000000E-01  8.335400000000E-01
  70   7     7.930900000000E-01  6.387900000000E-01  8.397300000000E-01
  71   7     6.538000000000E-01  5.152900000000E-01  9.091900000000E-01
  72   7     6.826500000000E-01  6.354700000000E-01  8.841500000000E-01
  73   7     9.093500000000E-01  1.442800000000E-01  8.976300000000E-01
  74   7     1.617300000000E-01  4.786500000000E-01  8.335400000000E-01
  75   7     2.069100000000E-01  3.612100000000E-01  8.397300000000E-01
  76   7     3.462000000000E-01  4.847100000000E-01  9.091900000000E-01
  77   7     3.173500000000E-01  3.645300000000E-01  8.841500000000E-01
  78   7     9.065000000000E-02  8.557200000000E-01  8.976300000000E-01
  79   7     5.213500000000E-01  1.617300000000E-01  1.664600000000E-01
  80   7     6.387900000000E-01  2.069100000000E-01  1.602700000000E-01
  81   7     5.152900000000E-01  3.462000000000E-01  9.081000000000E-02
  82   7     6.354700000000E-01  3.173500000000E-01  1.158500000000E-01
  83   7     1.442800000000E-01  9.065000000000E-02  1.023700000000E-01
  84   7     4.786500000000E-01  8.382700000000E-01  1.664600000000E-01
  85   7     3.612100000000E-01  7.930900000000E-01  1.602700000000E-01
  86   7     4.847100000000E-01  6.538000000000E-01  9.081000000000E-02
  87   7     3.645300000000E-01  6.826500000000E-01  1.158500000000E-01
  88   7     8.557200000000E-01  9.093500000000E-01  1.023700000000E-01
  89  35     5.688000000000E-02  7.661200000000E-01  3.541000000000E-01
  90  35     4.750500000000E-01  8.366900000000E-01  4.321600000000E-01
  91  35     1.107700000000E-01  5.208800000000E-01  3.401400000000E-01
  92  35     3.462100000000E-01  4.486100000000E-01  3.623500000000E-01
  93  35     9.431200000000E-01  2.338800000000E-01  3.541000000000E-01
  94  35     5.249500000000E-01  1.633100000000E-01  4.321600000000E-01
  95  35     8.892300000000E-01  4.791200000000E-01  3.401400000000E-01
  96  35     6.537900000000E-01  5.513900000000E-01  3.623500000000E-01
  97  35     7.661200000000E-01  9.431200000000E-01  6.459000000000E-01
  98  35     8.366900000000E-01  5.249500000000E-01  5.678400000000E-01
  99  35     5.208800000000E-01  8.892300000000E-01  6.598600000000E-01
 100  35     4.486100000000E-01  6.537900000000E-01  6.376500000000E-01
 101  35     2.338800000000E-01  5.688000000000E-02  6.459000000000E-01
 102  35     1.633100000000E-01  4.750500000000E-01  5.678400000000E-01
 103  35     4.791200000000E-01  1.107700000000E-01  6.598600000000E-01
 104  35     5.513900000000E-01  3.462100000000E-01  6.376500000000E-01
 105  35     5.568800000000E-01  2.661200000000E-01  8.541000000000E-01
 106  35     9.750500000000E-01  3.366900000000E-01  9.321600000000E-01
 107  35     6.107700000000E-01  2.088000000000E-02  8.401400000000E-01
 108  35     8.462100000000E-01  9.486100000000E-01  8.623500000000E-01
 109  35     4.431200000000E-01  7.338800000000E-01  8.541000000000E-01
 110  35     2.495000000000E-02  6.633100000000E-01  9.321600000000E-01
 111  35     3.892300000000E-01  9.791200000000E-01  8.401400000000E-01
 112  35     1.537900000000E-01  5.139000000000E-02  8.623500000000E-01
 113  35     2.661200000000E-01  4.431200000000E-01  1.459000000000E-01
 114  35     3.366900000000E-01  2.495000000000E-02  6.784000000000E-02
 115  35     2.088000000000E-02  3.892300000000E-01  1.598600000000E-01
 116  35     9.486100000000E-01  1.537900000000E-01  1.376500000000E-01
 117  35     7.338800000000E-01  5.568800000000E-01  1.459000000000E-01
 118  35     6.633100000000E-01  9.750500000000E-01  6.784000000000E-02
 119  35     9.791200000000E-01  6.107700000000E-01  1.598600000000E-01
 120  35     5.139000000000E-02  8.462100000000E-01  1.376500000000E-01
 121  30    -6.096901308500E-17  5.000000000000E-01  7.500000000000E-01
 122  30    -1.628721055979E-16 -1.628721055979E-16  5.000000000000E-01
 123  30     5.000000000000E-01 -1.628721055979E-16  2.500000000000E-01
 124  30     5.000000000000E-01  5.000000000000E-01  3.343045617758E-16

 *******************************************************************************

 << INFORMATION >>: FROM NOW ON, ALL COORDINATES REFER TO THE PRIMITIVE CELL

 *******************************************************************************

 LATTICE PARAMETERS  (ANGSTROMS AND DEGREES) - PRIMITIVE CELL
       A          B          C        ALPHA      BETA     GAMMA        VOLUME
    9.75968    9.75968    9.75968   112.06117 112.06117 104.40695    711.481158

 INPUT LIST - ATOM N.   2 NOT IRREDUCIBLE

 INPUT LIST - ATOM N.   6 NOT IRREDUCIBLE

 INPUT LIST - ATOM N.  10 NOT IRREDUCIBLE

 INPUT LIST - ATOM N.  14 NOT IRREDUCIBLE

 INPUT LIST - ATOM N.  18 NOT IRREDUCIBLE

 INPUT LIST - ATOM N.  22 NOT IRREDUCIBLE

 INPUT LIST - ATOM N.   3 NOT IRREDUCIBLE

 INPUT LIST - ATOM N.   7 NOT IRREDUCIBLE

 INPUT LIST - ATOM N.  11 NOT IRREDUCIBLE

 INPUT LIST - ATOM N.  15 NOT IRREDUCIBLE

 INPUT LIST - ATOM N.  19 NOT IRREDUCIBLE

 INPUT LIST - ATOM N.  23 NOT IRREDUCIBLE

 INPUT LIST - ATOM N.   4 NOT IRREDUCIBLE

 INPUT LIST - ATOM N.   8 NOT IRREDUCIBLE

 INPUT LIST - ATOM N.  12 NOT IRREDUCIBLE

 INPUT LIST - ATOM N.  16 NOT IRREDUCIBLE

 INPUT LIST - ATOM N.  20 NOT IRREDUCIBLE

 INPUT LIST - ATOM N.  24 NOT IRREDUCIBLE

 INPUT LIST - ATOM N.   1 NOT IRREDUCIBLE

 INPUT LIST - ATOM N.   5 NOT IRREDUCIBLE

 INPUT LIST - ATOM N.   9 NOT IRREDUCIBLE

 INPUT LIST - ATOM N.  13 NOT IRREDUCIBLE

 INPUT LIST - ATOM N.  17 NOT IRREDUCIBLE

 INPUT LIST - ATOM N.  21 NOT IRREDUCIBLE

 INPUT LIST - ATOM N.   2 NOT IRREDUCIBLE

 INPUT LIST - ATOM N.   6 NOT IRREDUCIBLE

 INPUT LIST - ATOM N.  10 NOT IRREDUCIBLE

 INPUT LIST - ATOM N.  14 NOT IRREDUCIBLE

 INPUT LIST - ATOM N.  18 NOT IRREDUCIBLE

 INPUT LIST - ATOM N.  22 NOT IRREDUCIBLE

 INPUT LIST - ATOM N.   3 NOT IRREDUCIBLE

 INPUT LIST - ATOM N.   7 NOT IRREDUCIBLE

 INPUT LIST - ATOM N.  11 NOT IRREDUCIBLE

 INPUT LIST - ATOM N.  15 NOT IRREDUCIBLE

 INPUT LIST - ATOM N.  19 NOT IRREDUCIBLE

 INPUT LIST - ATOM N.  23 NOT IRREDUCIBLE

 INPUT LIST - ATOM N.   4 NOT IRREDUCIBLE

 INPUT LIST - ATOM N.   8 NOT IRREDUCIBLE

 INPUT LIST - ATOM N.  12 NOT IRREDUCIBLE

 INPUT LIST - ATOM N.  16 NOT IRREDUCIBLE

 INPUT LIST - ATOM N.  20 NOT IRREDUCIBLE

 INPUT LIST - ATOM N.  24 NOT IRREDUCIBLE

 INPUT LIST - ATOM N.  26 NOT IRREDUCIBLE

 INPUT LIST - ATOM N.  30 NOT IRREDUCIBLE

 INPUT LIST - ATOM N.  34 NOT IRREDUCIBLE

 INPUT LIST - ATOM N.  38 NOT IRREDUCIBLE

 INPUT LIST - ATOM N.  42 NOT IRREDUCIBLE

 INPUT LIST - ATOM N.  27 NOT IRREDUCIBLE

 INPUT LIST - ATOM N.  31 NOT IRREDUCIBLE

 INPUT LIST - ATOM N.  35 NOT IRREDUCIBLE

 INPUT LIST - ATOM N.  39 NOT IRREDUCIBLE

 INPUT LIST - ATOM N.  43 NOT IRREDUCIBLE

 INPUT LIST - ATOM N.  28 NOT IRREDUCIBLE

 INPUT LIST - ATOM N.  32 NOT IRREDUCIBLE

 INPUT LIST - ATOM N.  36 NOT IRREDUCIBLE

 INPUT LIST - ATOM N.  40 NOT IRREDUCIBLE

 INPUT LIST - ATOM N.  44 NOT IRREDUCIBLE

 INPUT LIST - ATOM N.  25 NOT IRREDUCIBLE

 INPUT LIST - ATOM N.  29 NOT IRREDUCIBLE

 INPUT LIST - ATOM N.  33 NOT IRREDUCIBLE

 INPUT LIST - ATOM N.  37 NOT IRREDUCIBLE

 INPUT LIST - ATOM N.  41 NOT IRREDUCIBLE

 INPUT LIST - ATOM N.  26 NOT IRREDUCIBLE

 INPUT LIST - ATOM N.  30 NOT IRREDUCIBLE

 INPUT LIST - ATOM N.  34 NOT IRREDUCIBLE

 INPUT LIST - ATOM N.  38 NOT IRREDUCIBLE

 INPUT LIST - ATOM N.  42 NOT IRREDUCIBLE

 INPUT LIST - ATOM N.  27 NOT IRREDUCIBLE

 INPUT LIST - ATOM N.  31 NOT IRREDUCIBLE

 INPUT LIST - ATOM N.  35 NOT IRREDUCIBLE

 INPUT LIST - ATOM N.  39 NOT IRREDUCIBLE

 INPUT LIST - ATOM N.  43 NOT IRREDUCIBLE

 INPUT LIST - ATOM N.  28 NOT IRREDUCIBLE

 INPUT LIST - ATOM N.  32 NOT IRREDUCIBLE

 INPUT LIST - ATOM N.  36 NOT IRREDUCIBLE

 INPUT LIST - ATOM N.  40 NOT IRREDUCIBLE

 INPUT LIST - ATOM N.  44 NOT IRREDUCIBLE

 INPUT LIST - ATOM N.  46 NOT IRREDUCIBLE

 INPUT LIST - ATOM N.  50 NOT IRREDUCIBLE

 INPUT LIST - ATOM N.  54 NOT IRREDUCIBLE

 INPUT LIST - ATOM N.  58 NOT IRREDUCIBLE

 INPUT LIST - ATOM N.  47 NOT IRREDUCIBLE

 INPUT LIST - ATOM N.  51 NOT IRREDUCIBLE

 INPUT LIST - ATOM N.  55 NOT IRREDUCIBLE

 INPUT LIST - ATOM N.  59 NOT IRREDUCIBLE

 INPUT LIST - ATOM N.  48 NOT IRREDUCIBLE

 INPUT LIST - ATOM N.  52 NOT IRREDUCIBLE

 INPUT LIST - ATOM N.  56 NOT IRREDUCIBLE

 INPUT LIST - ATOM N.  60 NOT IRREDUCIBLE

 INPUT LIST - ATOM N.  45 NOT IRREDUCIBLE

 INPUT LIST - ATOM N.  49 NOT IRREDUCIBLE

 INPUT LIST - ATOM N.  53 NOT IRREDUCIBLE

 INPUT LIST - ATOM N.  57 NOT IRREDUCIBLE

 INPUT LIST - ATOM N.  46 NOT IRREDUCIBLE

 INPUT LIST - ATOM N.  50 NOT IRREDUCIBLE

 INPUT LIST - ATOM N.  54 NOT IRREDUCIBLE

 INPUT LIST - ATOM N.  58 NOT IRREDUCIBLE

 INPUT LIST - ATOM N.  47 NOT IRREDUCIBLE

 INPUT LIST - ATOM N.  51 NOT IRREDUCIBLE

 INPUT LIST - ATOM N.  55 NOT IRREDUCIBLE

 INPUT LIST - ATOM N.  59 NOT IRREDUCIBLE

 INPUT LIST - ATOM N.  48 NOT IRREDUCIBLE

 INPUT LIST - ATOM N.  52 NOT IRREDUCIBLE

 INPUT LIST - ATOM N.  56 NOT IRREDUCIBLE

 INPUT LIST - ATOM N.  60 NOT IRREDUCIBLE

 INPUT LIST - ATOM N.  61 NOT IRREDUCIBLE

 INPUT LIST - ATOM N.  62 NOT IRREDUCIBLE

 COORDINATES OF THE EQUIVALENT ATOMS (FRACTIONAL UNITS)

 N. ATOM EQUIV AT. N.          X                  Y                  Z

   1   1   1    6 C     2.00920000000E-01 -3.47470000000E-01  8.08700000000E-02
   2   1   2    6 C    -4.28340000000E-01  1.20050000000E-01 -8.08700000000E-02
   3   1   3    6 C     3.47470000000E-01  4.28340000000E-01 -4.51610000000E-01
   4   1   4    6 C    -1.20050000000E-01 -2.00920000000E-01  4.51610000000E-01

   5   2   1    6 C     3.24370000000E-01 -3.71150000000E-01  1.97840000000E-01
   6   2   2    6 C     4.31010000000E-01  1.26530000000E-01 -1.97840000000E-01
   7   2   3    6 C     3.71150000000E-01 -4.31010000000E-01 -3.04480000000E-01
   8   2   4    6 C    -1.26530000000E-01 -3.24370000000E-01  3.04480000000E-01

   9   3   1    6 C     9.52000000000E-02 -4.60340000000E-01 -9.86400000000E-02
  10   3   2    6 C    -3.61700000000E-01  1.93840000000E-01  9.86400000000E-02
  11   3   3    6 C     4.60340000000E-01  3.61700000000E-01 -4.44460000000E-01
  12   3   4    6 C    -1.93840000000E-01 -9.52000000000E-02  4.44460000000E-01

  13   4   1    6 C    -5.94100000000E-02 -3.07190000000E-01 -1.12860000000E-01
  14   4   2    6 C    -1.94330000000E-01  5.34500000000E-02  1.12860000000E-01
  15   4   3    6 C     3.07190000000E-01  1.94330000000E-01  2.47780000000E-01
  16   4   4    6 C    -5.34500000000E-02  5.94100000000E-02 -2.47780000000E-01

  17   5   1    6 C     1.66070000000E-01 -2.13850000000E-01  1.42860000000E-01
  18   5   2    6 C    -3.56710000000E-01  2.32100000000E-02 -1.42860000000E-01
  19   5   3    6 C     2.13850000000E-01  3.56710000000E-01  3.79920000000E-01
  20   5   4    6 C    -2.32100000000E-02 -1.66070000000E-01 -3.79920000000E-01

  21   6   1    6 C    -2.44490000000E-01  1.60950000000E-01  1.98400000000E-01
  22   6   2    6 C    -3.74500000000E-02 -4.42890000000E-01 -1.98400000000E-01
  23   6   3    6 C    -1.60950000000E-01  3.74500000000E-02 -4.05440000000E-01
  24   6   4    6 C     4.42890000000E-01  2.44490000000E-01  4.05440000000E-01












 NUMBER OF SYMMETRY OPERATORS         :    4
 *******************************************************************************
 * GEOMETRY EDITING - INPUT COORDINATES ARE GIVEN IN ANGSTROM         
 *******************************************************************************

 GEOMETRY NOW FULLY CONSISTENT WITH THE GROUP
 INFORMATION **** NEW DEFAULT **** FINALRUN 4 FOR GEOMETRY OPTIMIZATIONS
 INFORMATION **** NEW DEFAULT **** OPTGEOM OPTIMIZES BOTH ATOMIC COORDINATES AND CELL PARAMETERS
 INFORMATION **** NEW DEFAULT **** TOL. ON ATOMIC DISP TO REDEFINE REF. GEOMETRY: 0.8 Angs
 INFORMATION **** NEW DEFAULT **** N POINTS TO REDEFINE REF. GEOMETRY: N OF OPT DEGS OF FREEDOM
 INFORMATION **** NEW DEFAULT **** TOL. ON ENERGY TO REDEFINE REF. GEOMETRY: 10**-3*(5*N. ATOMS)

 IMPORTANT INFORMATION:
 THE COORDINATE SYSTEM ADOPTED IN THE OPTIMIZATION IS NOT IN
 GENERAL HOMOGENEOUS UNITS. FOR THIS REASON THE GRADIENT AND 
 HESSIAN MATRIX IN TERMS OF THIS SYSTEM ARE GIVEN WITHOUT
 UNITS. FOR MORE DETAILS SEE THE MANUAL.

 *******************************************************************************
 COMBINED CELL/ATOM OPTIMIZATION CONTROL

 INITIAL TRUST RADIUS         0.50000 MAXIMUM TRUST RADIUS               4.00000
 MAXIMUM GRADIENT COMPONENT   0.00045 MAXIMUM DISPLACEMENT COMPONENT     0.00180
 R.M.S. OF GRADIENT COMPONENT 0.00030 R.M.S. OF DISPLACEMENT COMPONENTS  0.00120
 THRESHOLD ON ENERGY CHANGE 0.100E-06 EXTRAPOLATING POLYNOMIAL ORDER           2
 MAXIMUM ALLOWED NUMBER OF STEPS   -1 SORTING OF ENERGY POINTS:               NO
 ANALYTICAL  GRADIENT                 HESSIAN UPDATING                      BFGS
 STEP SIZE NUMERICAL GRADIENT 0.00100
 INITIAL HESSIAN MATRIX: SCHLEGEL MODEL 2
 *******************************************************************************


 GCALCO - MAX INDICES DIRECT LATTICE VECTOR    14    14    15
 NO.OF VECTORS CREATED 6999 STARS  487 RMAX   199.84368 BOHR

 GEOMETRY FOR WAVE FUNCTION - DIMENSIONALITY OF THE SYSTEM    3
 (NON PERIODIC DIRECTION: LATTICE PARAMETER FORMALLY SET TO 500)
 *******************************************************************************
 LATTICE PARAMETERS (ANGSTROMS AND DEGREES) - BOHR = 0.5291772083 ANGSTROM
 PRIMITIVE CELL - CENTRING CODE 6/0 VOLUME=   711.481158 - DENSITY  4.571 g/cm^3
         A              B              C           ALPHA      BETA       GAMMA 
     9.75968412     9.75968412     9.75968412   112.061171 112.061171 104.406954
 *******************************************************************************
 ATOMS IN THE ASYMMETRIC UNIT   17 - ATOMS IN THE UNIT CELL:   62
     ATOM                 X/A                 Y/B                 Z/C    
 *******************************************************************************
      1 T   6 C     2.009200000000E-01 -3.474700000000E-01  8.087000000000E-02
      2 F   6 C    -4.283400000000E-01  1.200500000000E-01 -8.087000000000E-02
      3 F   6 C     3.474700000000E-01  4.283400000000E-01 -4.516100000000E-01
      4 F   6 C    -1.200500000000E-01 -2.009200000000E-01  4.516100000000E-01
      5 T   6 C     3.243700000000E-01 -3.711500000000E-01  1.978400000000E-01
      6 F   6 C     4.310100000000E-01  1.265300000000E-01 -1.978400000000E-01
      7 F   6 C     3.711500000000E-01 -4.310100000000E-01 -3.044800000000E-01
      8 F   6 C    -1.265300000000E-01 -3.243700000000E-01  3.044800000000E-01
      9 T   6 C     9.520000000000E-02 -4.603400000000E-01 -9.864000000000E-02
     10 F   6 C    -3.617000000000E-01  1.938400000000E-01  9.864000000000E-02
     11 F   6 C     4.603400000000E-01  3.617000000000E-01 -4.444600000000E-01
     12 F   6 C    -1.938400000000E-01 -9.520000000000E-02  4.444600000000E-01
     13 T   6 C    -5.941000000000E-02 -3.071900000000E-01 -1.128600000000E-01
     14 F   6 C    -1.943300000000E-01  5.345000000000E-02  1.128600000000E-01
     15 F   6 C     3.071900000000E-01  1.943300000000E-01  2.477800000000E-01
     16 F   6 C    -5.345000000000E-02  5.941000000000E-02 -2.477800000000E-01
     17 T   6 C     1.660700000000E-01 -2.138500000000E-01  1.428600000000E-01
     18 F   6 C    -3.567100000000E-01  2.321000000000E-02 -1.428600000000E-01
     19 F   6 C     2.138500000000E-01  3.567100000000E-01  3.799200000000E-01
     20 F   6 C    -2.321000000000E-02 -1.660700000000E-01 -3.799200000000E-01
     21 T   6 C    -2.444900000000E-01  1.609500000000E-01  1.984000000000E-01
     22 F   6 C    -3.745000000000E-02 -4.428900000000E-01 -1.984000000000E-01
     23 F   6 C    -1.609500000000E-01  3.745000000000E-02 -4.054400000000E-01
     24 F   6 C     4.428900000000E-01  2.444900000000E-01  4.054400000000E-01
     25 T   7 N     3.548900000000E-01 -3.281900000000E-01  3.596200000000E-01
     26 F   7 N     3.121900000000E-01 -4.730000000000E-03 -3.596200000000E-01
     27 F   7 N     3.281900000000E-01 -3.121900000000E-01 -3.169200000000E-01
     28 F   7 N     4.730000000000E-03 -3.548900000000E-01  3.169200000000E-01
     29 T   7 N     4.785200000000E-01 -3.671800000000E-01  4.318800000000E-01
     30 F   7 N     2.009400000000E-01  4.664000000000E-02 -4.318800000000E-01
     31 F   7 N     3.671800000000E-01 -2.009400000000E-01 -1.543000000000E-01
     32 F   7 N    -4.664000000000E-02 -4.785200000000E-01  1.543000000000E-01
     33 T   7 N     4.244800000000E-01 -4.370100000000E-01  1.690900000000E-01
     34 F   7 N     3.939000000000E-01  2.553900000000E-01 -1.690900000000E-01
     35 F   7 N     4.370100000000E-01 -3.939000000000E-01 -1.385100000000E-01
     36 F   7 N    -2.553900000000E-01 -4.244800000000E-01  1.385100000000E-01
     37 T   7 N    -4.803800000000E-01 -4.332000000000E-01  3.181200000000E-01
     38 F   7 N     2.486800000000E-01  2.015000000000E-01 -3.181200000000E-01
     39 F   7 N     4.332000000000E-01 -2.486800000000E-01 -4.718000000000E-02
     40 F   7 N    -2.015000000000E-01  4.803800000000E-01  4.718000000000E-02
     41 T   7 N     4.191000000000E-02 -1.930200000000E-01  5.363000000000E-02
     42 F   7 N    -2.466500000000E-01 -1.172000000000E-02 -5.363000000000E-02
     43 F   7 N     1.930200000000E-01  2.466500000000E-01  2.349300000000E-01
     44 F   7 N     1.172000000000E-02 -4.191000000000E-02 -2.349300000000E-01
     45 T  35 BR    1.202200000000E-01  4.109800000000E-01 -1.770000000000E-01
     46 F  35 BR   -4.120200000000E-01  2.972200000000E-01  1.770000000000E-01
     47 F  35 BR   -4.109800000000E-01  4.120200000000E-01 -2.907600000000E-01
     48 F  35 BR   -2.972200000000E-01 -1.202200000000E-01  2.907600000000E-01
     49 T  35 BR    2.688500000000E-01 -9.279000000000E-02  3.117400000000E-01
     50 F  35 BR   -4.045300000000E-01 -4.289000000000E-02 -3.117400000000E-01
     51 F  35 BR    9.279000000000E-02  4.045300000000E-01  3.616400000000E-01
     52 F  35 BR    4.289000000000E-02 -2.688500000000E-01 -3.616400000000E-01
     53 T  35 BR   -1.389800000000E-01  4.509100000000E-01 -3.683500000000E-01
     54 F  35 BR   -1.807400000000E-01  2.293700000000E-01  3.683500000000E-01
     55 F  35 BR   -4.509100000000E-01  1.807400000000E-01  4.101100000000E-01
     56 F  35 BR   -2.293700000000E-01  1.389800000000E-01 -4.101100000000E-01
     57 T  35 BR   -1.890400000000E-01 -2.914400000000E-01 -2.051800000000E-01
     58 F  35 BR   -8.626000000000E-02  1.614000000000E-02  2.051800000000E-01
     59 F  35 BR    2.914400000000E-01  8.626000000000E-02  1.024000000000E-01
     60 F  35 BR   -1.614000000000E-02  1.890400000000E-01 -1.024000000000E-01
     61 T  30 ZN    2.500000000000E-01 -2.500000000000E-01 -5.000000000000E-01
     62 T  30 ZN   -5.000000000000E-01 -5.000000000000E-01 -1.432891878624E-31

 TRANSFORMATION MATRIX PRIMITIVE-CRYSTALLOGRAPHIC CELL
  0.0000  1.0000  1.0000  1.0000  0.0000  1.0000  1.0000  1.0000  0.0000

 *******************************************************************************
 CRYSTALLOGRAPHIC CELL (VOLUME=       1422.96231532)
         A              B              C           ALPHA      BETA       GAMMA 
    10.90645220    10.90645220    11.96262250    90.000000  90.000000  90.000000

 COORDINATES IN THE CRYSTALLOGRAPHIC CELL
     ATOM                 X/A                 Y/B                 Z/C    
 *******************************************************************************
      1 T   6 C    -2.337600000000E-01  3.146300000000E-01 -1.137100000000E-01
      2 F   6 C     2.337600000000E-01 -3.146300000000E-01 -1.137100000000E-01
      3 F   6 C     3.146300000000E-01  2.337600000000E-01  1.137100000000E-01
      4 F   6 C    -3.146300000000E-01 -2.337600000000E-01  1.137100000000E-01
      5 T   6 C     2.511600000000E-01 -5.332000000000E-02  3.776900000000E-01
      6 F   6 C    -2.511600000000E-01  5.332000000000E-02  3.776900000000E-01
      7 F   6 C    -5.332000000000E-02 -2.511600000000E-01 -3.776900000000E-01
      8 F   6 C     5.332000000000E-02  2.511600000000E-01 -3.776900000000E-01
      9 T   6 C    -3.270900000000E-01  2.284500000000E-01 -1.332500000000E-01
     10 F   6 C     3.270900000000E-01 -2.284500000000E-01 -1.332500000000E-01
     11 F   6 C     2.284500000000E-01  3.270900000000E-01  1.332500000000E-01
     12 F   6 C    -2.284500000000E-01 -3.270900000000E-01  1.332500000000E-01
     13 T   6 C    -1.803200000000E-01  6.746000000000E-02 -1.268700000000E-01
     14 F   6 C     1.803200000000E-01 -6.746000000000E-02 -1.268700000000E-01
     15 F   6 C     6.746000000000E-02  1.803200000000E-01  1.268700000000E-01
     16 F   6 C    -6.746000000000E-02 -1.803200000000E-01  1.268700000000E-01
     17 T   6 C    -1.185300000000E-01  2.613900000000E-01 -9.532000000000E-02
     18 F   6 C     1.185300000000E-01 -2.613900000000E-01 -9.532000000000E-02
     19 F   6 C     2.613900000000E-01  1.185300000000E-01  9.532000000000E-02
     20 F   6 C    -2.613900000000E-01 -1.185300000000E-01  9.532000000000E-02
     21 T   6 C     3.019200000000E-01 -1.035200000000E-01 -1.409700000000E-01
     22 F   6 C    -3.019200000000E-01  1.035200000000E-01 -1.409700000000E-01
     23 F   6 C    -1.035200000000E-01 -3.019200000000E-01  1.409700000000E-01
     24 F   6 C     1.035200000000E-01  3.019200000000E-01  1.409700000000E-01
     25 T   7 N     3.382700000000E-01  2.135000000000E-02  3.335400000000E-01
     26 F   7 N    -3.382700000000E-01 -2.135000000000E-02  3.335400000000E-01
     27 F   7 N     2.135000000000E-02 -3.382700000000E-01 -3.335400000000E-01
     28 F   7 N    -2.135000000000E-02  3.382700000000E-01 -3.335400000000E-01
     29 T   7 N    -2.069100000000E-01 -3.612100000000E-01 -1.602700000000E-01
     30 F   7 N     2.069100000000E-01  3.612100000000E-01 -1.602700000000E-01
     31 F   7 N    -3.612100000000E-01  2.069100000000E-01  1.602700000000E-01
     32 F   7 N     3.612100000000E-01 -2.069100000000E-01  1.602700000000E-01
     33 T   7 N     1.538000000000E-01  1.529000000000E-02  4.091900000000E-01
     34 F   7 N    -1.538000000000E-01 -1.529000000000E-02  4.091900000000E-01
     35 F   7 N     1.529000000000E-02 -1.538000000000E-01 -4.091900000000E-01
     36 F   7 N    -1.529000000000E-02  1.538000000000E-01 -4.091900000000E-01
     37 T   7 N     1.826500000000E-01  1.354700000000E-01  3.841500000000E-01
     38 F   7 N    -1.826500000000E-01 -1.354700000000E-01  3.841500000000E-01
     39 F   7 N     1.354700000000E-01 -1.826500000000E-01 -3.841500000000E-01
     40 F   7 N    -1.354700000000E-01  1.826500000000E-01 -3.841500000000E-01
     41 T   7 N    -9.065000000000E-02  1.442800000000E-01 -1.023700000000E-01
     42 F   7 N     9.065000000000E-02 -1.442800000000E-01 -1.023700000000E-01
     43 F   7 N     1.442800000000E-01  9.065000000000E-02  1.023700000000E-01
     44 F   7 N    -1.442800000000E-01 -9.065000000000E-02  1.023700000000E-01
     45 T  35 BR    5.688000000000E-02 -2.338800000000E-01  3.541000000000E-01
     46 F  35 BR   -5.688000000000E-02  2.338800000000E-01  3.541000000000E-01
     47 F  35 BR   -2.338800000000E-01 -5.688000000000E-02 -3.541000000000E-01
     48 F  35 BR    2.338800000000E-01  5.688000000000E-02 -3.541000000000E-01
     49 T  35 BR   -2.495000000000E-02  3.366900000000E-01 -6.784000000000E-02
     50 F  35 BR    2.495000000000E-02 -3.366900000000E-01 -6.784000000000E-02
     51 F  35 BR    3.366900000000E-01  2.495000000000E-02  6.784000000000E-02
     52 F  35 BR   -3.366900000000E-01 -2.495000000000E-02  6.784000000000E-02
     53 T  35 BR   -3.892300000000E-01  2.088000000000E-02 -1.598600000000E-01
     54 F  35 BR    3.892300000000E-01 -2.088000000000E-02 -1.598600000000E-01
     55 F  35 BR    2.088000000000E-02  3.892300000000E-01  1.598600000000E-01
     56 F  35 BR   -2.088000000000E-02 -3.892300000000E-01  1.598600000000E-01
     57 T  35 BR   -1.537900000000E-01 -5.139000000000E-02 -1.376500000000E-01
     58 F  35 BR    1.537900000000E-01  5.139000000000E-02 -1.376500000000E-01
     59 F  35 BR   -5.139000000000E-02  1.537900000000E-01  1.376500000000E-01
     60 F  35 BR    5.139000000000E-02 -1.537900000000E-01  1.376500000000E-01
     61 T  30 ZN   -5.000000000000E-01 -4.309410319602E-17  2.500000000000E-01
     62 T  30 ZN   -7.164459393121E-32 -7.164459393121E-32 -5.000000000000E-01

 T = ATOM BELONGING TO THE ASYMMETRIC UNIT

 ****    4 SYMMOPS - TRANSLATORS IN FRACTIONAL UNITS
 **** MATRICES AND TRANSLATORS IN THE CRYSTALLOGRAPHIC REFERENCE FRAME
   V INV                    ROTATION MATRICES                   TRANSLATORS
   1   1  1.00  0.00  0.00  0.00  1.00  0.00  0.00  0.00  1.00  0.00  0.00  0.00
   2   2  0.00  1.00 -1.00  1.00 -0.00 -1.00  0.00 -0.00 -1.00  0.00  0.00  0.00
   3   4  0.00 -1.00 -0.00 -0.00 -1.00  1.00  1.00 -1.00 -0.00  0.00  0.00  0.00
   4   3 -1.00  0.00  1.00 -1.00 -0.00  0.00 -1.00  1.00  0.00  0.00  0.00  0.00

 DIRECT LATTICE VECTORS CARTESIAN COMPONENTS (ANGSTROM)
          X                    Y                    Z
  -0.545322610000E+01   0.545322610000E+01   0.598131125000E+01
   0.545322610000E+01  -0.545322610000E+01   0.598131125000E+01
   0.545322610000E+01   0.545322610000E+01  -0.598131125000E+01


 CARTESIAN COORDINATES - PRIMITIVE CELL
 *******************************************************************************
 *      ATOM          X(ANGSTROM)         Y(ANGSTROM)         Z(ANGSTROM)
 *******************************************************************************
    1     6 C    -2.549492266272E+00  3.431497055686E+00 -1.360269804475E+00
    2     6 C     2.549492266272E+00 -3.431497055686E+00 -1.360269804475E+00
    3     6 C     3.431497055686E+00  2.549492266272E+00  1.360269804475E+00
    4     6 C    -3.431497055686E+00 -2.549492266272E+00  1.360269804475E+00
    5     6 C     2.739264534552E+00 -5.815320313040E-01  4.518162892025E+00
    6     6 C    -2.739264534552E+00  5.815320313040E-01  4.518162892025E+00
    7     6 C    -5.815320313040E-01 -2.739264534552E+00 -4.518162892025E+00
    8     6 C     5.815320313040E-01  2.739264534552E+00 -4.518162892025E+00
    9     6 C    -3.567391450098E+00  2.491579005090E+00 -1.594019448125E+00
   10     6 C     3.567391450098E+00 -2.491579005090E+00 -1.594019448125E+00
   11     6 C     2.491579005090E+00  3.567391450098E+00  1.594019448125E+00
   12     6 C    -2.491579005090E+00 -3.567391450098E+00  1.594019448125E+00
   13     6 C    -1.966651460704E+00  7.357492654120E-01 -1.517697916575E+00
   14     6 C     1.966651460704E+00 -7.357492654120E-01 -1.517697916575E+00
   15     6 C     7.357492654120E-01  1.966651460704E+00  1.517697916575E+00
   16     6 C    -7.357492654120E-01 -1.966651460704E+00  1.517697916575E+00
   17     6 C    -1.292741779266E+00  2.850837540558E+00 -1.140277176700E+00
   18     6 C     1.292741779266E+00 -2.850837540558E+00 -1.140277176700E+00
   19     6 C     2.850837540558E+00  1.292741779266E+00  1.140277176700E+00
   20     6 C    -2.850837540558E+00 -1.292741779266E+00  1.140277176700E+00
   21     6 C     3.292876048224E+00 -1.129035931744E+00 -1.686370893825E+00
   22     6 C    -3.292876048224E+00  1.129035931744E+00 -1.686370893825E+00
   23     6 C    -1.129035931744E+00 -3.292876048224E+00  1.686370893825E+00
   24     6 C     1.129035931744E+00  3.292876048224E+00  1.686370893825E+00
   25     7 N     3.689325585694E+00  2.328527544700E-01  3.990013108650E+00
   26     7 N    -3.689325585694E+00 -2.328527544700E-01  3.990013108650E+00
   27     7 N     2.328527544700E-01 -3.689325585694E+00 -3.990013108650E+00
   28     7 N    -2.328527544700E-01  3.689325585694E+00 -3.990013108650E+00
   29     7 N    -2.256654024702E+00 -3.939519599162E+00 -1.917249508075E+00
   30     7 N     2.256654024702E+00  3.939519599162E+00 -1.917249508075E+00
   31     7 N    -3.939519599162E+00  2.256654024702E+00  1.917249508075E+00
   32     7 N     3.939519599162E+00 -2.256654024702E+00  1.917249508075E+00
   33     7 N     1.677412348360E+00  1.667596541380E-01  4.894985500775E+00
   34     7 N    -1.677412348360E+00 -1.667596541380E-01  4.894985500775E+00
   35     7 N     1.667596541380E-01 -1.677412348360E+00 -4.894985500775E+00
   36     7 N    -1.667596541380E-01  1.677412348360E+00 -4.894985500775E+00
   37     7 N     1.992063494330E+00  1.477497079534E+00  4.595441433375E+00
   38     7 N    -1.992063494330E+00 -1.477497079534E+00  4.595441433375E+00
   39     7 N     1.477497079534E+00 -1.992063494330E+00 -4.595441433375E+00
   40     7 N    -1.477497079534E+00  1.992063494330E+00 -4.595441433375E+00
   41     7 N    -9.886698919300E-01  1.573582923416E+00 -1.224613665325E+00
   42     7 N     9.886698919300E-01 -1.573582923416E+00 -1.224613665325E+00
   43     7 N     1.573582923416E+00  9.886698919300E-01  1.224613665325E+00
   44     7 N    -1.573582923416E+00 -9.886698919300E-01  1.224613665325E+00
   45    35 BR    6.203590011360E-01 -2.550801040536E+00  4.235964627250E+00
   46    35 BR   -6.203590011360E-01  2.550801040536E+00  4.235964627250E+00
   47    35 BR   -2.550801040536E+00 -6.203590011360E-01 -4.235964627250E+00
   48    35 BR    2.550801040536E+00  6.203590011360E-01 -4.235964627250E+00
   49    35 BR   -2.721159823900E-01  3.672093391218E+00 -8.115443104000E-01
   50    35 BR    2.721159823900E-01 -3.672093391218E+00 -8.115443104000E-01
   51    35 BR    3.672093391218E+00  2.721159823900E-01  8.115443104000E-01
   52    35 BR   -3.672093391218E+00 -2.721159823900E-01  8.115443104000E-01
   53    35 BR   -4.245118389806E+00  2.277267219360E-01 -1.912344832850E+00
   54    35 BR    4.245118389806E+00 -2.277267219360E-01 -1.912344832850E+00
   55    35 BR    2.277267219360E-01  4.245118389806E+00  1.912344832850E+00
   56    35 BR   -2.277267219360E-01 -4.245118389806E+00  1.912344832850E+00
   57    35 BR   -1.677303283838E+00 -5.604825785580E-01 -1.646654987125E+00
   58    35 BR    1.677303283838E+00  5.604825785580E-01 -1.646654987125E+00
   59    35 BR   -5.604825785580E-01  1.677303283838E+00  1.646654987125E+00
   60    35 BR    5.604825785580E-01 -1.677303283838E+00  1.646654987125E+00
   61    30 ZN    5.453226100000E+00 -4.700037766092E-16 -8.971966875000E+00
   62    30 ZN   -7.813883390991E-31 -7.813883390991E-31  5.981311250000E+00

 *******************************************************************************
 STARTING BASIS SET HANDLING 
 *******************************************************************************

 Loading internal basis set: POB-DZVPP           

 Please cite in your publication:
 Peintinger, M. F., Oliveira, D. V. and Bredow, T. (2013), Generally applicable 
 solid-state Gaussian basis sets, in preparation                                
                                                                                
                    

 *******************************************************************************
 LOCAL ATOMIC FUNCTIONS BASIS SET
 *******************************************************************************
   ATOM   X(AU)   Y(AU)   Z(AU)  N. TYPE  EXPONENT  S COEF   P COEF   D/F/G COEF
 *******************************************************************************
   1 C   -4.818   6.485  -2.571
                                  1 S  
                                         1.238E+03 5.457E-03 0.000E+00 0.000E+00
                                         1.863E+02 4.064E-02 0.000E+00 0.000E+00
                                         4.225E+01 1.803E-01 0.000E+00 0.000E+00
                                         1.168E+01 4.632E-01 0.000E+00 0.000E+00
                                         3.593E+00 4.409E-01 0.000E+00 0.000E+00
                                  2 S  
                                         5.281E+00 1.000E+00 0.000E+00 0.000E+00
                                  3 S  
                                         4.447E-01 1.000E+00 0.000E+00 0.000E+00
                           4-     6 P  
                                         9.468E+00 0.000E+00 3.839E-02 0.000E+00
                                         2.010E+00 0.000E+00 2.112E-01 0.000E+00
                                         5.477E-01 0.000E+00 5.133E-01 0.000E+00
                           7-     9 P  
                                         1.604E-01 0.000E+00 1.000E+00 0.000E+00
                          10-    14 D  
                                         6.070E-01 0.000E+00 0.000E+00 1.000E+00
                          15-    19 D  
                                         2.939E-01 0.000E+00 0.000E+00 1.000E+00
   2 C    4.818  -6.485  -2.571
   3 C    6.485   4.818   2.571
   4 C   -6.485  -4.818   2.571
   5 C    5.176  -1.099   8.538
   6 C   -5.176   1.099   8.538
   7 C   -1.099  -5.176  -8.538
   8 C    1.099   5.176  -8.538
   9 C   -6.741   4.708  -3.012
  10 C    6.741  -4.708  -3.012
  11 C    4.708   6.741   3.012
  12 C   -4.708  -6.741   3.012
  13 C   -3.716   1.390  -2.868
  14 C    3.716  -1.390  -2.868
  15 C    1.390   3.716   2.868
  16 C   -1.390  -3.716   2.868
  17 C   -2.443   5.387  -2.155
  18 C    2.443  -5.387  -2.155
  19 C    5.387   2.443   2.155
  20 C   -5.387  -2.443   2.155
  21 C    6.223  -2.134  -3.187
  22 C   -6.223   2.134  -3.187
  23 C   -2.134  -6.223   3.187
  24 C    2.134   6.223   3.187
  25 N    6.972   0.440   7.540
                                457 S  
                                         1.713E+03-5.393E-03 0.000E+00 0.000E+00
                                         2.576E+02-4.022E-02 0.000E+00 0.000E+00
                                         5.846E+01-1.793E-01 0.000E+00 0.000E+00
                                         1.620E+01-4.638E-01 0.000E+00 0.000E+00
                                         5.005E+00-4.417E-01 0.000E+00 0.000E+00
                                458 S  
                                         6.217E-01 1.000E+00 0.000E+00 0.000E+00
                                459 S  
                                         2.921E-01 1.000E+00 0.000E+00 0.000E+00
                         460-   462 P  
                                         1.357E+01 0.000E+00-4.007E-02 0.000E+00
                                         2.926E+00 0.000E+00-2.181E-01 0.000E+00
                                         7.993E-01 0.000E+00-5.129E-01 0.000E+00
                         463-   465 P  
                                         2.244E-01 0.000E+00 1.000E+00 0.000E+00
                         466-   470 D  
                                         3.118E-01 0.000E+00 0.000E+00 1.000E+00
  26 N   -6.972  -0.440   7.540
  27 N    0.440  -6.972  -7.540
  28 N   -0.440   6.972  -7.540
  29 N   -4.264  -7.445  -3.623
  30 N    4.264   7.445  -3.623
  31 N   -7.445   4.264   3.623
  32 N    7.445  -4.264   3.623
  33 N    3.170   0.315   9.250
  34 N   -3.170  -0.315   9.250
  35 N    0.315  -3.170  -9.250
  36 N   -0.315   3.170  -9.250
  37 N    3.764   2.792   8.684
  38 N   -3.764  -2.792   8.684
  39 N    2.792  -3.764  -8.684
  40 N   -2.792   3.764  -8.684
  41 N   -1.868   2.974  -2.314
  42 N    1.868  -2.974  -2.314
  43 N    2.974   1.868   2.314
  44 N   -2.974  -1.868   2.314
  45 BR   1.172  -4.820   8.005
                                737 S  
                                         1.133E+05 1.428E-03 0.000E+00 0.000E+00
                                         1.701E+04 1.095E-02 0.000E+00 0.000E+00
                                         3.870E+03 5.442E-02 0.000E+00 0.000E+00
                                         1.093E+03 1.905E-01 0.000E+00 0.000E+00
                                         3.564E+02 3.902E-01 0.000E+00 0.000E+00
                                         1.231E+02 3.081E-01 0.000E+00 0.000E+00
                                738 S  
                                         2.367E+02-1.123E-01 0.000E+00 0.000E+00
                                         2.847E+01 6.478E-01 0.000E+00 0.000E+00
                                         1.188E+01 4.424E-01 0.000E+00 0.000E+00
                                739 S  
                                         2.127E+01-2.264E-01 0.000E+00 0.000E+00
                                         3.613E+00 7.382E-01 0.000E+00 0.000E+00
                                         1.663E+00 4.268E-01 0.000E+00 0.000E+00
                                740 S  
                                         3.641E-01 1.000E+00 0.000E+00 0.000E+00
                                741 S  
                                         1.243E-01 1.000E+00 0.000E+00 0.000E+00
                         742-   744 P  
                                         1.560E+03 0.000E+00 8.717E-03 0.000E+00
                                         3.685E+02 0.000E+00 6.624E-02 0.000E+00
                                         1.172E+02 0.000E+00 2.650E-01 0.000E+00
                                         4.265E+01 0.000E+00 5.384E-01 0.000E+00
                                         1.609E+01 0.000E+00 3.658E-01 0.000E+00
                         745-   747 P  
                                         8.635E+00 0.000E+00 3.425E-01 0.000E+00
                                         3.561E+00 0.000E+00 5.750E-01 0.000E+00
                                         1.529E+00 0.000E+00 2.433E-01 0.000E+00
                         748-   750 P  
                                         6.447E-01 0.000E+00 1.000E+00 0.000E+00
                         751-   753 P  
                                         2.103E-01 0.000E+00 1.000E+00 0.000E+00
                         754-   758 D  
                                         1.049E+02 0.000E+00 0.000E+00 2.265E-02
                                         3.028E+01 0.000E+00 0.000E+00 1.346E-01
                                         1.065E+01 0.000E+00 0.000E+00 3.647E-01
                                         3.870E+00 0.000E+00 0.000E+00 4.904E-01
                         759-   763 D  
                                         1.342E+00 0.000E+00 0.000E+00 1.000E+00
                         764-   768 D  
                                         4.101E-01 0.000E+00 0.000E+00 1.000E+00
                         769-   773 D  
                                         1.985E-01 0.000E+00 0.000E+00 1.000E+00
  46 BR  -1.172   4.820   8.005
  47 BR  -4.820  -1.172  -8.005
  48 BR   4.820   1.172  -8.005
  49 BR  -0.514   6.939  -1.534
  50 BR   0.514  -6.939  -1.534
  51 BR   6.939   0.514   1.534
  52 BR  -6.939  -0.514   1.534
  53 BR  -8.022   0.430  -3.614
  54 BR   8.022  -0.430  -3.614
  55 BR   0.430   8.022   3.614
  56 BR  -0.430  -8.022   3.614
  57 BR  -3.170  -1.059  -3.112
  58 BR   3.170   1.059  -3.112
  59 BR  -1.059   3.170   3.112
  60 BR   1.059  -3.170   3.112
  61 ZN  10.305  -0.000 -16.955
                               1329 S  
                                         8.200E+04 1.421E-03 0.000E+00 0.000E+00
                                         1.231E+04 1.089E-02 0.000E+00 0.000E+00
                                         2.801E+03 5.406E-02 0.000E+00 0.000E+00
                                         7.910E+02 1.885E-01 0.000E+00 0.000E+00
                                         2.576E+02 3.835E-01 0.000E+00 0.000E+00
                                         8.881E+01 2.972E-01 0.000E+00 0.000E+00
                               1330 S  
                                         1.719E+02-1.105E-01 0.000E+00 0.000E+00
                                         2.030E+01 6.461E-01 0.000E+00 0.000E+00
                                         8.346E+00 4.422E-01 0.000E+00 0.000E+00
                               1331 S  
                                         1.485E+01-2.271E-01 0.000E+00 0.000E+00
                                         2.450E+00 7.243E-01 0.000E+00 0.000E+00
                                         9.985E-01 4.484E-01 0.000E+00 0.000E+00
                               1332 S  
                                         1.493E+00 1.000E+00 0.000E+00 0.000E+00
                               1333 S  
                                         1.830E-01 1.000E+00 0.000E+00 0.000E+00
                        1334-  1336 P  
                                         1.072E+03 0.000E+00 9.277E-03 0.000E+00
                                         2.527E+02 0.000E+00 6.954E-02 0.000E+00
                                         8.010E+01 0.000E+00 2.716E-01 0.000E+00
                                         2.890E+01 0.000E+00 5.340E-01 0.000E+00
                                         1.077E+01 0.000E+00 3.450E-01 0.000E+00
                        1337-  1339 P  
                                         5.645E+00 0.000E+00 3.413E-01 0.000E+00
                                         2.168E+00 0.000E+00 5.639E-01 0.000E+00
                                         8.054E-01 0.000E+00 2.368E-01 0.000E+00
                        1340-  1342 P  
                                         2.721E-01 0.000E+00 1.000E+00 0.000E+00
                        1343-  1347 D  
                                         5.609E+01 0.000E+00 0.000E+00 2.959E-02
                                         1.575E+01 0.000E+00 0.000E+00 1.587E-01
                                         5.312E+00 0.000E+00 0.000E+00 3.798E-01
                                         1.774E+00 0.000E+00 0.000E+00 4.690E-01
                        1348-  1352 D  
                                         5.073E-01 0.000E+00 0.000E+00 1.000E+00
                        1353-  1359 F  
                                         2.814E+00 0.000E+00 0.000E+00 1.000E+00
                        1360-  1366 F  
                                         1.300E+00 0.000E+00 0.000E+00 1.000E+00
  62 ZN  -0.000  -0.000  11.303

 *******************************************************************************
 FINISHED BASIS SET HANDLING 
 *******************************************************************************

 INFORMATION **** SET_MPP **** PCRYSTAL CALCULATION
 INFORMATION **** READM2 **** NEW DEFAULT: FOCK/KS MATRIX MIXING SET TO 30 %
 INFORMATION **** READM2 **** NEW DEFAULT: FULL DIRECT SCF MODE
 INFORMATION **** READM2 **** NEW DEFAULT: COULOMB BIPOLAR BUFFER SET TO 32 Mb
 INFORMATION **** READM2 **** NEW DEFAULT: EXCHANGE BIPOLAR BUFFER SET TO 32 Mb

 *******************************************************************************
 NEW DEFAULT: DFT INTEGRATION GRID INCREASED TO XLGRID
 NEW DEFAULT: DIIS ACCELERATOR ACTIVE
 USE KEYWORD NODIIS TO TURN IT OFF
 *******************************************************************************

 INFORMATION **** DFTD3_INPUT **** PERFORM DISPERSION CORRECTION DFT-D3(BJ) IN THE BECKE-JOHNSON DAMPING SCHEME

 PLEASE CITE:
 (1) DFT-D3 Reference
  S. Grimme, J. Antony, S. Ehrlich, and H. Krieg, J. Chem. Phys. 132 (2010), 154104
 (2) BJ-Damping Reference
  S. Grimme, S. Ehrlich, and L. Goerigk, J. Comput. Chem. 32 (2011), 1456-1465
 (3) General DFT-D Review
  S. Grimme, A. Hansen, J. G. Brandenburg, and C. Bannwarth,
  Chem. Rev. 116 (2016), 5105-5154

 INFORMATION **** BIPOSIZE **** COULOMB BIPOLAR BUFFER SET TO    30000000
 INFORMATION **** EXCHSIZE **** EXCHANGE BIPOLAR BUFFER SIZE SET TO    30000000
 INFORMATION **** TOLINTEG **** COULOMB AND EXCHANGE SERIES TOLERANCES MODIFIED
 INFORMATION **** MAXCYCLE **** MAX NUMBER OF SCF CYCLES SET TO        1000
 *******************************************************************************
 N. OF ATOMS PER CELL        62  COULOMB OVERLAP TOL         (T1) 10**  -12
 NUMBER OF SHELLS           520  COULOMB PENETRATION TOL     (T2) 10**  -12
 NUMBER OF AO              1404  EXCHANGE OVERLAP TOL        (T3) 10**   20
 N. OF ELECTRONS PER CELL   904  EXCHANGE PSEUDO OVP (F(G))  (T4) 10**   20
 CORE ELECTRONS PER CELL    572  EXCHANGE PSEUDO OVP (P(G))  (T5) 10**   20
 N. OF SYMMETRY OPERATORS     4  POLE ORDER IN MONO ZONE                  4
 *******************************************************************************
 TYPE OF CALCULATION :  RESTRICTED CLOSED SHELL
 KOHN-SHAM HAMILTONIAN

 (EXCHANGE)[CORRELATION] FUNCTIONAL:(PERDEW-BURKE-ERNZERHOF)[PERDEW-BURKE-ERNZERHOF]


 CAPPA:IS1  3;IS2  3;IS3  3; K PTS MONK NET   6; SYMMOPS:K SPACE   8;G SPACE   4

 *******************************************************************************
 MAX NUMBER OF SCF CYCLES    1000  CONVERGENCE ON DELTAP        10**-16
 WEIGHT OF F(I) IN F(I+1)      30% CONVERGENCE ON ENERGY        10**- 7
 SHRINK. FACT.(MONKH.)    3  3  3  NUMBER OF K POINTS IN THE IBZ      6
 SHRINKING FACTOR(GILAT NET)    3  NUMBER OF K POINTS(GILAT NET)      6
 *******************************************************************************
 *** K POINTS COORDINATES (OBLIQUE COORDINATES IN UNITS OF IS =  3)
   1-R(  0  0  0)   2-C(  1  0  0)   3-C(  1  1  0)   4-C(  2  1  0)
   5-C(  2  1  1)   6-C(  2  2  1)

 DIRECT LATTICE VECTORS COMPON. (A.U.)     RECIP. LATTICE VECTORS COMPON. (A.U.) 
        X            Y            Z              X            Y            Z
  -10.3051039   10.3051039   11.3030402      0.0000000    0.3048579    0.2779423
   10.3051039  -10.3051039   11.3030402      0.3048579    0.0000000    0.2779423
   10.3051039   10.3051039  -11.3030402      0.3048579    0.3048579    0.0000000

 DISK SPACE FOR EIGENVECTORS (FTN 10)    21683376 REALS

 SYMMETRY ADAPTION OF THE BLOCH FUNCTIONS ENABLED
 TTTTTTTTTTTTTTTTTTTTTTTTTTTTTT gordsh1     TELAPSE        3.02 TCPU        0.08

 MATRIX SIZE: P(G) 2796084, F(G) 1399128, P(G) IRR  352694, F(G) IRR  352694
 MAX G-VECTOR INDEX FOR 1- AND 2-ELECTRON INTEGRALS  59

 TTTTTTTTTTTTTTTTTTTTTTTTTTTTTT INPUT       TELAPSE        3.17 TCPU        0.22

 NEIGHBORS OF THE NON-EQUIVALENT ATOMS

 N = NUMBER OF NEIGHBORS AT DISTANCE R
    ATOM  N     R/ANG      R/AU   NEIGHBORS (ATOM LABELS AND CELL INDICES)
   1 C    1     1.4018     2.6490   17 C    0 0 0
   1 C    1     1.4051     2.6552    9 C    0 0 0
   1 C    1     1.4532     2.7462    5 C    0-1 0
   1 C    1     2.3549     4.4501   49 BR   0 0 0
   1 C    1     2.3753     4.4886   45 BR   0-1 0
   1 C    1     2.4303     4.5926   41 N    0 0 0

   5 C    1     1.3526     2.5560   33 N    0 0 0
   5 C    1     1.3582     2.5667   25 N    0 0 0
   5 C    1     1.4532     2.7462    1 C    0 1 0
   5 C    1     2.1918     4.1419   37 N    0 0 0
   5 C    1     2.1921     4.1425   29 N    1 1 1
   5 C    1     2.4916     4.7084   17 C    0 1 0

   9 C    1     1.3391     2.5305   45 BR   0-1 0
   9 C    1     1.3930     2.6324   22 C    0 0 0
   9 C    1     1.4051     2.6552    1 C    0 0 0
   9 C    1     2.3471     4.4354   17 C    0 0 0
   9 C    1     2.3772     4.4923   13 C    0 0 0
   9 C    1     2.3845     4.5060   53 BR   0 0 0

  13 C    1     1.3207     2.4958   41 N    0 0 0
  13 C    1     1.3344     2.5216   57 BR   0 0 0
  13 C    1     1.3936     2.6334   22 C    0 0 0
  13 C    1     2.2517     4.2551   17 C    0 0 0
  13 C    1     2.3675     4.4740   53 BR   0 0 0
  13 C    1     2.3772     4.4923    9 C    0 0 0

  17 C    1     1.3157     2.4862   41 N    0 0 0
  17 C    1     1.3506     2.5523   49 BR   0 0 0
  17 C    1     1.4018     2.6490    1 C    0 0 0
  17 C    1     2.2517     4.2551   13 C    0 0 0
  17 C    1     2.3471     4.4354    9 C    0 0 0
  17 C    1     2.4916     4.7084    5 C    0-1 0

  21 C    1     1.3305     2.5143   54 BR   0 0 0
  21 C    1     1.3930     2.6324   10 C    0 0 0
  21 C    1     1.3936     2.6334   14 C    0 0 0
  21 C    1     2.3380     4.4181   58 BR   0 0 0
  21 C    1     2.3495     4.4398   46 BR  -1 0 0
  21 C    1     2.3917     4.5196   42 N    0 0 0

  25 N    1     1.3582     2.5667    5 C    0 0 0
  25 N    1     1.3744     2.5972   29 N    1 1 1
  25 N    1     2.0407     3.8563   61 ZN   1 1 0
  25 N    1     2.1901     4.1386   37 N    0 0 0
  25 N    1     2.2071     4.1707   33 N    0 0 0
  25 N    1     2.4695     4.6667    1 C    0 1 0

  29 N    1     1.3170     2.4888   37 N   -1-1-1
  29 N    1     1.3744     2.5972   25 N   -1-1-1
  29 N    1     2.1921     4.1425    5 C   -1-1-1
  29 N    1     2.1938     4.1456   33 N   -1-1-1
  29 N    1     2.7729     5.2400   50 BR   0 0 0
  29 N    1     2.9049     5.4895    3 C   -1-1-1

  33 N    1     1.3526     2.5560    5 C    0 0 0
  33 N    1     1.3809     2.6094   37 N    0 0 0
  33 N    1     2.0054     3.7897   62 ZN   0 0 0
  33 N    1     2.1938     4.1456   29 N    1 1 1
  33 N    1     2.2071     4.1707   25 N    0 0 0
  33 N    1     2.5236     4.7689    1 C    0 1 0

  37 N    1     1.3170     2.4888   29 N    1 1 1
  37 N    1     1.3809     2.6094   33 N    0 0 0
  37 N    1     2.1901     4.1386   25 N    0 0 0
  37 N    1     2.1918     4.1419    5 C    0 0 0
  37 N    1     2.8411     5.3689   62 ZN   0 0 0
  37 N    1     2.8471     5.3802   46 BR   0 0 0

  41 N    1     1.3157     2.4862   17 C    0 0 0
  41 N    1     1.3207     2.4958   13 C    0 0 0
  41 N    1     2.2556     4.2625   49 BR   0 0 0
  41 N    1     2.2818     4.3120   57 BR   0 0 0
  41 N    1     2.3917     4.5196   22 C    0 0 0
  41 N    1     2.4303     4.5926    1 C    0 0 0

  45 BR   1     1.3391     2.5305    9 C    0 1 0
  45 BR   1     2.3495     4.4398   22 C    0 1 0
  45 BR   1     2.3753     4.4886    1 C    0 1 0
  45 BR   1     2.7333     5.1653   60 BR   0 0 0
  45 BR   1     2.7436     5.1847   53 BR   0 1 0
  45 BR   1     2.8471     5.3802   38 N    0 0 0

  49 BR   1     1.3506     2.5523   17 C    0 0 0
  49 BR   1     2.2556     4.2625   41 N    0 0 0
  49 BR   1     2.3549     4.4501    1 C    0 0 0
  49 BR   1     2.7701     5.2347   25 N    0-1 0
  49 BR   1     2.7729     5.2400   30 N    0 0 0
  49 BR   1     2.7975     5.2866    5 C    0-1 0

  53 BR   1     1.3305     2.5143   22 C    0 0 0
  53 BR   1     2.3675     4.4740   13 C    0 0 0
  53 BR   1     2.3845     4.5060    9 C    0 0 0
  53 BR   1     2.4588     4.6464   54 BR   0-1-1
  53 BR   1     2.6992     5.1007   57 BR   0 0 0
  53 BR   1     2.7436     5.1847   45 BR   0-1 0

  57 BR   1     1.3344     2.5216   13 C    0 0 0
  57 BR   1     2.2818     4.3120   41 N    0 0 0
  57 BR   1     2.3380     4.4181   22 C    0 0 0
  57 BR   1     2.6992     5.1007   53 BR   0 0 0
  57 BR   1     2.7333     5.1653   47 BR   0 0 0
  57 BR   1     2.8830     5.4482   42 N    0 0 0

  61 ZN   4     2.0407     3.8563   25 N   -1-1 0   26 N   -1 0 1   27 N    0 0 1
                                    28 N   -1 0 0
  61 ZN   4     2.8275     5.3433   49 BR  -1 0 0   50 BR   0 0 1   51 BR  -1-1 0
                                    52 BR  -1 0 1
  61 ZN   4     2.9216     5.5211   29 N    0 0 1   30 N   -1 0 0   31 N   -1 0 1
                                    32 N   -1-1 0
  61 ZN   4     3.1681     5.9869    5 C   -1-1 0    6 C   -1 0 1    7 C    0 0 1
                                     8 C   -1 0 0
  61 ZN   4     3.4449     6.5100   17 C   -1 0 0   18 C    0 0 1   19 C   -1-1 0
                                    20 C   -1 0 1
  61 ZN   4     3.6394     6.8775    1 C   -1 0 0    2 C    0 0 1    3 C   -1-1 0
                                     4 C   -1 0 1

  62 ZN   4     2.0054     3.7897   33 N    0 0 0   34 N    0 0 0   35 N    1 1 0
                                    36 N    1 1 0
  62 ZN   4     2.8411     5.3689   37 N    0 0 0   38 N    0 0 0   39 N    1 1 0
                                    40 N    1 1 0
  62 ZN   4     3.1524     5.9572   45 BR   0 0 0   46 BR   0 0 0   47 BR   1 1 0
                                    48 BR   1 1 0
  62 ZN   4     3.1595     5.9706    5 C    0 0 0    6 C    0 0 0    7 C    1 1 0
                                     8 C    1 1 0
  62 ZN   4     3.7907     7.1634    1 C    0 1 0    2 C    1 0 0    3 C    0 0-1
                                     4 C    1 1 1
  62 ZN   4     3.8560     7.2868    9 C    0 1 0   10 C    1 0 0   11 C    0 0-1
                                    12 C    1 1 1


 SYMMETRY ALLOWED ELASTIC DISTORTION 1
  0.5773503  0.0000000  0.0000000
  0.0000000  0.5773503  0.0000000
  0.0000000  0.0000000  0.5773503

 SYMMETRY ALLOWED ELASTIC DISTORTION 2
  0.4082483  0.0000000  0.0000000
  0.0000000  0.4082483  0.0000000
  0.0000000  0.0000000 -0.8164966

 SYMMETRY ALLOWED INTERNAL DEGREE(S) OF FREEDOM:  45
 TTTTTTTTTTTTTTTTTTTTTTTTTTTTTT SYMM        TELAPSE        3.20 TCPU        0.25
 TTTTTTTTTTTTTTTTTTTTTTTTTTTTTT INT_SCREEN  TELAPSE        3.21 TCPU        0.26

 *******************************************************************************
 *                             OPTIMIZATION STARTS                             *
 *******************************************************************************
 RECLASIFICATION OF INDICES FOR INTEGRAL CALC ACCORDING TO DIFFERENT CRITERIA:
           FIXDELTE                  FIXDELTX              FIXDELTN
          0.10000000               0.80000000                 47
 DEFAULT MAX NUM OF POINTS  100
 *******************************************************************************

 *******************************************************************************
 COORDINATE AND CELL OPTIMIZATION - POINT    1
 INFORMATION **** EXCBUF **** EXCH. BIPO BUFFER: WORDS USED =           0

 DFT PARAMETERS

     ATOM       ELECTRONS   NET CHARGE   R(ANGSTROM)
   1   6  C       6.0000      0.0000     0.77000000
  25   7  N       7.0000      0.0000     0.74000000
  45  35  BR     35.0000      0.0000     1.14000000
  61  30  ZN     30.0000      0.0000     1.37000000

 SIZE OF GRID=     443451
 TTTTTTTTTTTTTTTTTTTTTTTTTTTTTT MAKE_GRID2  TELAPSE        4.49 TCPU        1.53
 BECKE WEIGHT FUNCTION
 RADSAFE =     2.00
 TOLERANCES - DENSITY:10**- 6; POTENTIAL:10**- 9; GRID WGT:10**-14

 RADIAL INTEGRATION  - INTERVALS (POINTS,UPPER LIMIT):            1( 75,  4.0*R)

 ANGULAR INTEGRATION - INTERVALS (ACCURACY LEVEL [N. POINTS] UPPER LIMIT):
  1(  4[  86]   0.2)  2(  8[ 194]   0.5)  3( 12[ 350]   0.9)  4( 16[ 974]   3.5)
  5( 12[ 350]9999.0)
 TTTTTTTTTTTTTTTTTTTTTTTTTTTTTT INT_CALC    TELAPSE        4.54 TCPU        1.58

 *******************************************************************************
 C:\Users\wilso\AppData\Local\Temp\tmp_p\newconn.mol                             
 CRYSTAL - SCF - TYPE OF CALCULATION :  RESTRICTED CLOSED SHELL
 *******************************************************************************

 CAPPA:IS1  3;IS2  3;IS3  3; K PTS MONK NET   6; SYMMOPS:K SPACE   8;G SPACE   4

 TTTTTTTTTTTTTTTTTTTTTTTTTTTTTT SDIK        TELAPSE        4.71 TCPU        1.75

 AAAAAAAAAAAAAAAAAAAAAAAAAAAAAAAAAAAAAAAAAAAAAAAAAAAAAAAAAAAAAAAAAAAAAAAAAAAAAAA
         ATOMIC WAVEFUNCTION(S)


 NUCLEAR CHARGE  6.0  SYMMETRY SPECIES            S    P
 N. ELECTRONS    6.0  NUMBER OF PRIMITIVE GTOS    7    4
                      NUMBER OF CONTRACTED GTOS   3    2
                      NUMBER OF CLOSED SHELLS     2    0
                      OPEN SHELL OCCUPATION       0    2

  ZNUC SCFIT  TOTAL HF ENERGY   KINETIC ENERGY   VIRIAL THEOREM ACCURACY
   6.0   6   -3.750912652E+01  3.905246519E+01 -1.960480378E+00  3.7E-06

 NUCLEAR CHARGE  7.0  SYMMETRY SPECIES            S    P
 N. ELECTRONS    7.0  NUMBER OF PRIMITIVE GTOS    7    4
                      NUMBER OF CONTRACTED GTOS   3    2
                      NUMBER OF CLOSED SHELLS     2    0
                      OPEN SHELL OCCUPATION       0    3

  ZNUC SCFIT  TOTAL HF ENERGY   KINETIC ENERGY   VIRIAL THEOREM ACCURACY
   7.0   9   -5.432196661E+01  5.425066284E+01 -2.001314339E+00  1.2E-06

 NUCLEAR CHARGE 35.0  SYMMETRY SPECIES            S    P    D
 N. ELECTRONS   35.0  NUMBER OF PRIMITIVE GTOS   14   10    7
                      NUMBER OF CONTRACTED GTOS   5    4    4
                      NUMBER OF CLOSED SHELLS     4    2    1
                      OPEN SHELL OCCUPATION       0    5    0

  ZNUC SCFIT  TOTAL HF ENERGY   KINETIC ENERGY   VIRIAL THEOREM ACCURACY
  35.0  13   -2.572060514E+03  2.572021521E+03 -2.000015161E+00  3.6E-06

 NUCLEAR CHARGE 30.0  SYMMETRY SPECIES            S    P    D
 N. ELECTRONS   30.0  NUMBER OF PRIMITIVE GTOS   14    9    5
                      NUMBER OF CONTRACTED GTOS   5    3    2
                      NUMBER OF CLOSED SHELLS     4    2    1
                      OPEN SHELL OCCUPATION       0    0    0

  ZNUC SCFIT  TOTAL HF ENERGY   KINETIC ENERGY   VIRIAL THEOREM ACCURACY
  30.0  10   -1.777404290E+03  1.777325716E+03 -2.000044209E+00  2.5E-06

 AAAAAAAAAAAAAAAAAAAAAAAAAAAAAAAAAAAAAAAAAAAAAAAAAAAAAAAAAAAAAAAAAAAAAAAAAAAAAAA

 CHARGE NORMALIZATION FACTOR   1.00000000
 TOTAL ATOMIC CHARGES:
   6.0000000   6.0000000   6.0000000   6.0000000   6.0000000   6.0000000
   6.0000000   6.0000000   6.0000000   6.0000000   6.0000000   6.0000000
   6.0000000   6.0000000   6.0000000   6.0000000   6.0000000   6.0000000
   6.0000000   6.0000000   6.0000000   6.0000000   6.0000000   6.0000000
   7.0000000   7.0000000   7.0000000   7.0000000   7.0000000   7.0000000
   7.0000000   7.0000000   7.0000000   7.0000000   7.0000000   7.0000000
   7.0000000   7.0000000   7.0000000   7.0000000   7.0000000   7.0000000
   7.0000000   7.0000000  35.0000000  35.0000000  35.0000000  35.0000000
  35.0000000  35.0000000  35.0000000  35.0000000  35.0000000  35.0000000
  35.0000000  35.0000000  35.0000000  35.0000000  35.0000000  35.0000000
  30.0000000  30.0000000
 TTTTTTTTTTTTTTTTTTTTTTTTTTTTTT MOQGAD      TELAPSE        6.74 TCPU        3.77
 TTTTTTTTTTTTTTTTTTTTTTTTTTTTTT SHELLXN     TELAPSE       56.40 TCPU       46.75
 TTTTTTTTTTTTTTTTTTTTTTTTTTTTTT MONMO3      TELAPSE       61.56 TCPU       51.90
 NUMERICALLY INTEGRATED DENSITY    903.9997201543
 TTTTTTTTTTTTTTTTTTTTTTTTTTTTTT NUMDFT      TELAPSE       62.37 TCPU       52.70
 CYC   0 ETOT(AU) -4.675987240446E+04 DETOT -4.68E+04 tst  0.00E+00 PX  1.00E+00
 TTTTTTTTTTTTTTTTTTTTTTTTTTTTTT DIIS        TELAPSE       62.45 TCPU       52.78
 TTTTTTTTTTTTTTTTTTTTTTTTTTTTTT FDIK        TELAPSE      118.48 TCPU      102.28
 INSULATING STATE
 TOP OF VALENCE BANDS -    BAND    452; K    5; EIG -1.2067529E-01 AU
 TOP OF VALENCE BANDS -    BAND    452; K    1; EIG -1.2418110E-01 AU
 BOTTOM OF VIRTUAL BANDS - BAND    453; K    5; EIG -8.9824912E-02 AU
 DIRECT ENERGY BAND GAP:   0.8395 eV
 BOTTOM OF VIRTUAL BANDS - BAND    453; K    1; EIG -8.8757490E-02 AU
 TTTTTTTTTTTTTTTTTTTTTTTTTTTTTT PDIG        TELAPSE      120.03 TCPU      103.83
 CHARGE NORMALIZATION FACTOR   1.00000000
 TOTAL ATOMIC CHARGES:
   6.1201846   6.1201846   6.1201846   6.1201846   5.5405594   5.5405594
   5.5405594   5.5405594   6.2568537   6.2568537   6.2568537   6.2568537
   5.9855846   5.9855846   5.9855846   5.9855846   6.1040539   6.1040539
   6.1040539   6.1040539   6.2508790   6.2508790   6.2508790   6.2508790
   7.4188584   7.4188584   7.4188584   7.4188584   7.2306193   7.2306193
   7.2306193   7.2306193   7.4255093   7.4255093   7.4255093   7.4255093
   7.1867083   7.1867083   7.1867083   7.1867083   7.5814230   7.5814230
   7.5814230   7.5814230  34.7684386  34.7684386  34.7684386  34.7684386
  34.7833139  34.7833139  34.7833139  34.7833139  34.7537833  34.7537833
  34.7537833  34.7537833  34.6991735  34.6991735  34.6991735  34.6991735
  27.7059189  27.8703098
 TTTTTTTTTTTTTTTTTTTTTTTTTTTTTT MOQGAD      TELAPSE      120.07 TCPU      103.86
 TTTTTTTTTTTTTTTTTTTTTTTTTTTTTT SHELLXN     TELAPSE      173.96 TCPU      155.37
 TTTTTTTTTTTTTTTTTTTTTTTTTTTTTT MONMO3      TELAPSE      178.56 TCPU      159.96
 NUMERICALLY INTEGRATED DENSITY    903.9996759840
 TTTTTTTTTTTTTTTTTTTTTTTTTTTTTT NUMDFT      TELAPSE      180.92 TCPU      162.31
 CYC   1 ETOT(AU) -4.673154489445E+04 DETOT  2.83E+01 tst  0.00E+00 PX  1.00E+00
 TTTTTTTTTTTTTTTTTTTTTTTTTTTTTT DIIS        TELAPSE      181.19 TCPU      162.57
 DIIS TEST: 0.14634E+02 AT SCF   CYCLE   1 - MIX   30 %
 TTTTTTTTTTTTTTTTTTTTTTTTTTTTTT FDIK        TELAPSE      194.63 TCPU      173.77
 POSSIBLY CONDUCTING STATE - EFERMI(AU) -4.6706474E-02 (RES. CHARGE  6.25E-13;IT. 12)
 TTTTTTTTTTTTTTTTTTTTTTTTTTTTTT PDIG        TELAPSE      196.20 TCPU      175.33
 CHARGE NORMALIZATION FACTOR   1.00000000
 TOTAL ATOMIC CHARGES:
   5.9930962   5.9930962   5.9930962   5.9930962   6.5796520   6.5796520
   6.5796520   6.5796520   6.1983984   6.1983984   6.1983984   6.1983984
   5.8945313   5.8945313   5.8945313   5.8945313   6.2111017   6.2111017
   6.2111017   6.2111017   5.8779588   5.8779588   5.8779588   5.8779588
   7.4008000   7.4008000   7.4008000   7.4008000   6.9559553   6.9559553
   6.9559553   6.9559553   7.2364442   7.2364442   7.2364442   7.2364442
   6.9619141   6.9619141   6.9619141   6.9619141   4.5708906   4.5708906
   4.5708906   4.5708906  35.4371600  35.4371600  35.4371600  35.4371600
  35.3376927  35.3376927  35.3376927  35.3376927  35.3186832  35.3186832
  35.3186832  35.3186832  34.8167151  34.8167151  34.8167151  34.8167151
  30.9184856  29.9175389
 TTTTTTTTTTTTTTTTTTTTTTTTTTTTTT MOQGAD      TELAPSE      196.23 TCPU      175.36
 TTTTTTTTTTTTTTTTTTTTTTTTTTTTTT SHELLXN     TELAPSE      250.18 TCPU      226.89
 TTTTTTTTTTTTTTTTTTTTTTTTTTTTTT MONMO3      TELAPSE      254.84 TCPU      231.53
 NUMERICALLY INTEGRATED DENSITY    903.9996427305
 TTTTTTTTTTTTTTTTTTTTTTTTTTTTTT NUMDFT      TELAPSE      257.10 TCPU      233.78
 CYC   2 ETOT(AU) -4.672002280521E+04 DETOT  1.15E+01 tst  5.35E-02 PX  2.87E+00
 TTTTTTTTTTTTTTTTTTTTTTTTTTTTTT DIIS        TELAPSE      257.35 TCPU      234.03
 DIIS TEST: 0.95543E+02 AT SCF   CYCLE   2 - DIIS ACTIVE - HISTORY:     2 CYCLES
 TTTTTTTTTTTTTTTTTTTTTTTTTTTTTT FDIK        TELAPSE      273.04 TCPU      247.48
 INSULATING STATE
 TOP OF VALENCE BANDS -    BAND    452; K    1; EIG -1.0309970E-01 AU
 BOTTOM OF VIRTUAL BANDS - BAND    453; K    1; EIG -5.8946553E-02 AU
 DIRECT ENERGY BAND GAP:   1.2015 eV
 TTTTTTTTTTTTTTTTTTTTTTTTTTTTTT PDIG        TELAPSE      274.60 TCPU      249.04
 CHARGE NORMALIZATION FACTOR   1.00000000
 TOTAL ATOMIC CHARGES:
   5.7244514   5.7244514   5.7244514   5.7244514   6.1939382   6.1939382
   6.1939382   6.1939382   5.8721904   5.8721904   5.8721904   5.8721904
   6.1847322   6.1847322   6.1847322   6.1847322   6.0746780   6.0746780
   6.0746780   6.0746780   5.7192754   5.7192754   5.7192754   5.7192754
   6.5281956   6.5281956   6.5281956   6.5281956   7.0713580   7.0713580
   7.0713580   7.0713580   6.7538642   6.7538642   6.7538642   6.7538642
   7.0267952   7.0267952   7.0267952   7.0267952   7.5037780   7.5037780
   7.5037780   7.5037780  35.1048380  35.1048380  35.1048380  35.1048380
  35.0135510  35.0135510  35.0135510  35.0135510  35.0339467  35.0339467
  35.0339467  35.0339467  35.2927706  35.2927706  35.2927706  35.2927706
  29.8198120  29.7867364
 TTTTTTTTTTTTTTTTTTTTTTTTTTTTTT MOQGAD      TELAPSE      274.63 TCPU      249.07
 TTTTTTTTTTTTTTTTTTTTTTTTTTTTTT SHELLXN     TELAPSE      328.70 TCPU      300.55
 TTTTTTTTTTTTTTTTTTTTTTTTTTTTTT MONMO3      TELAPSE      333.24 TCPU      305.08
 NUMERICALLY INTEGRATED DENSITY    903.9996107403
 TTTTTTTTTTTTTTTTTTTTTTTTTTTTTT NUMDFT      TELAPSE      335.49 TCPU      307.33
 CYC   3 ETOT(AU) -4.673095676692E+04 DETOT -1.09E+01 tst  7.74E-01 PX  2.15E+00
 TTTTTTTTTTTTTTTTTTTTTTTTTTTTTT DIIS        TELAPSE      335.75 TCPU      307.58
 DIIS TEST: 0.16534E+02 AT SCF   CYCLE   3 - DIIS ACTIVE - HISTORY:     3 CYCLES
 TTTTTTTTTTTTTTTTTTTTTTTTTTTTTT FDIK        TELAPSE      347.20 TCPU      318.79
 INSULATING STATE
 TOP OF VALENCE BANDS -    BAND    452; K    5; EIG -9.7467622E-02 AU
 TOP OF VALENCE BANDS -    BAND    452; K    1; EIG -1.1635469E-01 AU
 BOTTOM OF VIRTUAL BANDS - BAND    453; K    1; EIG -6.1104771E-02 AU
 INDIRECT ENERGY BAND GAP:   0.9895 eV
 TTTTTTTTTTTTTTTTTTTTTTTTTTTTTT PDIG        TELAPSE      348.76 TCPU      320.34
 CHARGE NORMALIZATION FACTOR   1.00000000
 TOTAL ATOMIC CHARGES:
   6.1632314   6.1632314   6.1632314   6.1632314   5.7607809   5.7607809
   5.7607809   5.7607809   6.1988400   6.1988400   6.1988400   6.1988400
   5.7304369   5.7304369   5.7304369   5.7304369   6.0315652   6.0315652
   6.0315652   6.0315652   6.0544109   6.0544109   6.0544109   6.0544109
   7.3382465   7.3382465   7.3382465   7.3382465   7.1277526   7.1277526
   7.1277526   7.1277526   7.1990641   7.1990641   7.1990641   7.1990641
   7.0444668   7.0444668   7.0444668   7.0444668   7.0797375   7.0797375
   7.0797375   7.0797375  35.0260802  35.0260802  35.0260802  35.0260802
  34.9608329  34.9608329  34.9608329  34.9608329  35.1010041  35.1010041
  35.1010041  35.1010041  34.7686864  34.7686864  34.7686864  34.7686864
  28.8181765  28.8412783
 TTTTTTTTTTTTTTTTTTTTTTTTTTTTTT MOQGAD      TELAPSE      348.79 TCPU      320.37
 TTTTTTTTTTTTTTTTTTTTTTTTTTTTTT SHELLXN     TELAPSE      400.69 TCPU      371.79
 TTTTTTTTTTTTTTTTTTTTTTTTTTTTTT MONMO3      TELAPSE      407.37 TCPU      378.45
 NUMERICALLY INTEGRATED DENSITY    903.9996416631
 TTTTTTTTTTTTTTTTTTTTTTTTTTTTTT NUMDFT      TELAPSE      409.60 TCPU      380.67
 CYC   4 ETOT(AU) -4.673368354294E+04 DETOT -2.73E+00 tst  1.17E-02 PX  5.93E-01
 TTTTTTTTTTTTTTTTTTTTTTTTTTTTTT DIIS        TELAPSE      409.88 TCPU      380.95
 DIIS TEST: 0.16735E+01 AT SCF   CYCLE   4 - DIIS ACTIVE - HISTORY:     4 CYCLES
 TTTTTTTTTTTTTTTTTTTTTTTTTTTTTT FDIK        TELAPSE      424.90 TCPU      393.60
 INSULATING STATE
 TOP OF VALENCE BANDS -    BAND    452; K    5; EIG -9.0348701E-02 AU
 TOP OF VALENCE BANDS -    BAND    452; K    1; EIG -1.0762314E-01 AU
 BOTTOM OF VIRTUAL BANDS - BAND    453; K    6; EIG -6.6278117E-02 AU
 INDIRECT ENERGY BAND GAP:   0.6550 eV
 BOTTOM OF VIRTUAL BANDS - BAND    453; K    1; EIG -6.4265879E-02 AU
 TTTTTTTTTTTTTTTTTTTTTTTTTTTTTT PDIG        TELAPSE      426.46 TCPU      395.16
 CHARGE NORMALIZATION FACTOR   1.00000000
 TOTAL ATOMIC CHARGES:
   5.9341750   5.9341750   5.9341750   5.9341750   5.8635369   5.8635369
   5.8635369   5.8635369   6.1321659   6.1321659   6.1321659   6.1321659
   6.1004890   6.1004890   6.1004890   6.1004890   6.0932971   6.0932971
   6.0932971   6.0932971   5.9316080   5.9316080   5.9316080   5.9316080
   7.1711675   7.1711675   7.1711675   7.1711675   7.0939823   7.0939823
   7.0939823   7.0939823   7.2908901   7.2908901   7.2908901   7.2908901
   7.1816513   7.1816513   7.1816513   7.1816513   6.9843371   6.9843371
   6.9843371   6.9843371  35.0091482  35.0091482  35.0091482  35.0091482
  34.9772016  34.9772016  34.9772016  34.9772016  34.8921531  34.8921531
  34.8921531  34.8921531  34.9286310  34.9286310  34.9286310  34.9286310
  28.8462538  28.8160091
 TTTTTTTTTTTTTTTTTTTTTTTTTTTTTT MOQGAD      TELAPSE      426.49 TCPU      395.19
 TTTTTTTTTTTTTTTTTTTTTTTTTTTTTT SHELLXN     TELAPSE      478.54 TCPU      446.68
 TTTTTTTTTTTTTTTTTTTTTTTTTTTTTT MONMO3      TELAPSE      483.12 TCPU      451.24
 NUMERICALLY INTEGRATED DENSITY    903.9996485614
 TTTTTTTTTTTTTTTTTTTTTTTTTTTTTT NUMDFT      TELAPSE      485.36 TCPU      453.46
 CYC   5 ETOT(AU) -4.673377045643E+04 DETOT -8.69E-02 tst  3.09E-03 PX  1.23E-01
 TTTTTTTTTTTTTTTTTTTTTTTTTTTTTT DIIS        TELAPSE      485.64 TCPU      453.74
 DIIS TEST: 0.99462E+00 AT SCF   CYCLE   5 - DIIS ACTIVE - HISTORY:     5 CYCLES
 TTTTTTTTTTTTTTTTTTTTTTTTTTTTTT FDIK        TELAPSE      498.11 TCPU      465.95
 INSULATING STATE
 TOP OF VALENCE BANDS -    BAND    452; K    5; EIG -9.9431082E-02 AU
 TOP OF VALENCE BANDS -    BAND    452; K    1; EIG -1.1644489E-01 AU
 BOTTOM OF VIRTUAL BANDS - BAND    453; K    6; EIG -6.2166746E-02 AU
 INDIRECT ENERGY BAND GAP:   1.0140 eV
 BOTTOM OF VIRTUAL BANDS - BAND    453; K    1; EIG -5.9793067E-02 AU
 TTTTTTTTTTTTTTTTTTTTTTTTTTTTTT PDIG        TELAPSE      499.67 TCPU      467.50
 CHARGE NORMALIZATION FACTOR   1.00000000
 TOTAL ATOMIC CHARGES:
   6.0058778   6.0058778   6.0058778   6.0058778   5.8983428   5.8983428
   5.8983428   5.8983428   6.1915609   6.1915609   6.1915609   6.1915609
   5.9364870   5.9364870   5.9364870   5.9364870   6.0657467   6.0657467
   6.0657467   6.0657467   5.9970076   5.9970076   5.9970076   5.9970076
   7.1843960   7.1843960   7.1843960   7.1843960   7.1716275   7.1716275
   7.1716275   7.1716275   7.0990938   7.0990938   7.0990938   7.0990938
   7.0621036   7.0621036   7.0621036   7.0621036   7.1104080   7.1104080
   7.1104080   7.1104080  34.9668694  34.9668694  34.9668694  34.9668694
  34.9671959  34.9671959  34.9671959  34.9671959  35.0495300  35.0495300
  35.0495300  35.0495300  34.8548897  34.8548897  34.8548897  34.8548897
  28.8899663  28.8654871
 TTTTTTTTTTTTTTTTTTTTTTTTTTTTTT MOQGAD      TELAPSE      499.70 TCPU      467.53
 TTTTTTTTTTTTTTTTTTTTTTTTTTTTTT SHELLXN     TELAPSE      553.74 TCPU      518.97
 TTTTTTTTTTTTTTTTTTTTTTTTTTTTTT MONMO3      TELAPSE      558.25 TCPU      523.47
 NUMERICALLY INTEGRATED DENSITY    903.9996442930
 TTTTTTTTTTTTTTTTTTTTTTTTTTTTTT NUMDFT      TELAPSE      560.48 TCPU      525.69
 CYC   6 ETOT(AU) -4.673391521032E+04 DETOT -1.45E-01 tst  8.23E-04 PX  6.95E-02
 TTTTTTTTTTTTTTTTTTTTTTTTTTTTTT DIIS        TELAPSE      560.76 TCPU      525.96
 DIIS TEST: 0.12625E+00 AT SCF   CYCLE   6 - DIIS ACTIVE - HISTORY:     6 CYCLES
 TTTTTTTTTTTTTTTTTTTTTTTTTTTTTT FDIK        TELAPSE      573.71 TCPU      538.71
 INSULATING STATE
 TOP OF VALENCE BANDS -    BAND    452; K    5; EIG -9.5608923E-02 AU
 TOP OF VALENCE BANDS -    BAND    452; K    1; EIG -1.1397798E-01 AU
 BOTTOM OF VIRTUAL BANDS - BAND    453; K    6; EIG -6.2510027E-02 AU
 INDIRECT ENERGY BAND GAP:   0.9007 eV
 BOTTOM OF VIRTUAL BANDS - BAND    453; K    1; EIG -6.0616497E-02 AU
 TTTTTTTTTTTTTTTTTTTTTTTTTTTTTT PDIG        TELAPSE      575.27 TCPU      540.26
 CHARGE NORMALIZATION FACTOR   1.00000000
 TOTAL ATOMIC CHARGES:
   6.0503142   6.0503142   6.0503142   6.0503142   5.8825312   5.8825312
   5.8825312   5.8825312   6.2188339   6.2188339   6.2188339   6.2188339
   5.9051083   5.9051083   5.9051083   5.9051083   6.0571352   6.0571352
   6.0571352   6.0571352   5.9649433   5.9649433   5.9649433   5.9649433
   7.1405780   7.1405780   7.1405780   7.1405780   7.0883804   7.0883804
   7.0883804   7.0883804   7.1875427   7.1875427   7.1875427   7.1875427
   7.1056991   7.1056991   7.1056991   7.1056991   7.1278052   7.1278052
   7.1278052   7.1278052  34.9977880  34.9977880  34.9977880  34.9977880
  34.9507434  34.9507434  34.9507434  34.9507434  35.0159522  35.0159522
  35.0159522  35.0159522  34.8586193  34.8586193  34.8586193  34.8586193
  28.8932381  28.8988643
 TTTTTTTTTTTTTTTTTTTTTTTTTTTTTT MOQGAD      TELAPSE      575.30 TCPU      540.29
 TTTTTTTTTTTTTTTTTTTTTTTTTTTTTT SHELLXN     TELAPSE      628.39 TCPU      591.73
 TTTTTTTTTTTTTTTTTTTTTTTTTTTTTT MONMO3      TELAPSE      633.00 TCPU      596.32
 NUMERICALLY INTEGRATED DENSITY    903.9996429337
 TTTTTTTTTTTTTTTTTTTTTTTTTTTTTT NUMDFT      TELAPSE      635.23 TCPU      598.54
 CYC   7 ETOT(AU) -4.673392187485E+04 DETOT -6.66E-03 tst  7.42E-05 PX  2.69E-02
 TTTTTTTTTTTTTTTTTTTTTTTTTTTTTT DIIS        TELAPSE      635.49 TCPU      598.80
 DIIS TEST: 0.75841E-01 AT SCF   CYCLE   7 - DIIS ACTIVE - HISTORY:     7 CYCLES
[...]
Pcrystal           00000000006EFF89  Unknown               Unknown  Unknown
Pcrystal           00000000009358F6  Unknown               Unknown  Unknown
Pcrystal           0000000000661850  Unknown               Unknown  Unknown
Pcrystal           000000000065C371  Unknown               Unknown  Unknown
Pcrystal           000000000040FA15  Unknown               Unknown  Unknown
Pcrystal           000000000040F8E2  Unknown               Unknown  Unknown
libc-2.28.so       00001501B9274D85  __libc_start_main     Unknown  Unknown
Pcrystal           000000000040F7E9  Unknown               Unknown  Unknown
forrtl: severe (174): SIGSEGV, segmentation fault occurred
Image              PC                Routine            Line        Source             
Pcrystal           000000000136C1DA  for__signal_handl     Unknown  Unknown
libpthread-2.28.s  000014AF25BAACF0  Unknown               Unknown  Unknown
Pcrystal           0000000000F839A4  Unknown               Unknown  Unknown
Pcrystal           00000000006EFF89  Unknown               Unknown  Unknown
Pcrystal           00000000009358F6  Unknown               Unknown  Unknown
Pcrystal           0000000000661850  Unknown               Unknown  Unknown
Pcrystal           000000000065C371  Unknown               Unknown  Unknown
Pcrystal           000000000040FA15  Unknown               Unknown  Unknown
Pcrystal           000000000040F8E2  Unknown               Unknown  Unknown
libc-2.28.so       000014AF2434CD85  __libc_start_main     Unknown  Unknown
Pcrystal           000000000040F7E9  Unknown               Unknown  Unknown
forrtl: severe (174): SIGSEGV, segmentation fault occurred
Image              PC                Routine            Line        Source             
Pcrystal           000000000136C1DA  for__signal_handl     Unknown  Unknown
libpthread-2.28.s  0000148132F4ECF0  Unknown               Unknown  Unknown
Pcrystal           0000000000F839A4  Unknown               Unknown  Unknown
Pcrystal           00000000006EFF89  Unknown               Unknown  Unknown
Pcrystal           00000000009358F6  Unknown               Unknown  Unknown
Pcrystal           0000000000661850  Unknown               Unknown  Unknown
Pcrystal           000000000065C371  Unknown               Unknown  Unknown
Pcrystal           000000000040FA15  Unknown               Unknown  Unknown
Pcrystal           000000000040F8E2  Unknown               Unknown  Unknown
libc-2.28.so       00001481316F0D85  __libc_start_main     Unknown  Unknown
Pcrystal           000000000040F7E9  Unknown               Unknown  Unknown
forrtl: severe (174): SIGSEGV, segmentation fault occurred
Image              PC                Routine            Line        Source             
Pcrystal           000000000136C1DA  for__signal_handl     Unknown  Unknown
libpthread-2.28.s  000014B38802ACF0  Unknown               Unknown  Unknown
Pcrystal           0000000000F839A4  Unknown               Unknown  Unknown
Pcrystal           00000000006EFF89  Unknown               Unknown  Unknown
Pcrystal           00000000009358F6  Unknown               Unknown  Unknown
Pcrystal           0000000000661850  Unknown               Unknown  Unknown
Pcrystal           000000000065C371  Unknown               Unknown  Unknown
Pcrystal           000000000040FA15  Unknown               Unknown  Unknown
Pcrystal           000000000040F8E2  Unknown               Unknown  Unknown
libc-2.28.so       000014B3867CCD85  __libc_start_main     Unknown  Unknown
Pcrystal           000000000040F7E9  Unknown               Unknown  Unknown
forrtl: severe (174): SIGSEGV, segmentation fault occurred
Image              PC                Routine            Line        Source             
Pcrystal           000000000136C1DA  for__signal_handl     Unknown  Unknown
libpthread-2.28.s  00001491FCD8ACF0  Unknown               Unknown  Unknown
Pcrystal           0000000000F839A4  Unknown               Unknown  Unknown
Pcrystal           00000000006EFF89  Unknown               Unknown  Unknown
Pcrystal           00000000009358F6  Unknown               Unknown  Unknown
Pcrystal           0000000000661850  Unknown               Unknown  Unknown
Pcrystal           000000000065C371  Unknown               Unknown  Unknown
Pcrystal           000000000040FA15  Unknown               Unknown  Unknown
Pcrystal           000000000040F8E2  Unknown               Unknown  Unknown
libc-2.28.so       00001491FB52CD85  __libc_start_main     Unknown  Unknown
Pcrystal           000000000040F7E9  Unknown               Unknown  Unknown
forrtl: severe (174): SIGSEGV, segmentation fault occurred
Image              PC                Routine            Line        Source             
Pcrystal           000000000136C1DA  for__signal_handl     Unknown  Unknown
libpthread-2.28.s  000014FF057C6CF0  Unknown               Unknown  Unknown
Pcrystal           0000000000F839A4  Unknown               Unknown  Unknown
Pcrystal           00000000006EFF89  Unknown               Unknown  Unknown
Pcrystal           00000000009358F6  Unknown               Unknown  Unknown
Pcrystal           0000000000661850  Unknown               Unknown  Unknown
Pcrystal           000000000065C371  Unknown               Unknown  Unknown
Pcrystal           000000000040FA15  Unknown               Unknown  Unknown
Pcrystal           000000000040F8E2  Unknown               Unknown  Unknown
libc-2.28.so       000014FF03F68D85  __libc_start_main     Unknown  Unknown
Pcrystal           000000000040F7E9  Unknown               Unknown  Unknown
forrtl: severe (174): SIGSEGV, segmentation fault occurred
Image              PC                Routine            Line        Source             
Pcrystal           000000000136C1DA  for__signal_handl     Unknown  Unknown
libpthread-2.28.s  0000150BC50B1CF0  Unknown               Unknown  Unknown
Pcrystal           0000000000F839D7  Unknown               Unknown  Unknown
Pcrystal           00000000006EFF89  Unknown               Unknown  Unknown
Pcrystal           00000000009358F6  Unknown               Unknown  Unknown
Pcrystal           0000000000661850  Unknown               Unknown  Unknown
Pcrystal           000000000065C371  Unknown               Unknown  Unknown
Pcrystal           000000000040FA15  Unknown               Unknown  Unknown
Pcrystal           000000000040F8E2  Unknown               Unknown  Unknown
libc-2.28.so       0000150BC3853D85  __libc_start_main     Unknown  Unknown
Pcrystal           000000000040F7E9  Unknown               Unknown  Unknown
forrtl: severe (174): SIGSEGV, segmentation fault occurred
Image              PC                Routine            Line        Source             
Pcrystal           000000000136C1DA  for__signal_handl     Unknown  Unknown
libpthread-2.28.s  00001511EFA34CF0  Unknown               Unknown  Unknown
Pcrystal           0000000000F839A4  Unknown               Unknown  Unknown
Pcrystal           00000000006EFF89  Unknown               Unknown  Unknown
Pcrystal           00000000009358F6  Unknown               Unknown  Unknown
Pcrystal           0000000000661850  Unknown               Unknown  Unknown
Pcrystal           000000000065C371  Unknown               Unknown  Unknown
Pcrystal           000000000040FA15  Unknown               Unknown  Unknown
Pcrystal           000000000040F8E2  Unknown               Unknown  Unknown
libc-2.28.so       00001511EE1D6D85  __libc_start_main     Unknown  Unknown
Pcrystal           000000000040F7E9  Unknown               Unknown  Unknown
forrtl: severe (174): SIGSEGV, segmentation fault occurred
Image              PC                Routine            Line        Source             
Pcrystal           000000000136C1DA  for__signal_handl     Unknown  Unknown
libpthread-2.28.s  0000149A0EA9DCF0  Unknown               Unknown  Unknown
Pcrystal           0000000000F839D7  Unknown               Unknown  Unknown
Pcrystal           00000000006EFF89  Unknown               Unknown  Unknown
Pcrystal           00000000009358F6  Unknown               Unknown  Unknown
Pcrystal           0000000000661850  Unknown               Unknown  Unknown
Pcrystal           000000000065C371  Unknown               Unknown  Unknown
Pcrystal           000000000040FA15  Unknown               Unknown  Unknown
Pcrystal           000000000040F8E2  Unknown               Unknown  Unknown
libc-2.28.so       0000149A0D23FD85  __libc_start_main     Unknown  Unknown
Pcrystal           000000000040F7E9  Unknown               Unknown  Unknown
forrtl: severe (174): SIGSEGV, segmentation fault occurred
Image              PC                Routine            Line        Source             
Pcrystal           000000000136C1DA  for__signal_handl     Unknown  Unknown
libpthread-2.28.s  0000154A931ECCF0  Unknown               Unknown  Unknown
Pcrystal           0000000000F839A4  Unknown               Unknown  Unknown
Pcrystal           00000000006EFF89  Unknown               Unknown  Unknown
Pcrystal           00000000009358F6  Unknown               Unknown  Unknown
Pcrystal           0000000000661850  Unknown               Unknown  Unknown
Pcrystal           000000000065C371  Unknown               Unknown  Unknown
Pcrystal           000000000040FA15  Unknown               Unknown  Unknown
Pcrystal           000000000040F8E2  Unknown               Unknown  Unknown
libc-2.28.so       0000154A9198ED85  __libc_start_main     Unknown  Unknown
Pcrystal           000000000040F7E9  Unknown               Unknown  Unknown
forrtl: severe (174): SIGSEGV, segmentation fault occurred
Image              PC                Routine            Line        Source             
Pcrystal           000000000136C1DA  for__signal_handl     Unknown  Unknown
libpthread-2.28.s  000014980F95ACF0  Unknown               Unknown  Unknown
Pcrystal           0000000000F839A4  Unknown               Unknown  Unknown
Pcrystal           00000000006EFF89  Unknown               Unknown  Unknown
Pcrystal           00000000009358F6  Unknown               Unknown  Unknown
Pcrystal           0000000000661850  Unknown               Unknown  Unknown
Pcrystal           000000000065C371  Unknown               Unknown  Unknown
Pcrystal           000000000040FA15  Unknown               Unknown  Unknown
Pcrystal           000000000040F8E2  Unknown               Unknown  Unknown
libc-2.28.so       000014980E0FCD85  __libc_start_main     Unknown  Unknown
Pcrystal           000000000040F7E9  Unknown               Unknown  Unknown
double free or corruption (out)
forrtl: severe (174): SIGSEGV, segmentation fault occurred
Image              PC                Routine            Line        Source             
Pcrystal           000000000136C1DA  for__signal_handl     Unknown  Unknown
libpthread-2.28.s  0000152A51382CF0  Unknown               Unknown  Unknown
Pcrystal           0000000000F839D7  Unknown               Unknown  Unknown
Pcrystal           00000000006EFF89  Unknown               Unknown  Unknown
Pcrystal           00000000009358F6  Unknown               Unknown  Unknown
Pcrystal           0000000000661850  Unknown               Unknown  Unknown
Pcrystal           000000000065C371  Unknown               Unknown  Unknown
Pcrystal           000000000040FA15  Unknown               Unknown  Unknown
Pcrystal           000000000040F8E2  Unknown               Unknown  Unknown
libc-2.28.so       0000152A4FB24D85  __libc_start_main     Unknown  Unknown
Pcrystal           000000000040F7E9  Unknown               Unknown  Unknown
forrtl: severe (174): SIGSEGV, segmentation fault occurred
Image              PC                Routine            Line        Source             
Pcrystal           000000000136C1DA  for__signal_handl     Unknown  Unknown
libpthread-2.28.s  0000151E9E0E3CF0  Unknown               Unknown  Unknown
Pcrystal           0000000000F839D7  Unknown               Unknown  Unknown
Pcrystal           00000000006EFF89  Unknown               Unknown  Unknown
Pcrystal           00000000009358F6  Unknown               Unknown  Unknown
Pcrystal           0000000000661850  Unknown               Unknown  Unknown
Pcrystal           000000000065C371  Unknown               Unknown  Unknown
Pcrystal           000000000040FA15  Unknown               Unknown  Unknown
Pcrystal           000000000040F8E2  Unknown               Unknown  Unknown
libc-2.28.so       0000151E9C885D85  __libc_start_main     Unknown  Unknown
Pcrystal           000000000040F7E9  Unknown               Unknown  Unknown
forrtl: severe (174): SIGSEGV, segmentation fault occurred
Image              PC                Routine            Line        Source             
Pcrystal           000000000136C1DA  for__signal_handl     Unknown  Unknown
libpthread-2.28.s  000014E8492CACF0  Unknown               Unknown  Unknown
Pcrystal           0000000000F839A4  Unknown               Unknown  Unknown
Pcrystal           00000000006EFF89  Unknown               Unknown  Unknown
Pcrystal           00000000009358F6  Unknown               Unknown  Unknown
Pcrystal           0000000000661850  Unknown               Unknown  Unknown
Pcrystal           000000000065C371  Unknown               Unknown  Unknown
Pcrystal           000000000040FA15  Unknown               Unknown  Unknown
Pcrystal           000000000040F8E2  Unknown               Unknown  Unknown
libc-2.28.so       000014E847A6CD85  __libc_start_main     Unknown  Unknown
Pcrystal           000000000040F7E9  Unknown               Unknown  Unknown
forrtl: severe (174): SIGSEGV, segmentation fault occurred
Image              PC                Routine            Line        Source             
Pcrystal           000000000136C1DA  for__signal_handl     Unknown  Unknown
libpthread-2.28.s  000014A17AC29CF0  Unknown               Unknown  Unknown
Pcrystal           0000000000F839A4  Unknown               Unknown  Unknown
Pcrystal           00000000006EFF89  Unknown               Unknown  Unknown
Pcrystal           00000000009358F6  Unknown               Unknown  Unknown
Pcrystal           0000000000661850  Unknown               Unknown  Unknown
Pcrystal           000000000065C371  Unknown               Unknown  Unknown
Pcrystal           000000000040FA15  Unknown               Unknown  Unknown
Pcrystal           000000000040F8E2  Unknown               Unknown  Unknown
libc-2.28.so       000014A1793CBD85  __libc_start_main     Unknown  Unknown
Pcrystal           000000000040F7E9  Unknown               Unknown  Unknown
forrtl: severe (174): SIGSEGV, segmentation fault occurred
Image              PC                Routine            Line        Source             
Pcrystal           000000000136C1DA  for__signal_handl     Unknown  Unknown
libpthread-2.28.s  0000150BA479DCF0  Unknown               Unknown  Unknown
Pcrystal           0000000000F839A4  Unknown               Unknown  Unknown
Pcrystal           00000000006EFF89  Unknown               Unknown  Unknown
Pcrystal           00000000009358F6  Unknown               Unknown  Unknown
Pcrystal           0000000000661850  Unknown               Unknown  Unknown
Pcrystal           000000000065C371  Unknown               Unknown  Unknown
Pcrystal           000000000040FA15  Unknown               Unknown  Unknown
Pcrystal           000000000040F8E2  Unknown               Unknown  Unknown
libc-2.28.so       0000150BA2F3FD85  __libc_start_main     Unknown  Unknown
Pcrystal           000000000040F7E9  Unknown               Unknown  Unknown
forrtl: severe (174): SIGSEGV, segmentation fault occurred
Image              PC                Routine            Line        Source             
Pcrystal           000000000136C1DA  for__signal_handl     Unknown  Unknown
libpthread-2.28.s  000014DF3C947CF0  Unknown               Unknown  Unknown
Pcrystal           0000000000F839A4  Unknown               Unknown  Unknown
Pcrystal           00000000006EFF89  Unknown               Unknown  Unknown
Pcrystal           00000000009358F6  Unknown               Unknown  Unknown
Pcrystal           0000000000661850  Unknown               Unknown  Unknown
Pcrystal           000000000065C371  Unknown               Unknown  Unknown
Pcrystal           000000000040FA15  Unknown               Unknown  Unknown
Pcrystal           000000000040F8E2  Unknown               Unknown  Unknown
libc-2.28.so       000014DF3B0E9D85  __libc_start_main     Unknown  Unknown
Pcrystal           000000000040F7E9  Unknown               Unknown  Unknown
forrtl: severe (174): SIGSEGV, segmentation fault occurred
Image              PC                Routine            Line        Source             
Pcrystal           000000000136C1DA  for__signal_handl     Unknown  Unknown
libpthread-2.28.s  00001476A0AE9CF0  Unknown               Unknown  Unknown
Pcrystal           0000000000F839A4  Unknown               Unknown  Unknown
Pcrystal           00000000006EFF89  Unknown               Unknown  Unknown
Pcrystal           00000000009358F6  Unknown               Unknown  Unknown
Pcrystal           0000000000661850  Unknown               Unknown  Unknown
Pcrystal           000000000065C371  Unknown               Unknown  Unknown
Pcrystal           000000000040FA15  Unknown               Unknown  Unknown
Pcrystal           000000000040F8E2  Unknown               Unknown  Unknown
libc-2.28.so       000014769F28BD85  __libc_start_main     Unknown  Unknown
Pcrystal           000000000040F7E9  Unknown               Unknown  Unknown
double free or corruption (out)
forrtl: severe (174): SIGSEGV, segmentation fault occurred
Image              PC                Routine            Line        Source             
Pcrystal           000000000136C1DA  for__signal_handl     Unknown  Unknown
libpthread-2.28.s  000014955D480CF0  Unknown               Unknown  Unknown
Pcrystal           0000000000F839D7  Unknown               Unknown  Unknown
Pcrystal           00000000006EFF89  Unknown               Unknown  Unknown
Pcrystal           00000000009358F6  Unknown               Unknown  Unknown
Pcrystal           0000000000661850  Unknown               Unknown  Unknown
Pcrystal           000000000065C371  Unknown               Unknown  Unknown
Pcrystal           000000000040FA15  Unknown               Unknown  Unknown
Pcrystal           000000000040F8E2  Unknown               Unknown  Unknown
libc-2.28.so       000014955BC22D85  __libc_start_main     Unknown  Unknown
Pcrystal           000000000040F7E9  Unknown               Unknown  Unknown
forrtl: severe (174): SIGSEGV, segmentation fault occurred
Image              PC                Routine            Line        Source             
Pcrystal           000000000136C1DA  for__signal_handl     Unknown  Unknown
libpthread-2.28.s  000014D2B461FCF0  Unknown               Unknown  Unknown
Pcrystal           0000000000F839A4  Unknown               Unknown  Unknown
Pcrystal           00000000006EFF89  Unknown               Unknown  Unknown
Pcrystal           00000000009358F6  Unknown               Unknown  Unknown
Pcrystal           0000000000661850  Unknown               Unknown  Unknown
Pcrystal           000000000065C371  Unknown               Unknown  Unknown
Pcrystal           000000000040FA15  Unknown               Unknown  Unknown
Pcrystal           000000000040F8E2  Unknown               Unknown  Unknown

Stack trace terminated abnormally.
malloc(): unaligned tcache chunk detected
--------------------------------------------------------------------------
Primary job  terminated normally, but 1 process returned
a non-zero exit code. Per user-direction, the job has been aborted.
--------------------------------------------------------------------------
malloc(): unaligned tcache chunk detected
--------------------------------------------------------------------------
mpirun noticed that process rank 3 with PID 0 on node d32cepyc038 exited on signal 6 (Aborted).
--------------------------------------------------------------------------
/opt/sge/crc/spool/d32cepyc038/job_scripts/262500: line 26: /afs/crc.nd.edu/user/w/wraney: Is a directory
