Loading crystal17/1.0.2/intel/19.0
  Loading requirement: intel/19.0 ompi/4.0.1/intel/19.0
          64 PROCESSORS WORKING

         
 *******************************************************************************
 *                                                                             *
 *                               CRYSTAL17                                     *
 *                      public : 1.0.2 - March 1st, 2018                       *
 *                       HTTP://WWW.CRYSTAL.UNITO.IT                           *
 *                                                                             *
 *                              MAIN AUTHORS                                   *
 *                                                                             *
 *  R. DOVESI(1,11), V.R. SAUNDERS(2), C. ROETTI(1,11), R. ORLANDO(1,11),      *
 *  C.M. ZICOVICH-WILSON(1,3), F. PASCALE(4), B. CIVALLERI(1,11),              *
 *  K. DOLL(5), N.M. HARRISON(2,6), I.J. BUSH(7), Ph. D'ARCO(8),               *
 *  M. LLUNELL(9), M. CAUSA'(10), Y. NOEL(8), L. MASCHIO(1,11), A. ERBA(1,11)  *
 *  M. RE'RAT(14), S. CASASSA(1,11)                                            *
 *                                                                             *
 *        CONTRIBUTIONS TO THE CODE HAVE ALSO BEEN GIVEN BY                    *
 *                                                                             *
 *  M. FERRABONE(1,11), M. DE LA PIERRE(1,11), M. FERRERO(1,11),               *
 *  J. BAIMA(1,11), E. ALBANESE(1,11), M.F. PEINTINGER(12), R. BAST(13),       *
 *  B. KIRTMAN(15), V. LACIVITA(1,11), R. DEMICHELIS(1,16)                     *
 *  G. BRANDEBURG(17), S. SALUSTRO(1,11), G. SANSONE(1,11)                     *
 *  M.T. RUGGIERO(18)                                                          *
 *                                                                             *
 * (1) THEORETICAL CHEMISTRY GROUP - UNIVERSITA' DI TORINO - TORINO (ITALY)    *
 * (2) COMPUTATIONAL SCIENCE & ENGINEERING DEPARTMENT - STFC DARESBURY (UK)    *
 * (3) UNIVERSIDAD AUTONOMA DEL ESTADO DE MORELOS - CUERNAVACA (MEXICO)        *
 * (4) UNIVERSITE' DE LORRAINE - NANCY (FRANCE)                                *
 * (5) UNIVERSITAET STUTTGART- STUTTGART (GERMANY)                             *
 * (6) IMPERIAL COLLEGE - LONDON (UK)                                          *
 * (7) OXFORD E-RESEARCH CENTRE - OXFORD (UK)                                  *
 * (8) UPMC - SORBONNE UNIVERSITES - PARIS (FRANCE)                            *
 * (9) UNIVERSIDAD DE BARCELONA - BARCELONA (SPAIN)                            *
 *(10) UNIVERSITA' DI NAPOLI "FEDERICO II" - NAPOLI (ITALY)                    *
 *(11) NIS - NANOSTRUCTURED INTERFACES AND SURFACES - TORINO (ITALY)           *
 *(12) MPI FUER CHEMISCHE ENERGIEKONVERSION - MUELHEIM AN DER RUHR (GERMANY)   *
 *(13) UNIVERSITY OF TROMSO - TROMSO (NORWAY)                                  *
 *(14) UNIVERSITE' DE PAU ET DES PAYS DE L'ADOUR - PAU (FRANCE)                *
 *(15) UNIVERSITY OF CALIFORNIA SANTA BARBARA - SANTA BARBARA (USA)            *
 *(16) CURTIN UNIVERSITY - PERTH (AUSTRALIA)                                   *
 *(17) UNIVERSITY COLLEGE LONDON - LONDON (UK)                                 *
 *(18) CAMBRIDGE UNIVERSITY - CAMBRIDGE (UK)                                   *
 *                                                                             *
 *******************************************************************************
 EEEEEEEEEE STARTING  DATE 25 03 2024 TIME 23:49:57.9
 C:\Users\wilso\AppData\Local\Temp\tmp_p\newconn.mol                             

 CRYSTAL CALCULATION
 (INPUT ACCORDING TO THE INTERNATIONAL TABLES FOR X-RAY CRYSTALLOGRAPHY)
 CRYSTAL FAMILY                       :  TETRAGONAL  
 CRYSTAL CLASS  (GROTH - 1921)        :  TETRAGONAL DISPHENOIDAL              

 SPACE GROUP (NONCENTROSYMMETRIC)     :  I -4            

 LATTICE PARAMETERS  (ANGSTROMS AND DEGREES) - CONVENTIONAL CELL
        A           B           C        ALPHA        BETA       GAMMA
    10.72837    10.72837    12.37174    90.00000    90.00000    90.00000


 NUMBER OF IRREDUCIBLE ATOMS IN THE CONVENTIONAL CELL:  124

 INPUT COORDINATES

 ATOM AT. N.              COORDINATES
   1   1     9.753000000000E-02  5.322000000000E-01  3.473200000000E-01
   2   1     9.024700000000E-01  4.678000000000E-01  3.473200000000E-01
   3   1     5.322000000000E-01  9.024700000000E-01  6.526800000000E-01
   4   1     4.678000000000E-01  9.753000000000E-02  6.526800000000E-01
   5   1     5.975300000000E-01  3.220000000000E-02  8.473200000000E-01
   6   1     4.024700000000E-01  9.678000000000E-01  8.473200000000E-01
   7   1     3.220000000000E-02  4.024700000000E-01  1.526800000000E-01
   8   1     9.678000000000E-01  5.975300000000E-01  1.526800000000E-01
   9   6     2.598100000000E-01  8.065500000000E-01  3.813400000000E-01
  10   6     2.503700000000E-01  9.418300000000E-01  3.762200000000E-01
  11   6     1.598700000000E-01  7.241700000000E-01  3.645400000000E-01
  12   6     2.969100000000E-01  5.524300000000E-01  3.724000000000E-01
  13   6     3.739600000000E-01  7.453900000000E-01  3.975500000000E-01
  14   6     8.247200000000E-01  4.042600000000E-01  3.591600000000E-01
  15   6     7.401900000000E-01  1.934500000000E-01  3.813400000000E-01
  16   6     7.496300000000E-01  5.817000000000E-02  3.762200000000E-01
  17   6     8.401300000000E-01  2.758300000000E-01  3.645400000000E-01
  18   6     7.030900000000E-01  4.475700000000E-01  3.724000000000E-01
  19   6     6.260400000000E-01  2.546100000000E-01  3.975500000000E-01
  20   6     1.752800000000E-01  5.957400000000E-01  3.591600000000E-01
  21   6     8.065500000000E-01  7.401900000000E-01  6.186600000000E-01
  22   6     9.418300000000E-01  7.496300000000E-01  6.237800000000E-01
  23   6     7.241700000000E-01  8.401300000000E-01  6.354600000000E-01
  24   6     5.524300000000E-01  7.030900000000E-01  6.276000000000E-01
  25   6     7.453900000000E-01  6.260400000000E-01  6.024500000000E-01
  26   6     4.042600000000E-01  1.752800000000E-01  6.408400000000E-01
  27   6     1.934500000000E-01  2.598100000000E-01  6.186600000000E-01
  28   6     5.817000000000E-02  2.503700000000E-01  6.237800000000E-01
  29   6     2.758300000000E-01  1.598700000000E-01  6.354600000000E-01
  30   6     4.475700000000E-01  2.969100000000E-01  6.276000000000E-01
  31   6     2.546100000000E-01  3.739600000000E-01  6.024500000000E-01
  32   6     5.957400000000E-01  8.247200000000E-01  6.408400000000E-01
  33   6     7.598100000000E-01  3.065500000000E-01  8.813400000000E-01
  34   6     7.503700000000E-01  4.418300000000E-01  8.762200000000E-01
  35   6     6.598700000000E-01  2.241700000000E-01  8.645400000000E-01
  36   6     7.969100000000E-01  5.243000000000E-02  8.724000000000E-01
  37   6     8.739600000000E-01  2.453900000000E-01  8.975500000000E-01
  38   6     3.247200000000E-01  9.042600000000E-01  8.591600000000E-01
  39   6     2.401900000000E-01  6.934500000000E-01  8.813400000000E-01
  40   6     2.496300000000E-01  5.581700000000E-01  8.762200000000E-01
  41   6     3.401300000000E-01  7.758300000000E-01  8.645400000000E-01
  42   6     2.030900000000E-01  9.475700000000E-01  8.724000000000E-01
  43   6     1.260400000000E-01  7.546100000000E-01  8.975500000000E-01
  44   6     6.752800000000E-01  9.574000000000E-02  8.591600000000E-01
  45   6     3.065500000000E-01  2.401900000000E-01  1.186600000000E-01
  46   6     4.418300000000E-01  2.496300000000E-01  1.237800000000E-01
  47   6     2.241700000000E-01  3.401300000000E-01  1.354600000000E-01
  48   6     5.243000000000E-02  2.030900000000E-01  1.276000000000E-01
  49   6     2.453900000000E-01  1.260400000000E-01  1.024500000000E-01
  50   6     9.042600000000E-01  6.752800000000E-01  1.408400000000E-01
  51   6     6.934500000000E-01  7.598100000000E-01  1.186600000000E-01
  52   6     5.581700000000E-01  7.503700000000E-01  1.237800000000E-01
  53   6     7.758300000000E-01  6.598700000000E-01  1.354600000000E-01
  54   6     9.475700000000E-01  7.969100000000E-01  1.276000000000E-01
  55   6     7.546100000000E-01  8.739600000000E-01  1.024500000000E-01
  56   6     9.574000000000E-02  3.247200000000E-01  1.408400000000E-01
  57   7     3.391900000000E-01  1.704000000000E-02  3.329800000000E-01
  58   7     2.965300000000E-01  1.373800000000E-01  3.421100000000E-01
  59   7     1.548200000000E-01  1.381000000000E-02  4.110700000000E-01
  60   7     1.864400000000E-01  1.357600000000E-01  3.887600000000E-01
  61   7     3.945600000000E-01  6.244900000000E-01  3.923300000000E-01
  62   7     6.608100000000E-01  9.829600000000E-01  3.329800000000E-01
  63   7     7.034700000000E-01  8.626200000000E-01  3.421100000000E-01
  64   7     8.451800000000E-01  9.861900000000E-01  4.110700000000E-01
  65   7     8.135600000000E-01  8.642400000000E-01  3.887600000000E-01
  66   7     6.054400000000E-01  3.755100000000E-01  3.923300000000E-01
  67   7     1.704000000000E-02  6.608100000000E-01  6.670200000000E-01
  68   7     1.373800000000E-01  7.034700000000E-01  6.578900000000E-01
  69   7     1.381000000000E-02  8.451800000000E-01  5.889300000000E-01
  70   7     1.357600000000E-01  8.135600000000E-01  6.112400000000E-01
  71   7     6.244900000000E-01  6.054400000000E-01  6.076700000000E-01
  72   7     9.829600000000E-01  3.391900000000E-01  6.670200000000E-01
  73   7     8.626200000000E-01  2.965300000000E-01  6.578900000000E-01
  74   7     9.861900000000E-01  1.548200000000E-01  5.889300000000E-01
  75   7     8.642400000000E-01  1.864400000000E-01  6.112400000000E-01
  76   7     3.755100000000E-01  3.945600000000E-01  6.076700000000E-01
  77   7     8.391900000000E-01  5.170400000000E-01  8.329800000000E-01
  78   7     7.965300000000E-01  6.373800000000E-01  8.421100000000E-01
  79   7     6.548200000000E-01  5.138100000000E-01  9.110700000000E-01
  80   7     6.864400000000E-01  6.357600000000E-01  8.887600000000E-01
  81   7     8.945600000000E-01  1.244900000000E-01  8.923300000000E-01
  82   7     1.608100000000E-01  4.829600000000E-01  8.329800000000E-01
  83   7     2.034700000000E-01  3.626200000000E-01  8.421100000000E-01
  84   7     3.451800000000E-01  4.861900000000E-01  9.110700000000E-01
  85   7     3.135600000000E-01  3.642400000000E-01  8.887600000000E-01
  86   7     1.054400000000E-01  8.755100000000E-01  8.923300000000E-01
  87   7     5.170400000000E-01  1.608100000000E-01  1.670200000000E-01
  88   7     6.373800000000E-01  2.034700000000E-01  1.578900000000E-01
  89   7     5.138100000000E-01  3.451800000000E-01  8.893000000000E-02
  90   7     6.357600000000E-01  3.135600000000E-01  1.112400000000E-01
  91   7     1.244900000000E-01  1.054400000000E-01  1.076700000000E-01
  92   7     4.829600000000E-01  8.391900000000E-01  1.670200000000E-01
  93   7     3.626200000000E-01  7.965300000000E-01  1.578900000000E-01
  94   7     4.861900000000E-01  6.548200000000E-01  8.893000000000E-02
  95   7     3.642400000000E-01  6.864400000000E-01  1.112400000000E-01
  96   7     8.755100000000E-01  8.945600000000E-01  1.076700000000E-01
  97  35     4.473000000000E-02  7.711700000000E-01  3.531000000000E-01
  98  35     4.735800000000E-01  8.164300000000E-01  4.221700000000E-01
  99  35     3.179000000000E-01  4.296800000000E-01  3.665900000000E-01
 100  35     9.552700000000E-01  2.288300000000E-01  3.531000000000E-01
 101  35     5.264200000000E-01  1.835700000000E-01  4.221700000000E-01
 102  35     6.821000000000E-01  5.703200000000E-01  3.665900000000E-01
 103  35     7.711700000000E-01  9.552700000000E-01  6.469000000000E-01
 104  35     8.164300000000E-01  5.264200000000E-01  5.778300000000E-01
 105  35     4.296800000000E-01  6.821000000000E-01  6.334100000000E-01
 106  35     2.288300000000E-01  4.473000000000E-02  6.469000000000E-01
 107  35     1.835700000000E-01  4.735800000000E-01  5.778300000000E-01
 108  35     5.703200000000E-01  3.179000000000E-01  6.334100000000E-01
 109  35     5.447300000000E-01  2.711700000000E-01  8.531000000000E-01
 110  35     9.735800000000E-01  3.164300000000E-01  9.221700000000E-01
 111  35     8.179000000000E-01  9.296800000000E-01  8.665900000000E-01
 112  35     4.552700000000E-01  7.288300000000E-01  8.531000000000E-01
 113  35     2.642000000000E-02  6.835700000000E-01  9.221700000000E-01
 114  35     1.821000000000E-01  7.032000000000E-02  8.665900000000E-01
 115  35     2.711700000000E-01  4.552700000000E-01  1.469000000000E-01
 116  35     3.164300000000E-01  2.642000000000E-02  7.783000000000E-02
 117  35     9.296800000000E-01  1.821000000000E-01  1.334100000000E-01
 118  35     7.288300000000E-01  5.447300000000E-01  1.469000000000E-01
 119  35     6.835700000000E-01  9.735800000000E-01  7.783000000000E-02
 120  35     7.032000000000E-02  8.179000000000E-01  1.334100000000E-01
 121  30     3.651355914833E-16  5.000000000000E-01  7.500000000000E-01
 122  30     3.311511656453E-16  8.278779141133E-17  5.000000000000E-01
 123  30     5.000000000000E-01  8.278779141133E-17  2.500000000000E-01
 124  30     5.000000000000E-01  5.000000000000E-01  3.461039673341E-16

 *******************************************************************************

 << INFORMATION >>: FROM NOW ON, ALL COORDINATES REFER TO THE PRIMITIVE CELL

 *******************************************************************************

 LATTICE PARAMETERS  (ANGSTROMS AND DEGREES) - PRIMITIVE CELL
       A          B          C        ALPHA      BETA     GAMMA        VOLUME
    9.78846    9.78846    9.78846   113.53864 113.53864 101.61094    711.981481

 INPUT LIST - ATOM N.   2 NOT IRREDUCIBLE

 INPUT LIST - ATOM N.   3 NOT IRREDUCIBLE

 INPUT LIST - ATOM N.   4 NOT IRREDUCIBLE

 INPUT LIST - ATOM N.   1 NOT IRREDUCIBLE

 INPUT LIST - ATOM N.   2 NOT IRREDUCIBLE

 INPUT LIST - ATOM N.   3 NOT IRREDUCIBLE

 INPUT LIST - ATOM N.   4 NOT IRREDUCIBLE

 INPUT LIST - ATOM N.   6 NOT IRREDUCIBLE

 INPUT LIST - ATOM N.  10 NOT IRREDUCIBLE

 INPUT LIST - ATOM N.  14 NOT IRREDUCIBLE

 INPUT LIST - ATOM N.  18 NOT IRREDUCIBLE

 INPUT LIST - ATOM N.  22 NOT IRREDUCIBLE

 INPUT LIST - ATOM N.  26 NOT IRREDUCIBLE

 INPUT LIST - ATOM N.   7 NOT IRREDUCIBLE

 INPUT LIST - ATOM N.  11 NOT IRREDUCIBLE

 INPUT LIST - ATOM N.  15 NOT IRREDUCIBLE

 INPUT LIST - ATOM N.  19 NOT IRREDUCIBLE

 INPUT LIST - ATOM N.  23 NOT IRREDUCIBLE

 INPUT LIST - ATOM N.  27 NOT IRREDUCIBLE

 INPUT LIST - ATOM N.   8 NOT IRREDUCIBLE

 INPUT LIST - ATOM N.  12 NOT IRREDUCIBLE

 INPUT LIST - ATOM N.  16 NOT IRREDUCIBLE

 INPUT LIST - ATOM N.  20 NOT IRREDUCIBLE

 INPUT LIST - ATOM N.  24 NOT IRREDUCIBLE

 INPUT LIST - ATOM N.  28 NOT IRREDUCIBLE

 INPUT LIST - ATOM N.   5 NOT IRREDUCIBLE

 INPUT LIST - ATOM N.   9 NOT IRREDUCIBLE

 INPUT LIST - ATOM N.  13 NOT IRREDUCIBLE

 INPUT LIST - ATOM N.  17 NOT IRREDUCIBLE

 INPUT LIST - ATOM N.  21 NOT IRREDUCIBLE

 INPUT LIST - ATOM N.  25 NOT IRREDUCIBLE

 INPUT LIST - ATOM N.   6 NOT IRREDUCIBLE

 INPUT LIST - ATOM N.  10 NOT IRREDUCIBLE

 INPUT LIST - ATOM N.  14 NOT IRREDUCIBLE

 INPUT LIST - ATOM N.  18 NOT IRREDUCIBLE

 INPUT LIST - ATOM N.  22 NOT IRREDUCIBLE

 INPUT LIST - ATOM N.  26 NOT IRREDUCIBLE

 INPUT LIST - ATOM N.   7 NOT IRREDUCIBLE

 INPUT LIST - ATOM N.  11 NOT IRREDUCIBLE

 INPUT LIST - ATOM N.  15 NOT IRREDUCIBLE

 INPUT LIST - ATOM N.  19 NOT IRREDUCIBLE

 INPUT LIST - ATOM N.  23 NOT IRREDUCIBLE

 INPUT LIST - ATOM N.  27 NOT IRREDUCIBLE

 INPUT LIST - ATOM N.   8 NOT IRREDUCIBLE

 INPUT LIST - ATOM N.  12 NOT IRREDUCIBLE

 INPUT LIST - ATOM N.  16 NOT IRREDUCIBLE

 INPUT LIST - ATOM N.  20 NOT IRREDUCIBLE

 INPUT LIST - ATOM N.  24 NOT IRREDUCIBLE

 INPUT LIST - ATOM N.  28 NOT IRREDUCIBLE

 INPUT LIST - ATOM N.  30 NOT IRREDUCIBLE

 INPUT LIST - ATOM N.  34 NOT IRREDUCIBLE

 INPUT LIST - ATOM N.  38 NOT IRREDUCIBLE

 INPUT LIST - ATOM N.  42 NOT IRREDUCIBLE

 INPUT LIST - ATOM N.  46 NOT IRREDUCIBLE

 INPUT LIST - ATOM N.  31 NOT IRREDUCIBLE

 INPUT LIST - ATOM N.  35 NOT IRREDUCIBLE

 INPUT LIST - ATOM N.  39 NOT IRREDUCIBLE

 INPUT LIST - ATOM N.  43 NOT IRREDUCIBLE

 INPUT LIST - ATOM N.  47 NOT IRREDUCIBLE

 INPUT LIST - ATOM N.  32 NOT IRREDUCIBLE

 INPUT LIST - ATOM N.  36 NOT IRREDUCIBLE

 INPUT LIST - ATOM N.  40 NOT IRREDUCIBLE

 INPUT LIST - ATOM N.  44 NOT IRREDUCIBLE

 INPUT LIST - ATOM N.  48 NOT IRREDUCIBLE

 INPUT LIST - ATOM N.  29 NOT IRREDUCIBLE

 INPUT LIST - ATOM N.  33 NOT IRREDUCIBLE

 INPUT LIST - ATOM N.  37 NOT IRREDUCIBLE

 INPUT LIST - ATOM N.  41 NOT IRREDUCIBLE

 INPUT LIST - ATOM N.  45 NOT IRREDUCIBLE

 INPUT LIST - ATOM N.  30 NOT IRREDUCIBLE

 INPUT LIST - ATOM N.  34 NOT IRREDUCIBLE

 INPUT LIST - ATOM N.  38 NOT IRREDUCIBLE

 INPUT LIST - ATOM N.  42 NOT IRREDUCIBLE

 INPUT LIST - ATOM N.  46 NOT IRREDUCIBLE

 INPUT LIST - ATOM N.  31 NOT IRREDUCIBLE

 INPUT LIST - ATOM N.  35 NOT IRREDUCIBLE

 INPUT LIST - ATOM N.  39 NOT IRREDUCIBLE

 INPUT LIST - ATOM N.  43 NOT IRREDUCIBLE

 INPUT LIST - ATOM N.  47 NOT IRREDUCIBLE

 INPUT LIST - ATOM N.  32 NOT IRREDUCIBLE

 INPUT LIST - ATOM N.  36 NOT IRREDUCIBLE

 INPUT LIST - ATOM N.  40 NOT IRREDUCIBLE

 INPUT LIST - ATOM N.  44 NOT IRREDUCIBLE

 INPUT LIST - ATOM N.  48 NOT IRREDUCIBLE

 INPUT LIST - ATOM N.  50 NOT IRREDUCIBLE

 INPUT LIST - ATOM N.  54 NOT IRREDUCIBLE

 INPUT LIST - ATOM N.  58 NOT IRREDUCIBLE

 INPUT LIST - ATOM N.  51 NOT IRREDUCIBLE

 INPUT LIST - ATOM N.  55 NOT IRREDUCIBLE

 INPUT LIST - ATOM N.  59 NOT IRREDUCIBLE

 INPUT LIST - ATOM N.  52 NOT IRREDUCIBLE

 INPUT LIST - ATOM N.  56 NOT IRREDUCIBLE

 INPUT LIST - ATOM N.  60 NOT IRREDUCIBLE

 INPUT LIST - ATOM N.  49 NOT IRREDUCIBLE

 INPUT LIST - ATOM N.  53 NOT IRREDUCIBLE

 INPUT LIST - ATOM N.  57 NOT IRREDUCIBLE

 INPUT LIST - ATOM N.  50 NOT IRREDUCIBLE

 INPUT LIST - ATOM N.  54 NOT IRREDUCIBLE

 INPUT LIST - ATOM N.  58 NOT IRREDUCIBLE

 INPUT LIST - ATOM N.  51 NOT IRREDUCIBLE

 INPUT LIST - ATOM N.  55 NOT IRREDUCIBLE

 INPUT LIST - ATOM N.  59 NOT IRREDUCIBLE

 INPUT LIST - ATOM N.  52 NOT IRREDUCIBLE

 INPUT LIST - ATOM N.  56 NOT IRREDUCIBLE

 INPUT LIST - ATOM N.  60 NOT IRREDUCIBLE

 INPUT LIST - ATOM N.  61 NOT IRREDUCIBLE

 INPUT LIST - ATOM N.  62 NOT IRREDUCIBLE

 COORDINATES OF THE EQUIVALENT ATOMS (FRACTIONAL UNITS)

 N. ATOM EQUIV AT. N.          X                  Y                  Z

   1   1   1    1 H    -1.20480000000E-01  4.44850000000E-01 -3.70270000000E-01
   2   1   2    1 H    -1.84880000000E-01  2.49790000000E-01  3.70270000000E-01
   3   1   3    1 H    -4.44850000000E-01  1.84880000000E-01  4.34670000000E-01
   4   1   4    1 H    -2.49790000000E-01  1.20480000000E-01 -4.34670000000E-01








   5   9   1    6 C     1.87890000000E-01 -3.58850000000E-01  6.63600000000E-02
   6   9   2    6 C    -4.25210000000E-01  1.21530000000E-01 -6.63600000000E-02
   7   9   3    6 C     3.58850000000E-01  4.25210000000E-01 -4.53260000000E-01
   8   9   4    6 C    -1.21530000000E-01 -1.87890000000E-01  4.53260000000E-01

   9  10   1    6 C     3.18050000000E-01 -3.73410000000E-01  1.92200000000E-01
  10  10   2    6 C     4.34390000000E-01  1.25850000000E-01 -1.92200000000E-01
  11  10   3    6 C     3.73410000000E-01 -4.34390000000E-01 -3.08540000000E-01
  12  10   4    6 C    -1.25850000000E-01 -3.18050000000E-01  3.08540000000E-01

  13  11   1    6 C     8.87100000000E-02 -4.75590000000E-01 -1.15960000000E-01
  14  11   2    6 C    -3.59630000000E-01  2.04670000000E-01  1.15960000000E-01
  15  11   3    6 C     4.75590000000E-01  3.59630000000E-01 -4.35700000000E-01
  16  11   4    6 C    -2.04670000000E-01 -8.87100000000E-02  4.35700000000E-01

  17  12   1    6 C    -7.51700000000E-02 -3.30690000000E-01 -1.50660000000E-01
  18  12   2    6 C    -1.80030000000E-01  7.54900000000E-02  1.50660000000E-01
  19  12   3    6 C     3.30690000000E-01  1.80030000000E-01  2.55520000000E-01
  20  12   4    6 C    -7.54900000000E-02  7.51700000000E-02 -2.55520000000E-01

  21  13   1    6 C     1.42940000000E-01 -2.28490000000E-01  1.19350000000E-01
  22  13   2    6 C    -3.47840000000E-01  2.35900000000E-02 -1.19350000000E-01
  23  13   3    6 C     2.28490000000E-01  3.47840000000E-01  3.71430000000E-01
  24  13   4    6 C    -2.35900000000E-02 -1.42940000000E-01 -3.71430000000E-01

  25  14   1    6 C    -2.36580000000E-01  1.83880000000E-01  2.28980000000E-01
  26  14   2    6 C    -4.51000000000E-02 -4.65560000000E-01 -2.28980000000E-01
  27  14   3    6 C    -1.83880000000E-01  4.51000000000E-02 -4.20460000000E-01
  28  14   4    6 C     4.65560000000E-01  2.36580000000E-01  4.20460000000E-01




 NUMBER OF SYMMETRY OPERATORS         :    4
 *******************************************************************************
 * GEOMETRY EDITING - INPUT COORDINATES ARE GIVEN IN ANGSTROM         
 *******************************************************************************

 GEOMETRY NOW FULLY CONSISTENT WITH THE GROUP
 *******************************************************************************
 *  GEOMETRY EDITING
 *  THE SYMMETRY OF THE CRYSTAL IS KEPT AND APPLIED TO THE PERTURBATION
 *******************************************************************************
 INFORMATION **** NEW DEFAULT **** FINALRUN 4 FOR GEOMETRY OPTIMIZATIONS
 INFORMATION **** NEW DEFAULT **** OPTGEOM OPTIMIZES BOTH ATOMIC COORDINATES AND CELL PARAMETERS
 INFORMATION **** NEW DEFAULT **** TOL. ON ATOMIC DISP TO REDEFINE REF. GEOMETRY: 0.8 Angs
 INFORMATION **** NEW DEFAULT **** N POINTS TO REDEFINE REF. GEOMETRY: N OF OPT DEGS OF FREEDOM
 INFORMATION **** NEW DEFAULT **** TOL. ON ENERGY TO REDEFINE REF. GEOMETRY: 10**-3*(5*N. ATOMS)

 IMPORTANT INFORMATION:
 THE COORDINATE SYSTEM ADOPTED IN THE OPTIMIZATION IS NOT IN
 GENERAL HOMOGENEOUS UNITS. FOR THIS REASON THE GRADIENT AND 
 HESSIAN MATRIX IN TERMS OF THIS SYSTEM ARE GIVEN WITHOUT
 UNITS. FOR MORE DETAILS SEE THE MANUAL.

 *******************************************************************************
 COMBINED CELL/ATOM OPTIMIZATION CONTROL

 INITIAL TRUST RADIUS         0.50000 MAXIMUM TRUST RADIUS               4.00000
 MAXIMUM GRADIENT COMPONENT   0.00045 MAXIMUM DISPLACEMENT COMPONENT     0.00180
 R.M.S. OF GRADIENT COMPONENT 0.00030 R.M.S. OF DISPLACEMENT COMPONENTS  0.00120
 THRESHOLD ON ENERGY CHANGE 0.100E-06 EXTRAPOLATING POLYNOMIAL ORDER           2
 MAXIMUM ALLOWED NUMBER OF STEPS   -1 SORTING OF ENERGY POINTS:               NO
 ANALYTICAL  GRADIENT                 HESSIAN UPDATING                      BFGS
 STEP SIZE NUMERICAL GRADIENT 0.00100
 INITIAL HESSIAN MATRIX: SCHLEGEL MODEL 2
 *******************************************************************************


 GCALCO - MAX INDICES DIRECT LATTICE VECTOR    14    14    16
 NO.OF VECTORS CREATED 6999 STARS  486 RMAX   200.81054 BOHR

 GEOMETRY FOR WAVE FUNCTION - DIMENSIONALITY OF THE SYSTEM    3
 (NON PERIODIC DIRECTION: LATTICE PARAMETER FORMALLY SET TO 500)
 *******************************************************************************
 LATTICE PARAMETERS (ANGSTROMS AND DEGREES) - BOHR = 0.5291772083 ANGSTROM
 PRIMITIVE CELL - CENTRING CODE 6/0 VOLUME=   711.981481 - DENSITY  3.841 g/cm^3
         A              B              C           ALPHA      BETA       GAMMA 
     9.78846301     9.78846301     9.78846301   113.538643 113.538643 101.610944
 *******************************************************************************
 ATOMS IN THE ASYMMETRIC UNIT   17 - ATOMS IN THE UNIT CELL:   62
     ATOM                 X/A                 Y/B                 Z/C    
 *******************************************************************************
      1 T   1 H    -1.204800000000E-01  4.448500000000E-01 -3.702700000000E-01
      2 F   1 H    -1.848800000000E-01  2.497900000000E-01  3.702700000000E-01
      3 F   1 H    -4.448500000000E-01  1.848800000000E-01  4.346700000000E-01
      4 F   1 H    -2.497900000000E-01  1.204800000000E-01 -4.346700000000E-01
      5 T   6 C     1.878900000000E-01 -3.588500000000E-01  6.636000000000E-02
      6 F   6 C    -4.252100000000E-01  1.215300000000E-01 -6.636000000000E-02
      7 F   6 C     3.588500000000E-01  4.252100000000E-01 -4.532600000000E-01
      8 F   6 C    -1.215300000000E-01 -1.878900000000E-01  4.532600000000E-01
      9 T   6 C     3.180500000000E-01 -3.734100000000E-01  1.922000000000E-01
     10 F   6 C     4.343900000000E-01  1.258500000000E-01 -1.922000000000E-01
     11 F   6 C     3.734100000000E-01 -4.343900000000E-01 -3.085400000000E-01
     12 F   6 C    -1.258500000000E-01 -3.180500000000E-01  3.085400000000E-01
     13 T   6 C     8.871000000000E-02 -4.755900000000E-01 -1.159600000000E-01
     14 F   6 C    -3.596300000000E-01  2.046700000000E-01  1.159600000000E-01
     15 F   6 C     4.755900000000E-01  3.596300000000E-01 -4.357000000000E-01
     16 F   6 C    -2.046700000000E-01 -8.871000000000E-02  4.357000000000E-01
     17 T   6 C    -7.517000000000E-02 -3.306900000000E-01 -1.506600000000E-01
     18 F   6 C    -1.800300000000E-01  7.549000000000E-02  1.506600000000E-01
     19 F   6 C     3.306900000000E-01  1.800300000000E-01  2.555200000000E-01
     20 F   6 C    -7.549000000000E-02  7.517000000000E-02 -2.555200000000E-01
     21 T   6 C     1.429400000000E-01 -2.284900000000E-01  1.193500000000E-01
     22 F   6 C    -3.478400000000E-01  2.359000000000E-02 -1.193500000000E-01
     23 F   6 C     2.284900000000E-01  3.478400000000E-01  3.714300000000E-01
     24 F   6 C    -2.359000000000E-02 -1.429400000000E-01 -3.714300000000E-01
     25 T   6 C    -2.365800000000E-01  1.838800000000E-01  2.289800000000E-01
     26 F   6 C    -4.510000000000E-02 -4.655600000000E-01 -2.289800000000E-01
     27 F   6 C    -1.838800000000E-01  4.510000000000E-02 -4.204600000000E-01
     28 F   6 C     4.655600000000E-01  2.365800000000E-01  4.204600000000E-01
     29 T   7 N     3.500200000000E-01 -3.278300000000E-01  3.562300000000E-01
     30 F   7 N     3.159400000000E-01 -6.210000000000E-03 -3.562300000000E-01
     31 F   7 N     3.278300000000E-01 -3.159400000000E-01 -3.221500000000E-01
     32 F   7 N     6.210000000000E-03 -3.500200000000E-01  3.221500000000E-01
     33 T   7 N     4.794900000000E-01 -3.613600000000E-01  4.339100000000E-01
     34 F   7 N     2.047300000000E-01  4.558000000000E-02 -4.339100000000E-01
     35 F   7 N     3.613600000000E-01 -2.047300000000E-01 -1.591500000000E-01
     36 F   7 N    -4.558000000000E-02 -4.794900000000E-01  1.591500000000E-01
     37 T   7 N     4.248800000000E-01 -4.341100000000E-01  1.686300000000E-01
     38 F   7 N     3.972600000000E-01  2.562500000000E-01 -1.686300000000E-01
     39 F   7 N     4.341100000000E-01 -3.972600000000E-01 -1.410100000000E-01
     40 F   7 N    -2.562500000000E-01 -4.248800000000E-01  1.410100000000E-01
     41 T   7 N    -4.754800000000E-01 -4.248000000000E-01  3.222000000000E-01
     42 F   7 N     2.530000000000E-01  2.023200000000E-01 -3.222000000000E-01
     43 F   7 N     4.248000000000E-01 -2.530000000000E-01 -5.068000000000E-02
     44 F   7 N    -2.023200000000E-01  4.754800000000E-01  5.068000000000E-02
     45 T   7 N     1.682000000000E-02 -2.131100000000E-01  1.905000000000E-02
     46 F   7 N    -2.321600000000E-01 -2.230000000000E-03 -1.905000000000E-02
     47 F   7 N     2.131100000000E-01  2.321600000000E-01  2.299300000000E-01
     48 F   7 N     2.230000000000E-03 -1.682000000000E-02 -2.299300000000E-01
     49 T  35 BR    1.242700000000E-01  3.978300000000E-01 -1.841000000000E-01
     50 F  35 BR   -4.180700000000E-01  3.083700000000E-01  1.841000000000E-01
     51 F  35 BR   -3.978300000000E-01  4.180700000000E-01 -2.735600000000E-01
     52 F  35 BR   -3.083700000000E-01 -1.242700000000E-01  2.735600000000E-01
     53 T  35 BR    2.386000000000E-01 -1.042500000000E-01  2.900100000000E-01
     54 F  35 BR   -3.942600000000E-01 -5.141000000000E-02 -2.900100000000E-01
     55 F  35 BR    1.042500000000E-01  3.942600000000E-01  3.428500000000E-01
     56 F  35 BR    5.141000000000E-02 -2.386000000000E-01 -3.428500000000E-01
     57 T  35 BR   -2.037300000000E-01 -3.155100000000E-01 -2.524200000000E-01
     58 F  35 BR   -6.309000000000E-02  4.869000000000E-02  2.524200000000E-01
     59 F  35 BR    3.155100000000E-01  6.309000000000E-02  1.117800000000E-01
     60 F  35 BR   -4.869000000000E-02  2.037300000000E-01 -1.117800000000E-01
     61 T  30 ZN    2.500000000000E-01 -2.500000000000E-01 -5.000000000000E-01
     62 T  30 ZN   -5.000000000000E-01 -5.000000000000E-01 -1.109335647967E-31

 TRANSFORMATION MATRIX PRIMITIVE-CRYSTALLOGRAPHIC CELL
  0.0000  1.0000  1.0000  1.0000  0.0000  1.0000  1.0000  1.0000  0.0000

 *******************************************************************************
 CRYSTALLOGRAPHIC CELL (VOLUME=       1423.96296282)
         A              B              C           ALPHA      BETA       GAMMA 
    10.72837440    10.72837440    12.37174190    90.000000  90.000000  90.000000

 COORDINATES IN THE CRYSTALLOGRAPHIC CELL
     ATOM                 X/A                 Y/B                 Z/C    
 *******************************************************************************
      1 T   1 H    -4.024700000000E-01  3.220000000000E-02 -1.526800000000E-01
      2 F   1 H     4.024700000000E-01 -3.220000000000E-02 -1.526800000000E-01
      3 F   1 H     3.220000000000E-02  4.024700000000E-01  1.526800000000E-01
      4 F   1 H    -3.220000000000E-02 -4.024700000000E-01  1.526800000000E-01
      5 T   6 C    -2.401900000000E-01  3.065500000000E-01 -1.186600000000E-01
      6 F   6 C     2.401900000000E-01 -3.065500000000E-01 -1.186600000000E-01
      7 F   6 C     3.065500000000E-01  2.401900000000E-01  1.186600000000E-01
      8 F   6 C    -3.065500000000E-01 -2.401900000000E-01  1.186600000000E-01
      9 T   6 C     2.503700000000E-01 -5.817000000000E-02  3.762200000000E-01
     10 F   6 C    -2.503700000000E-01  5.817000000000E-02  3.762200000000E-01
     11 F   6 C    -5.817000000000E-02 -2.503700000000E-01 -3.762200000000E-01
     12 F   6 C     5.817000000000E-02  2.503700000000E-01 -3.762200000000E-01
     13 T   6 C    -3.401300000000E-01  2.241700000000E-01 -1.354600000000E-01
     14 F   6 C     3.401300000000E-01 -2.241700000000E-01 -1.354600000000E-01
     15 F   6 C     2.241700000000E-01  3.401300000000E-01  1.354600000000E-01
     16 F   6 C    -2.241700000000E-01 -3.401300000000E-01  1.354600000000E-01
     17 T   6 C    -2.030900000000E-01  5.243000000000E-02 -1.276000000000E-01
     18 F   6 C     2.030900000000E-01 -5.243000000000E-02 -1.276000000000E-01
     19 F   6 C     5.243000000000E-02  2.030900000000E-01  1.276000000000E-01
     20 F   6 C    -5.243000000000E-02 -2.030900000000E-01  1.276000000000E-01
     21 T   6 C    -1.260400000000E-01  2.453900000000E-01 -1.024500000000E-01
     22 F   6 C     1.260400000000E-01 -2.453900000000E-01 -1.024500000000E-01
     23 F   6 C     2.453900000000E-01  1.260400000000E-01  1.024500000000E-01
     24 F   6 C    -2.453900000000E-01 -1.260400000000E-01  1.024500000000E-01
     25 T   6 C     3.247200000000E-01 -9.574000000000E-02 -1.408400000000E-01
     26 F   6 C    -3.247200000000E-01  9.574000000000E-02 -1.408400000000E-01
     27 F   6 C    -9.574000000000E-02 -3.247200000000E-01  1.408400000000E-01
     28 F   6 C     9.574000000000E-02  3.247200000000E-01  1.408400000000E-01
     29 T   7 N     3.391900000000E-01  1.704000000000E-02  3.329800000000E-01
     30 F   7 N    -3.391900000000E-01 -1.704000000000E-02  3.329800000000E-01
     31 F   7 N     1.704000000000E-02 -3.391900000000E-01 -3.329800000000E-01
     32 F   7 N    -1.704000000000E-02  3.391900000000E-01 -3.329800000000E-01
     33 T   7 N    -2.034700000000E-01 -3.626200000000E-01 -1.578900000000E-01
     34 F   7 N     2.034700000000E-01  3.626200000000E-01 -1.578900000000E-01
     35 F   7 N    -3.626200000000E-01  2.034700000000E-01  1.578900000000E-01
     36 F   7 N     3.626200000000E-01 -2.034700000000E-01  1.578900000000E-01
     37 T   7 N     1.548200000000E-01  1.381000000000E-02  4.110700000000E-01
     38 F   7 N    -1.548200000000E-01 -1.381000000000E-02  4.110700000000E-01
     39 F   7 N     1.381000000000E-02 -1.548200000000E-01 -4.110700000000E-01
     40 F   7 N    -1.381000000000E-02  1.548200000000E-01 -4.110700000000E-01
     41 T   7 N    -3.135600000000E-01 -3.642400000000E-01 -1.112400000000E-01
     42 F   7 N     3.135600000000E-01  3.642400000000E-01 -1.112400000000E-01
     43 F   7 N    -3.642400000000E-01  3.135600000000E-01  1.112400000000E-01
     44 F   7 N     3.642400000000E-01 -3.135600000000E-01  1.112400000000E-01
     45 T   7 N    -1.054400000000E-01  1.244900000000E-01 -1.076700000000E-01
     46 F   7 N     1.054400000000E-01 -1.244900000000E-01 -1.076700000000E-01
     47 F   7 N     1.244900000000E-01  1.054400000000E-01  1.076700000000E-01
     48 F   7 N    -1.244900000000E-01 -1.054400000000E-01  1.076700000000E-01
     49 T  35 BR    4.473000000000E-02 -2.288300000000E-01  3.531000000000E-01
     50 F  35 BR   -4.473000000000E-02  2.288300000000E-01  3.531000000000E-01
     51 F  35 BR   -2.288300000000E-01 -4.473000000000E-02 -3.531000000000E-01
     52 F  35 BR    2.288300000000E-01  4.473000000000E-02 -3.531000000000E-01
     53 T  35 BR   -2.642000000000E-02  3.164300000000E-01 -7.783000000000E-02
     54 F  35 BR    2.642000000000E-02 -3.164300000000E-01 -7.783000000000E-02
     55 F  35 BR    3.164300000000E-01  2.642000000000E-02  7.783000000000E-02
     56 F  35 BR   -3.164300000000E-01 -2.642000000000E-02  7.783000000000E-02
     57 T  35 BR   -1.821000000000E-01 -7.032000000000E-02 -1.334100000000E-01
     58 F  35 BR    1.821000000000E-01  7.032000000000E-02 -1.334100000000E-01
     59 F  35 BR   -7.032000000000E-02  1.821000000000E-01  1.334100000000E-01
     60 F  35 BR    7.032000000000E-02 -1.821000000000E-01  1.334100000000E-01
     61 T  30 ZN    5.000000000000E-01  4.380941222644E-17  2.500000000000E-01
     62 T  30 ZN   -5.546678239835E-32 -5.546678239835E-32 -5.000000000000E-01

 T = ATOM BELONGING TO THE ASYMMETRIC UNIT

 ****    4 SYMMOPS - TRANSLATORS IN FRACTIONAL UNITS
 **** MATRICES AND TRANSLATORS IN THE CRYSTALLOGRAPHIC REFERENCE FRAME
   V INV                    ROTATION MATRICES                   TRANSLATORS
   1   1  1.00  0.00  0.00  0.00  1.00  0.00  0.00  0.00  1.00  0.00  0.00  0.00
   2   2  0.00  1.00 -1.00  1.00  0.00 -1.00 -0.00  0.00 -1.00  0.00  0.00  0.00
   3   4 -0.00 -1.00  0.00  0.00 -1.00  1.00  1.00 -1.00  0.00  0.00  0.00  0.00
   4   3 -1.00 -0.00  1.00 -1.00  0.00  0.00 -1.00  1.00 -0.00  0.00  0.00  0.00

 DIRECT LATTICE VECTORS CARTESIAN COMPONENTS (ANGSTROM)
          X                    Y                    Z
  -0.536418720000E+01   0.536418720000E+01   0.618587095000E+01
   0.536418720000E+01  -0.536418720000E+01   0.618587095000E+01
   0.536418720000E+01   0.536418720000E+01  -0.618587095000E+01


 CARTESIAN COORDINATES - PRIMITIVE CELL
 *******************************************************************************
 *      ATOM          X(ANGSTROM)         Y(ANGSTROM)         Z(ANGSTROM)
 *******************************************************************************
    1     1 H    -4.317848844768E+00  3.454536556800E-01 -1.888917553292E+00
    2     1 H     4.317848844768E+00 -3.454536556800E-01 -1.888917553292E+00
    3     1 H     3.454536556800E-01  4.317848844768E+00  1.888917553292E+00
    4     1 H    -3.454536556800E-01 -4.317848844768E+00  1.888917553292E+00
    5     6 C    -2.576848247136E+00  3.288783172320E+00 -1.468030893854E+00
    6     6 C     2.576848247136E+00 -3.288783172320E+00 -1.468030893854E+00
    7     6 C     3.288783172320E+00  2.576848247136E+00  1.468030893854E+00
    8     6 C    -3.288783172320E+00 -2.576848247136E+00  1.468030893854E+00
    9     6 C     2.686063098528E+00 -6.240695388480E-01  4.654496737618E+00
   10     6 C    -2.686063098528E+00  6.240695388480E-01  4.654496737618E+00
   11     6 C    -6.240695388480E-01 -2.686063098528E+00 -4.654496737618E+00
   12     6 C     6.240695388480E-01  2.686063098528E+00 -4.654496737618E+00
   13     6 C    -3.649041984672E+00  2.404979689248E+00 -1.675876157774E+00
   14     6 C     3.649041984672E+00 -2.404979689248E+00 -1.675876157774E+00
   15     6 C     2.404979689248E+00  3.649041984672E+00  1.675876157774E+00
   16     6 C    -2.404979689248E+00 -3.649041984672E+00  1.675876157774E+00
   17     6 C    -2.178825556896E+00  5.624886697920E-01 -1.578634266440E+00
   18     6 C     2.178825556896E+00 -5.624886697920E-01 -1.578634266440E+00
   19     6 C     5.624886697920E-01  2.178825556896E+00  1.578634266440E+00
   20     6 C    -5.624886697920E-01 -2.178825556896E+00  1.578634266440E+00
   21     6 C    -1.352204309376E+00  2.632635794016E+00 -1.267484957655E+00
   22     6 C     1.352204309376E+00 -2.632635794016E+00 -1.267484957655E+00
   23     6 C     2.632635794016E+00  1.352204309376E+00  1.267484957655E+00
   24     6 C    -2.632635794016E+00 -1.352204309376E+00  1.267484957655E+00
   25     6 C     3.483717735168E+00 -1.027134565056E+00 -1.742436129196E+00
   26     6 C    -3.483717735168E+00  1.027134565056E+00 -1.742436129196E+00
   27     6 C    -1.027134565056E+00 -3.483717735168E+00  1.742436129196E+00
   28     6 C     1.027134565056E+00  3.483717735168E+00  1.742436129196E+00
   29     7 N     3.638957312736E+00  1.828114997760E-01  4.119542617862E+00
   30     7 N    -3.638957312736E+00 -1.828114997760E-01  4.119542617862E+00
   31     7 N     1.828114997760E-01 -3.638957312736E+00 -4.119542617862E+00
   32     7 N    -1.828114997760E-01  3.638957312736E+00 -4.119542617862E+00
   33     7 N    -2.182902339168E+00 -3.890323124928E+00 -1.953374328591E+00
   34     7 N     2.182902339168E+00  3.890323124928E+00 -1.953374328591E+00
   35     7 N    -3.890323124928E+00  2.182902339168E+00  1.953374328591E+00
   36     7 N     3.890323124928E+00 -2.182902339168E+00  1.953374328591E+00
   37     7 N     1.660966924608E+00  1.481588504640E-01  5.085651942833E+00
   38     7 N    -1.660966924608E+00 -1.481588504640E-01  5.085651942833E+00
   39     7 N     1.481588504640E-01 -1.660966924608E+00 -5.085651942833E+00
   40     7 N    -1.481588504640E-01  1.660966924608E+00 -5.085651942833E+00
   41     7 N    -3.363989076864E+00 -3.907703091456E+00 -1.376232568956E+00
   42     7 N     3.363989076864E+00  3.907703091456E+00 -1.376232568956E+00
   43     7 N    -3.907703091456E+00  3.363989076864E+00  1.376232568956E+00
   44     7 N     3.907703091456E+00 -3.363989076864E+00  1.376232568956E+00
   45     7 N    -1.131199796736E+00  1.335575329056E+00 -1.332065450373E+00
   46     7 N     1.131199796736E+00 -1.335575329056E+00 -1.332065450373E+00
   47     7 N     1.335575329056E+00  1.131199796736E+00  1.332065450373E+00
   48     7 N    -1.335575329056E+00 -1.131199796736E+00  1.332065450373E+00
   49    35 BR    4.798801869120E-01 -2.454973913952E+00  4.368462064890E+00
   50    35 BR   -4.798801869120E-01  2.454973913952E+00  4.368462064890E+00
   51    35 BR   -2.454973913952E+00 -4.798801869120E-01 -4.368462064890E+00
   52    35 BR    2.454973913952E+00  4.798801869120E-01 -4.368462064890E+00
   53    35 BR   -2.834436516480E-01  3.394779511392E+00 -9.628926720770E-01
   54    35 BR    2.834436516480E-01 -3.394779511392E+00 -9.628926720770E-01
   55    35 BR    3.394779511392E+00  2.834436516480E-01  9.628926720770E-01
   56    35 BR   -3.394779511392E+00 -2.834436516480E-01  9.628926720770E-01
   57    35 BR   -1.953636978240E+00 -7.544192878080E-01 -1.650514086879E+00
   58    35 BR    1.953636978240E+00  7.544192878080E-01 -1.650514086879E+00
   59    35 BR   -7.544192878080E-01  1.953636978240E+00  1.650514086879E+00
   60    35 BR    7.544192878080E-01 -1.953636978240E+00  1.650514086879E+00
   61    30 ZN    5.364187200000E+00  4.700037766092E-16 -9.278806425000E+00
   62    30 ZN   -5.950684083329E-31 -5.950684083329E-31  6.185870950000E+00

 *******************************************************************************
 STARTING BASIS SET HANDLING 
 *******************************************************************************

 Loading internal basis set: POB-DZVPP           

 Please cite in your publication:
 Peintinger, M. F., Oliveira, D. V. and Bredow, T. (2013), Generally applicable 
 solid-state Gaussian basis sets, in preparation                                
                                                                                
                    

 *******************************************************************************
 LOCAL ATOMIC FUNCTIONS BASIS SET
 *******************************************************************************
   ATOM   X(AU)   Y(AU)   Z(AU)  N. TYPE  EXPONENT  S COEF   P COEF   D/F/G COEF
 *******************************************************************************
   1 H   -8.160   0.653  -3.570
                                  1 S  
                                         2.263E+01 1.441E-02 0.000E+00 0.000E+00
                                         3.236E+00 1.072E-01 0.000E+00 0.000E+00
                                         7.304E-01 3.846E-01 0.000E+00 0.000E+00
                                  2 S  
                                         1.417E-01 1.000E+00 0.000E+00 0.000E+00
                           3-     5 P  
                                         3.944E-01 0.000E+00 1.000E+00 0.000E+00
                           6-     8 P  
                                         1.006E-01 0.000E+00 1.000E+00 0.000E+00
   2 H    8.160  -0.653  -3.570
   3 H    0.653   8.160   3.570
   4 H   -0.653  -8.160   3.570
   5 C   -4.870   6.215  -2.774
                                 33 S  
                                         1.238E+03 5.457E-03 0.000E+00 0.000E+00
                                         1.863E+02 4.064E-02 0.000E+00 0.000E+00
                                         4.225E+01 1.803E-01 0.000E+00 0.000E+00
                                         1.168E+01 4.632E-01 0.000E+00 0.000E+00
                                         3.593E+00 4.409E-01 0.000E+00 0.000E+00
                                 34 S  
                                         5.281E+00 1.000E+00 0.000E+00 0.000E+00
                                 35 S  
                                         4.447E-01 1.000E+00 0.000E+00 0.000E+00
                          36-    38 P  
                                         9.468E+00 0.000E+00 3.839E-02 0.000E+00
                                         2.010E+00 0.000E+00 2.112E-01 0.000E+00
                                         5.477E-01 0.000E+00 5.133E-01 0.000E+00
                          39-    41 P  
                                         1.604E-01 0.000E+00 1.000E+00 0.000E+00
                          42-    46 D  
                                         6.070E-01 0.000E+00 0.000E+00 1.000E+00
                          47-    51 D  
                                         2.939E-01 0.000E+00 0.000E+00 1.000E+00
   6 C    4.870  -6.215  -2.774
   7 C    6.215   4.870   2.774
   8 C   -6.215  -4.870   2.774
   9 C    5.076  -1.179   8.796
  10 C   -5.076   1.179   8.796
  11 C   -1.179  -5.076  -8.796
  12 C    1.179   5.076  -8.796
  13 C   -6.896   4.545  -3.167
  14 C    6.896  -4.545  -3.167
  15 C    4.545   6.896   3.167
  16 C   -4.545  -6.896   3.167
  17 C   -4.117   1.063  -2.983
  18 C    4.117  -1.063  -2.983
  19 C    1.063   4.117   2.983
  20 C   -1.063  -4.117   2.983
  21 C   -2.555   4.975  -2.395
  22 C    2.555  -4.975  -2.395
  23 C    4.975   2.555   2.395
  24 C   -4.975  -2.555   2.395
  25 C    6.583  -1.941  -3.293
  26 C   -6.583   1.941  -3.293
  27 C   -1.941  -6.583   3.293
  28 C    1.941   6.583   3.293
  29 N    6.877   0.345   7.785
                                489 S  
                                         1.713E+03-5.393E-03 0.000E+00 0.000E+00
                                         2.576E+02-4.022E-02 0.000E+00 0.000E+00
                                         5.846E+01-1.793E-01 0.000E+00 0.000E+00
                                         1.620E+01-4.638E-01 0.000E+00 0.000E+00
                                         5.005E+00-4.417E-01 0.000E+00 0.000E+00
                                490 S  
                                         6.217E-01 1.000E+00 0.000E+00 0.000E+00
                                491 S  
                                         2.921E-01 1.000E+00 0.000E+00 0.000E+00
                         492-   494 P  
                                         1.357E+01 0.000E+00-4.007E-02 0.000E+00
                                         2.926E+00 0.000E+00-2.181E-01 0.000E+00
                                         7.993E-01 0.000E+00-5.129E-01 0.000E+00
                         495-   497 P  
                                         2.244E-01 0.000E+00 1.000E+00 0.000E+00
                         498-   502 D  
                                         3.118E-01 0.000E+00 0.000E+00 1.000E+00
  30 N   -6.877  -0.345   7.785
  31 N    0.345  -6.877  -7.785
  32 N   -0.345   6.877  -7.785
  33 N   -4.125  -7.352  -3.691
  34 N    4.125   7.352  -3.691
  35 N   -7.352   4.125   3.691
  36 N    7.352  -4.125   3.691
  37 N    3.139   0.280   9.610
  38 N   -3.139  -0.280   9.610
  39 N    0.280  -3.139  -9.610
  40 N   -0.280   3.139  -9.610
  41 N   -6.357  -7.384  -2.601
  42 N    6.357   7.384  -2.601
  43 N   -7.384   6.357   2.601
  44 N    7.384  -6.357   2.601
  45 N   -2.138   2.524  -2.517
  46 N    2.138  -2.524  -2.517
  47 N    2.524   2.138   2.517
  48 N   -2.524  -2.138   2.517
  49 BR   0.907  -4.639   8.255
                                769 S  
                                         1.133E+05 1.428E-03 0.000E+00 0.000E+00
                                         1.701E+04 1.095E-02 0.000E+00 0.000E+00
                                         3.870E+03 5.442E-02 0.000E+00 0.000E+00
                                         1.093E+03 1.905E-01 0.000E+00 0.000E+00
                                         3.564E+02 3.902E-01 0.000E+00 0.000E+00
                                         1.231E+02 3.081E-01 0.000E+00 0.000E+00
                                770 S  
                                         2.367E+02-1.123E-01 0.000E+00 0.000E+00
                                         2.847E+01 6.478E-01 0.000E+00 0.000E+00
                                         1.188E+01 4.424E-01 0.000E+00 0.000E+00
                                771 S  
                                         2.127E+01-2.264E-01 0.000E+00 0.000E+00
                                         3.613E+00 7.382E-01 0.000E+00 0.000E+00
                                         1.663E+00 4.268E-01 0.000E+00 0.000E+00
                                772 S  
                                         3.641E-01 1.000E+00 0.000E+00 0.000E+00
                                773 S  
                                         1.243E-01 1.000E+00 0.000E+00 0.000E+00
                         774-   776 P  
                                         1.560E+03 0.000E+00 8.717E-03 0.000E+00
                                         3.685E+02 0.000E+00 6.624E-02 0.000E+00
                                         1.172E+02 0.000E+00 2.650E-01 0.000E+00
                                         4.265E+01 0.000E+00 5.384E-01 0.000E+00
                                         1.609E+01 0.000E+00 3.658E-01 0.000E+00
                         777-   779 P  
                                         8.635E+00 0.000E+00 3.425E-01 0.000E+00
                                         3.561E+00 0.000E+00 5.750E-01 0.000E+00
                                         1.529E+00 0.000E+00 2.433E-01 0.000E+00
                         780-   782 P  
                                         6.447E-01 0.000E+00 1.000E+00 0.000E+00
                         783-   785 P  
                                         2.103E-01 0.000E+00 1.000E+00 0.000E+00
                         786-   790 D  
                                         1.049E+02 0.000E+00 0.000E+00 2.265E-02
                                         3.028E+01 0.000E+00 0.000E+00 1.346E-01
                                         1.065E+01 0.000E+00 0.000E+00 3.647E-01
                                         3.870E+00 0.000E+00 0.000E+00 4.904E-01
                         791-   795 D  
                                         1.342E+00 0.000E+00 0.000E+00 1.000E+00
                         796-   800 D  
                                         4.101E-01 0.000E+00 0.000E+00 1.000E+00
                         801-   805 D  
                                         1.985E-01 0.000E+00 0.000E+00 1.000E+00
  50 BR  -0.907   4.639   8.255
  51 BR  -4.639  -0.907  -8.255
  52 BR   4.639   0.907  -8.255
  53 BR  -0.536   6.415  -1.820
  54 BR   0.536  -6.415  -1.820
  55 BR   6.415   0.536   1.820
  56 BR  -6.415  -0.536   1.820
  57 BR  -3.692  -1.426  -3.119
  58 BR   3.692   1.426  -3.119
  59 BR  -1.426   3.692   3.119
  60 BR   1.426  -3.692   3.119
  61 ZN  10.137   0.000 -17.534
                               1213 S  
                                         8.200E+04 1.421E-03 0.000E+00 0.000E+00
                                         1.231E+04 1.089E-02 0.000E+00 0.000E+00
                                         2.801E+03 5.406E-02 0.000E+00 0.000E+00
                                         7.910E+02 1.885E-01 0.000E+00 0.000E+00
                                         2.576E+02 3.835E-01 0.000E+00 0.000E+00
                                         8.881E+01 2.972E-01 0.000E+00 0.000E+00
                               1214 S  
                                         1.719E+02-1.105E-01 0.000E+00 0.000E+00
                                         2.030E+01 6.461E-01 0.000E+00 0.000E+00
                                         8.346E+00 4.422E-01 0.000E+00 0.000E+00
                               1215 S  
                                         1.485E+01-2.271E-01 0.000E+00 0.000E+00
                                         2.450E+00 7.243E-01 0.000E+00 0.000E+00
                                         9.985E-01 4.484E-01 0.000E+00 0.000E+00
                               1216 S  
                                         1.493E+00 1.000E+00 0.000E+00 0.000E+00
                               1217 S  
                                         1.830E-01 1.000E+00 0.000E+00 0.000E+00
                        1218-  1220 P  
                                         1.072E+03 0.000E+00 9.277E-03 0.000E+00
                                         2.527E+02 0.000E+00 6.954E-02 0.000E+00
                                         8.010E+01 0.000E+00 2.716E-01 0.000E+00
                                         2.890E+01 0.000E+00 5.340E-01 0.000E+00
                                         1.077E+01 0.000E+00 3.450E-01 0.000E+00
                        1221-  1223 P  
                                         5.645E+00 0.000E+00 3.413E-01 0.000E+00
                                         2.168E+00 0.000E+00 5.639E-01 0.000E+00
                                         8.054E-01 0.000E+00 2.368E-01 0.000E+00
                        1224-  1226 P  
                                         2.721E-01 0.000E+00 1.000E+00 0.000E+00
                        1227-  1231 D  
                                         5.609E+01 0.000E+00 0.000E+00 2.959E-02
                                         1.575E+01 0.000E+00 0.000E+00 1.587E-01
                                         5.312E+00 0.000E+00 0.000E+00 3.798E-01
                                         1.774E+00 0.000E+00 0.000E+00 4.690E-01
                        1232-  1236 D  
                                         5.073E-01 0.000E+00 0.000E+00 1.000E+00
                        1237-  1243 F  
                                         2.814E+00 0.000E+00 0.000E+00 1.000E+00
                        1244-  1250 F  
                                         1.300E+00 0.000E+00 0.000E+00 1.000E+00
  62 ZN  -0.000  -0.000  11.690

 *******************************************************************************
 FINISHED BASIS SET HANDLING 
 *******************************************************************************

 INFORMATION **** SET_MPP **** PCRYSTAL CALCULATION
 INFORMATION **** READM2 **** NEW DEFAULT: FOCK/KS MATRIX MIXING SET TO 30 %
 INFORMATION **** READM2 **** NEW DEFAULT: FULL DIRECT SCF MODE
 INFORMATION **** READM2 **** NEW DEFAULT: COULOMB BIPOLAR BUFFER SET TO 32 Mb
 INFORMATION **** READM2 **** NEW DEFAULT: EXCHANGE BIPOLAR BUFFER SET TO 32 Mb

 *******************************************************************************
 NEW DEFAULT: DFT INTEGRATION GRID INCREASED TO XLGRID
 NEW DEFAULT: DIIS ACCELERATOR ACTIVE
 USE KEYWORD NODIIS TO TURN IT OFF
 *******************************************************************************

 INFORMATION **** DFTD3_INPUT **** PERFORM DISPERSION CORRECTION DFT-D3(BJ) IN THE BECKE-JOHNSON DAMPING SCHEME

 PLEASE CITE:
 (1) DFT-D3 Reference
  S. Grimme, J. Antony, S. Ehrlich, and H. Krieg, J. Chem. Phys. 132 (2010), 154104
 (2) BJ-Damping Reference
  S. Grimme, S. Ehrlich, and L. Goerigk, J. Comput. Chem. 32 (2011), 1456-1465
 (3) General DFT-D Review
  S. Grimme, A. Hansen, J. G. Brandenburg, and C. Bannwarth,
  Chem. Rev. 116 (2016), 5105-5154

 INFORMATION **** BIPOSIZE **** COULOMB BIPOLAR BUFFER SET TO    30000000
 INFORMATION **** EXCHSIZE **** EXCHANGE BIPOLAR BUFFER SIZE SET TO    30000000
 INFORMATION **** TOLINTEG **** COULOMB AND EXCHANGE SERIES TOLERANCES MODIFIED
 INFORMATION **** MAXCYCLE **** MAX NUMBER OF SCF CYCLES SET TO        1000
 *******************************************************************************
 N. OF ATOMS PER CELL        62  COULOMB OVERLAP TOL         (T1) 10**  -12
 NUMBER OF SHELLS           484  COULOMB PENETRATION TOL     (T2) 10**  -12
 NUMBER OF AO              1288  EXCHANGE OVERLAP TOL        (T3) 10**   20
 N. OF ELECTRONS PER CELL   768  EXCHANGE PSEUDO OVP (F(G))  (T4) 10**   20
 CORE ELECTRONS PER CELL    460  EXCHANGE PSEUDO OVP (P(G))  (T5) 10**   20
 N. OF SYMMETRY OPERATORS     4  POLE ORDER IN MONO ZONE                  4
 *******************************************************************************
 TYPE OF CALCULATION :  RESTRICTED CLOSED SHELL
 KOHN-SHAM HAMILTONIAN

 (EXCHANGE)[CORRELATION] FUNCTIONAL:(PERDEW-BURKE-ERNZERHOF)[PERDEW-BURKE-ERNZERHOF]


 CAPPA:IS1  3;IS2  3;IS3  3; K PTS MONK NET   6; SYMMOPS:K SPACE   8;G SPACE   4

 *******************************************************************************
 MAX NUMBER OF SCF CYCLES    1000  CONVERGENCE ON DELTAP        10**-16
 WEIGHT OF F(I) IN F(I+1)      30% CONVERGENCE ON ENERGY        10**- 7
 SHRINK. FACT.(MONKH.)    3  3  3  NUMBER OF K POINTS IN THE IBZ      6
 SHRINKING FACTOR(GILAT NET)    3  NUMBER OF K POINTS(GILAT NET)      6
 *******************************************************************************
 *** K POINTS COORDINATES (OBLIQUE COORDINATES IN UNITS OF IS =  3)
   1-R(  0  0  0)   2-C(  1  0  0)   3-C(  1  1  0)   4-C(  2  1  0)
   5-C(  2  1  1)   6-C(  2  2  1)

 DIRECT LATTICE VECTORS COMPON. (A.U.)     RECIP. LATTICE VECTORS COMPON. (A.U.) 
        X            Y            Z              X            Y            Z
  -10.1368447   10.1368447   11.6896020      0.0000000    0.3099182    0.2687510
   10.1368447  -10.1368447   11.6896020      0.3099182    0.0000000    0.2687510
   10.1368447   10.1368447  -11.6896020      0.3099182    0.3099182    0.0000000

 DISK SPACE FOR EIGENVECTORS (FTN 10)    18248384 REALS

 SYMMETRY ADAPTION OF THE BLOCH FUNCTIONS ENABLED
 TTTTTTTTTTTTTTTTTTTTTTTTTTTTTT gordsh1     TELAPSE        2.97 TCPU        0.09

 MATRIX SIZE: P(G) 2539548, F(G) 1270878, P(G) IRR  320591, F(G) IRR  320591
 MAX G-VECTOR INDEX FOR 1- AND 2-ELECTRON INTEGRALS  59

 TTTTTTTTTTTTTTTTTTTTTTTTTTTTTT INPUT       TELAPSE        3.06 TCPU        0.17

 NEIGHBORS OF THE NON-EQUIVALENT ATOMS

 N = NUMBER OF NEIGHBORS AT DISTANCE R
    ATOM  N     R/ANG      R/AU   NEIGHBORS (ATOM LABELS AND CELL INDICES)
   1 H    1     1.0872     2.0544   26 C    0 0 0
   1 H    1     2.1723     4.1050   17 C    0 0 0
   1 H    1     2.1759     4.1118   13 C    0 0 0
   1 H    1     2.2038     4.1645    2 H    0-1-1
   1 H    1     2.6184     4.9481   57 BR   0 0 0
   1 H    1     2.6266     4.9635   49 BR   0-1 0

   5 C    1     1.4037     2.6527   21 C    0 0 0
   5 C    1     1.4050     2.6550   13 C    0 0 0
   5 C    1     1.4562     2.7519    9 C    0-1 0
   5 C    1     2.3508     4.4423   53 BR   0 0 0
   5 C    1     2.3644     4.4681   49 BR   0-1 0
   5 C    1     2.4338     4.5992   45 N    0 0 0

   9 C    1     1.3539     2.5585   37 N    0 0 0
   9 C    1     1.3584     2.5670   29 N    0 0 0
   9 C    1     1.4562     2.7519    5 C    0 1 0
   9 C    1     2.1962     4.1502   41 N    1 1 1
   9 C    1     2.1965     4.1508   33 N    1 1 1
   9 C    1     2.5038     4.7316   21 C    0 1 0

  13 C    1     1.3417     2.5354   49 BR   0-1 0
  13 C    1     1.3893     2.6254   26 C    0 0 0
  13 C    1     1.4050     2.6550    5 C    0 0 0
  13 C    1     2.1759     4.1118    1 H    0 0 0
  13 C    1     2.3439     4.4294   21 C    0 0 0
  13 C    1     2.3592     4.4582   17 C    0 0 0

  17 C    1     1.3251     2.5041   45 N    0 0 0
  17 C    1     1.3380     2.5284   57 BR   0 0 0
  17 C    1     1.3948     2.6358   26 C    0 0 0
  17 C    1     2.1723     4.1050    1 H    0 0 0
  17 C    1     2.2507     4.2532   21 C    0 0 0
  17 C    1     2.3592     4.4582   13 C    0 0 0

  21 C    1     1.3173     2.4894   45 N    0 0 0
  21 C    1     1.3475     2.5465   53 BR   0 0 0
  21 C    1     1.4037     2.6527    5 C    0 0 0
  21 C    1     2.2507     4.2532   17 C    0 0 0
  21 C    1     2.3439     4.4294   13 C    0 0 0
  21 C    1     2.5038     4.7316    9 C    0-1 0

  25 C    1     1.0872     2.0544    2 H    0 0 0
  25 C    1     1.3893     2.6254   14 C    0 0 0
  25 C    1     1.3948     2.6358   18 C    0 0 0
  25 C    1     2.3472     4.4356   50 BR  -1 0 0
  25 C    1     2.3502     4.4413   58 BR   0 0 0
  25 C    1     2.4079     4.5502   46 N    0 0 0

  29 N    1     1.3584     2.5670    9 C    0 0 0
  29 N    1     1.3744     2.5973   33 N    1 1 1
  29 N    1     2.0159     3.8095   61 ZN   1 1 0
  29 N    1     2.1872     4.1333   41 N    1 1 1
  29 N    1     2.2016     4.1604   37 N    0 0 0
  29 N    1     2.4865     4.6988    5 C    0 1 0

  33 N    1     1.3147     2.4844   41 N    0 0 0
  33 N    1     1.3744     2.5973   29 N   -1-1-1
  33 N    1     2.1901     4.1388   37 N   -1-1-1
  33 N    1     2.1965     4.1508    9 C   -1-1-1
  33 N    1     2.7036     5.1091   54 BR   0 0 0
  33 N    1     2.8698     5.4232   61 ZN   0 0-1

  37 N    1     1.3539     2.5585    9 C    0 0 0
  37 N    1     1.3795     2.6068   41 N    1 1 1
  37 N    1     1.9978     3.7753   62 ZN   0 0 0
  37 N    1     2.1901     4.1388   33 N    1 1 1
  37 N    1     2.2016     4.1604   29 N    0 0 0
  37 N    1     2.5196     4.7613    5 C    0 1 0

  41 N    1     1.3147     2.4844   33 N    0 0 0
  41 N    1     1.3795     2.6068   37 N   -1-1-1
  41 N    1     2.1872     4.1333   29 N   -1-1-1
  41 N    1     2.1962     4.1502    9 C   -1-1-1
  41 N    1     2.7097     5.1206   50 BR  -1-1-1
  41 N    1     2.8313     5.3503   62 ZN  -1-1-1

  45 N    1     1.3173     2.4894   21 C    0 0 0
  45 N    1     1.3251     2.5041   17 C    0 0 0
  45 N    1     2.2573     4.2656   53 BR   0 0 0
  45 N    1     2.2685     4.2868   57 BR   0 0 0
  45 N    1     2.4079     4.5502   26 C    0 0 0
  45 N    1     2.4338     4.5992    5 C    0 0 0

  49 BR   1     1.3417     2.5354   13 C    0 1 0
  49 BR   1     2.3472     4.4356   26 C    0 1 0
  49 BR   1     2.3644     4.4681    5 C    0 1 0
  49 BR   1     2.6266     4.9635    1 H    0 1 0
  49 BR   1     2.7097     5.1206   42 N    0 0-1
  49 BR   1     2.7774     5.2485   60 BR   0 0 0

  53 BR   1     1.3475     2.5465   21 C    0 0 0
  53 BR   1     2.2573     4.2656   45 N    0 0 0
  53 BR   1     2.3508     4.4423    5 C    0 0 0
  53 BR   1     2.7036     5.1091   34 N    0 0 0
  53 BR   1     2.8049     5.3005    9 C    0-1 0
  53 BR   1     2.8157     5.3210   29 N    0-1 0

  57 BR   1     1.3380     2.5284   17 C    0 0 0
  57 BR   1     2.2685     4.2868   45 N    0 0 0
  57 BR   1     2.3502     4.4413   26 C    0 0 0
  57 BR   1     2.6184     4.9481    1 H    0 0 0
  57 BR   1     2.7774     5.2485   51 BR   0 0 0
  57 BR   1     3.0214     5.7095   56 BR   0 0 0

  61 ZN   4     2.0159     3.8095   29 N   -1-1 0   30 N   -1 0 1   31 N    0 0 1
                                    32 N   -1 0 0
  61 ZN   4     2.8698     5.4232   33 N    0 0 1   34 N   -1 0 0   35 N   -1 0 1
                                    36 N   -1-1 0
  61 ZN   4     2.9148     5.5082   53 BR  -1 0 0   54 BR   0 0 1   55 BR  -1-1 0
                                    56 BR  -1 0 1
  61 ZN   4     3.1623     5.9759    9 C   -1-1 0   10 C   -1 0 1   11 C    0 0 1
                                    12 C   -1 0 0
  61 ZN   4     3.5528     6.7137   21 C   -1 0 0   22 C    0 0 1   23 C   -1-1 0
                                    24 C   -1 0 1
  61 ZN   4     3.6862     6.9658    5 C   -1 0 0    6 C    0 0 1    7 C   -1-1 0
                                     8 C   -1 0 1

  62 ZN   4     1.9978     3.7753   37 N    0 0 0   38 N    0 0 0   39 N    1 1 0
                                    40 N    1 1 0
  62 ZN   4     2.8313     5.3503   41 N    1 1 1   42 N    0 0-1   43 N    0 1 0
                                    44 N    1 0 0
  62 ZN   4     3.0920     5.8429   49 BR   0 0 0   50 BR   0 0 0   51 BR   1 1 0
                                    52 BR   1 1 0
  62 ZN   4     3.1543     5.9607    9 C    0 0 0   10 C    0 0 0   11 C    1 1 0
                                    12 C    1 1 0
  62 ZN   4     3.7725     7.1290    5 C    0 1 0    6 C    1 0 0    7 C    0 0-1
                                     8 C    1 1 1
  62 ZN   4     3.8088     7.1976   13 C    0 1 0   14 C    1 0 0   15 C    0 0-1
                                    16 C    1 1 1


 SYMMETRY ALLOWED ELASTIC DISTORTION 1
  0.5773503  0.0000000  0.0000000
  0.0000000  0.5773503  0.0000000
  0.0000000  0.0000000  0.5773503

 SYMMETRY ALLOWED ELASTIC DISTORTION 2
  0.4082483  0.0000000  0.0000000
  0.0000000  0.4082483  0.0000000
  0.0000000  0.0000000 -0.8164966

 SYMMETRY ALLOWED INTERNAL DEGREE(S) OF FREEDOM:  45
 TTTTTTTTTTTTTTTTTTTTTTTTTTTTTT SYMM        TELAPSE        3.85 TCPU        0.96
 TTTTTTTTTTTTTTTTTTTTTTTTTTTTTT INT_SCREEN  TELAPSE        3.86 TCPU        0.97

 *******************************************************************************
 *                             OPTIMIZATION STARTS                             *
 *******************************************************************************
 RECLASIFICATION OF INDICES FOR INTEGRAL CALC ACCORDING TO DIFFERENT CRITERIA:
           FIXDELTE                  FIXDELTX              FIXDELTN
          0.10000000               0.80000000                 47
 DEFAULT MAX NUM OF POINTS  100
 *******************************************************************************

 *******************************************************************************
 COORDINATE AND CELL OPTIMIZATION - POINT    1
 INFORMATION **** EXCBUF **** EXCH. BIPO BUFFER: WORDS USED =           0

 DFT PARAMETERS

     ATOM       ELECTRONS   NET CHARGE   R(ANGSTROM)
   1   1  H       1.0000      0.0000     1.11000000
   5   6  C       6.0000      0.0000     0.77000000
  29   7  N       7.0000      0.0000     0.74000000
  49  35  BR     35.0000      0.0000     1.14000000
  61  30  ZN     30.0000      0.0000     1.37000000

 SIZE OF GRID=     444619
 TTTTTTTTTTTTTTTTTTTTTTTTTTTTTT MAKE_GRID2  TELAPSE       10.50 TCPU        7.58
 BECKE WEIGHT FUNCTION
 RADSAFE =     2.00
 TOLERANCES - DENSITY:10**- 6; POTENTIAL:10**- 9; GRID WGT:10**-14

 RADIAL INTEGRATION  - INTERVALS (POINTS,UPPER LIMIT):            1( 75,  4.0*R)

 ANGULAR INTEGRATION - INTERVALS (ACCURACY LEVEL [N. POINTS] UPPER LIMIT):
  1(  4[  86]   0.2)  2(  8[ 194]   0.5)  3( 12[ 350]   0.9)  4( 16[ 974]   3.5)
  5( 12[ 350]9999.0)
 TTTTTTTTTTTTTTTTTTTTTTTTTTTTTT INT_CALC    TELAPSE       10.64 TCPU        7.72

 *******************************************************************************
 C:\Users\wilso\AppData\Local\Temp\tmp_p\newconn.mol                             
 CRYSTAL - SCF - TYPE OF CALCULATION :  RESTRICTED CLOSED SHELL
 *******************************************************************************

 CAPPA:IS1  3;IS2  3;IS3  3; K PTS MONK NET   6; SYMMOPS:K SPACE   8;G SPACE   4

 TTTTTTTTTTTTTTTTTTTTTTTTTTTTTT SDIK        TELAPSE       10.91 TCPU        7.98

 AAAAAAAAAAAAAAAAAAAAAAAAAAAAAAAAAAAAAAAAAAAAAAAAAAAAAAAAAAAAAAAAAAAAAAAAAAAAAAA
         ATOMIC WAVEFUNCTION(S)


 NUCLEAR CHARGE  1.0  SYMMETRY SPECIES            S
 N. ELECTRONS    1.0  NUMBER OF PRIMITIVE GTOS    4
                      NUMBER OF CONTRACTED GTOS   2
                      NUMBER OF CLOSED SHELLS     0
                      OPEN SHELL OCCUPATION       1

  ZNUC SCFIT  TOTAL HF ENERGY   KINETIC ENERGY   VIRIAL THEOREM ACCURACY
   1.0   1   -4.946643675E-01  4.917913167E-01 -2.005842012E+00  9.4E-17

 NUCLEAR CHARGE  6.0  SYMMETRY SPECIES            S    P
 N. ELECTRONS    6.0  NUMBER OF PRIMITIVE GTOS    7    4
                      NUMBER OF CONTRACTED GTOS   3    2
                      NUMBER OF CLOSED SHELLS     2    0
                      OPEN SHELL OCCUPATION       0    2

  ZNUC SCFIT  TOTAL HF ENERGY   KINETIC ENERGY   VIRIAL THEOREM ACCURACY
   6.0   6   -3.750912652E+01  3.905246519E+01 -1.960480378E+00  3.7E-06

 NUCLEAR CHARGE  7.0  SYMMETRY SPECIES            S    P
 N. ELECTRONS    7.0  NUMBER OF PRIMITIVE GTOS    7    4
                      NUMBER OF CONTRACTED GTOS   3    2
                      NUMBER OF CLOSED SHELLS     2    0
                      OPEN SHELL OCCUPATION       0    3

  ZNUC SCFIT  TOTAL HF ENERGY   KINETIC ENERGY   VIRIAL THEOREM ACCURACY
   7.0   9   -5.432196661E+01  5.425066284E+01 -2.001314339E+00  1.2E-06

 NUCLEAR CHARGE 35.0  SYMMETRY SPECIES            S    P    D
 N. ELECTRONS   35.0  NUMBER OF PRIMITIVE GTOS   14   10    7
                      NUMBER OF CONTRACTED GTOS   5    4    4
                      NUMBER OF CLOSED SHELLS     4    2    1
                      OPEN SHELL OCCUPATION       0    5    0

  ZNUC SCFIT  TOTAL HF ENERGY   KINETIC ENERGY   VIRIAL THEOREM ACCURACY
  35.0  13   -2.572060514E+03  2.572021521E+03 -2.000015161E+00  3.6E-06

 NUCLEAR CHARGE 30.0  SYMMETRY SPECIES            S    P    D
 N. ELECTRONS   30.0  NUMBER OF PRIMITIVE GTOS   14    9    5
                      NUMBER OF CONTRACTED GTOS   5    3    2
                      NUMBER OF CLOSED SHELLS     4    2    1
                      OPEN SHELL OCCUPATION       0    0    0

  ZNUC SCFIT  TOTAL HF ENERGY   KINETIC ENERGY   VIRIAL THEOREM ACCURACY
  30.0  10   -1.777404290E+03  1.777325716E+03 -2.000044209E+00  2.5E-06

 AAAAAAAAAAAAAAAAAAAAAAAAAAAAAAAAAAAAAAAAAAAAAAAAAAAAAAAAAAAAAAAAAAAAAAAAAAAAAAA

 CHARGE NORMALIZATION FACTOR   1.00000000
 TOTAL ATOMIC CHARGES:
   1.0000000   1.0000000   1.0000000   1.0000000   6.0000000   6.0000000
   6.0000000   6.0000000   6.0000000   6.0000000   6.0000000   6.0000000
   6.0000000   6.0000000   6.0000000   6.0000000   6.0000000   6.0000000
   6.0000000   6.0000000   6.0000000   6.0000000   6.0000000   6.0000000
   6.0000000   6.0000000   6.0000000   6.0000000   7.0000000   7.0000000
   7.0000000   7.0000000   7.0000000   7.0000000   7.0000000   7.0000000
   7.0000000   7.0000000   7.0000000   7.0000000   7.0000000   7.0000000
   7.0000000   7.0000000   7.0000000   7.0000000   7.0000000   7.0000000
  35.0000000  35.0000000  35.0000000  35.0000000  35.0000000  35.0000000
  35.0000000  35.0000000  35.0000000  35.0000000  35.0000000  35.0000000
  30.0000000  30.0000000
 TTTTTTTTTTTTTTTTTTTTTTTTTTTTTT MOQGAD      TELAPSE       12.39 TCPU        9.45
 TTTTTTTTTTTTTTTTTTTTTTTTTTTTTT SHELLXN     TELAPSE       58.30 TCPU       46.55
 TTTTTTTTTTTTTTTTTTTTTTTTTTTTTT MONMO3      TELAPSE       62.83 TCPU       51.06
 NUMERICALLY INTEGRATED DENSITY    768.0002855107
 TTTTTTTTTTTTTTTTTTTTTTTTTTTTTT NUMDFT      TELAPSE       63.57 TCPU       51.79
 CYC   0 ETOT(AU) -3.646344388481E+04 DETOT -3.65E+04 tst  0.00E+00 PX  1.00E+00
 TTTTTTTTTTTTTTTTTTTTTTTTTTTTTT DIIS        TELAPSE       63.64 TCPU       51.86
 TTTTTTTTTTTTTTTTTTTTTTTTTTTTTT FDIK        TELAPSE      106.75 TCPU       87.71
 INSULATING STATE
 TOP OF VALENCE BANDS -    BAND    384; K    5; EIG -1.2956099E-01 AU
 TOP OF VALENCE BANDS -    BAND    384; K    1; EIG -1.3099407E-01 AU
 BOTTOM OF VIRTUAL BANDS - BAND    385; K    4; EIG -8.9983762E-02 AU
 INDIRECT ENERGY BAND GAP:   1.0770 eV
 BOTTOM OF VIRTUAL BANDS - BAND    385; K    1; EIG -8.8063533E-02 AU
 TTTTTTTTTTTTTTTTTTTTTTTTTTTTTT PDIG        TELAPSE      107.94 TCPU       88.89
 CHARGE NORMALIZATION FACTOR   1.00000000
 TOTAL ATOMIC CHARGES:
   1.1938405   1.1938405   1.1938405   1.1938405   6.1263106   6.1263106
   6.1263106   6.1263106   5.5310927   5.5310927   5.5310927   5.5310927
   6.3101860   6.3101860   6.3101860   6.3101860   6.0185463   6.0185463
   6.0185463   6.0185463   6.0560066   6.0560066   6.0560066   6.0560066
   6.0972203   6.0972203   6.0972203   6.0972203   7.4019627   7.4019627
   7.4019627   7.4019627   7.2194938   7.2194938   7.2194938   7.2194938
   7.4150790   7.4150790   7.4150790   7.4150790   7.1711533   7.1711533
   7.1711533   7.1711533   7.5602786   7.5602786   7.5602786   7.5602786
  34.7205148  34.7205148  34.7205148  34.7205148  34.6920170  34.6920170
  34.6920170  34.6920170  34.6157665  34.6157665  34.6157665  34.6157665
  27.6572823  27.8248416
 TTTTTTTTTTTTTTTTTTTTTTTTTTTTTT MOQGAD      TELAPSE      107.97 TCPU       88.92
 TTTTTTTTTTTTTTTTTTTTTTTTTTTTTT SHELLXN     TELAPSE      154.27 TCPU      133.73
 TTTTTTTTTTTTTTTTTTTTTTTTTTTTTT MONMO3      TELAPSE      159.37 TCPU      138.81
 NUMERICALLY INTEGRATED DENSITY    768.0002966353
 TTTTTTTTTTTTTTTTTTTTTTTTTTTTTT NUMDFT      TELAPSE      161.66 TCPU      141.09
 CYC   1 ETOT(AU) -3.644172508104E+04 DETOT  2.17E+01 tst  0.00E+00 PX  1.00E+00
 TTTTTTTTTTTTTTTTTTTTTTTTTTTTTT DIIS        TELAPSE      161.85 TCPU      141.28
 DIIS TEST: 0.14906E+02 AT SCF   CYCLE   1 - MIX   30 %
 TTTTTTTTTTTTTTTTTTTTTTTTTTTTTT FDIK        TELAPSE      174.22 TCPU      151.27
 POSSIBLY CONDUCTING STATE - EFERMI(AU) -8.1521189E-02 (RES. CHARGE  2.39E-12;IT. 12)
 TTTTTTTTTTTTTTTTTTTTTTTTTTTTTT PDIG        TELAPSE      175.40 TCPU      152.44
 CHARGE NORMALIZATION FACTOR   1.00000000
 TOTAL ATOMIC CHARGES:
   1.2569952   1.2569952   1.2569952   1.2569952   6.0674609   6.0674609
   6.0674609   6.0674609   6.4872321   6.4872321   6.4872321   6.4872321
   6.2763818   6.2763818   6.2763818   6.2763818   6.1505721   6.1505721
   6.1505721   6.1505721   6.2639773   6.2639773   6.2639773   6.2639773
   5.5957989   5.5957989   5.5957989   5.5957989   7.3760224   7.3760224
   7.3760224   7.3760224   6.9910399   6.9910399   6.9910399   6.9910399
   7.1693349   7.1693349   7.1693349   7.1693349   6.8878772   6.8878772
   6.8878772   6.8878772   4.9006224   4.9006224   4.9006224   4.9006224
  35.2272572  35.2272572  35.2272572  35.2272572  35.2091586  35.2091586
  35.2091586  35.2091586  34.8825992  34.8825992  34.8825992  34.8825992
  31.0386737  29.9920059
 TTTTTTTTTTTTTTTTTTTTTTTTTTTTTT MOQGAD      TELAPSE      175.43 TCPU      152.47
 TTTTTTTTTTTTTTTTTTTTTTTTTTTTTT SHELLXN     TELAPSE      222.78 TCPU      197.26
 TTTTTTTTTTTTTTTTTTTTTTTTTTTTTT MONMO3      TELAPSE      227.85 TCPU      202.32
 NUMERICALLY INTEGRATED DENSITY    768.0003362033
 TTTTTTTTTTTTTTTTTTTTTTTTTTTTTT NUMDFT      TELAPSE      230.12 TCPU      204.58
 CYC   2 ETOT(AU) -3.643303408322E+04 DETOT  8.69E+00 tst  1.54E-01 PX  3.01E+00
 TTTTTTTTTTTTTTTTTTTTTTTTTTTTTT DIIS        TELAPSE      230.33 TCPU      204.79
 DIIS TEST: 0.69043E+02 AT SCF   CYCLE   2 - DIIS ACTIVE - HISTORY:     2 CYCLES
 TTTTTTTTTTTTTTTTTTTTTTTTTTTTTT FDIK        TELAPSE      240.63 TCPU      214.82
 INSULATING STATE
 TOP OF VALENCE BANDS -    BAND    384; K    1; EIG -1.3781950E-01 AU
 BOTTOM OF VIRTUAL BANDS - BAND    385; K    4; EIG -8.2386048E-02 AU
 INDIRECT ENERGY BAND GAP:   1.5084 eV
 BOTTOM OF VIRTUAL BANDS - BAND    385; K    1; EIG -8.1316566E-02 AU
 TTTTTTTTTTTTTTTTTTTTTTTTTTTTTT PDIG        TELAPSE      241.82 TCPU      216.01
 CHARGE NORMALIZATION FACTOR   1.00000000
 TOTAL ATOMIC CHARGES:
   1.1271624   1.1271624   1.1271624   1.1271624   5.7410123   5.7410123
   5.7410123   5.7410123   6.1662037   6.1662037   6.1662037   6.1662037
   6.0606923   6.0606923   6.0606923   6.0606923   6.3039103   6.3039103
   6.3039103   6.3039103   6.1280726   6.1280726   6.1280726   6.1280726
   5.7201286   5.7201286   5.7201286   5.7201286   6.4675223   6.4675223
   6.4675223   6.4675223   7.0811961   7.0811961   7.0811961   7.0811961
   6.8035375   6.8035375   6.8035375   6.8035375   7.0686419   7.0686419
   7.0686419   7.0686419   7.5923835   7.5923835   7.5923835   7.5923835
  34.9500706  34.9500706  34.9500706  34.9500706  34.8883212  34.8883212
  34.8883212  34.8883212  35.0613512  35.0613512  35.0613512  35.0613512
  29.6684230  29.6907513
 TTTTTTTTTTTTTTTTTTTTTTTTTTTTTT MOQGAD      TELAPSE      241.85 TCPU      216.03
 TTTTTTTTTTTTTTTTTTTTTTTTTTTTTT SHELLXN     TELAPSE      287.07 TCPU      260.84
 TTTTTTTTTTTTTTTTTTTTTTTTTTTTTT MONMO3      TELAPSE      292.35 TCPU      266.11
 NUMERICALLY INTEGRATED DENSITY    768.0003356680
 TTTTTTTTTTTTTTTTTTTTTTTTTTTTTT NUMDFT      TELAPSE      294.53 TCPU      268.28
 CYC   3 ETOT(AU) -3.644134947738E+04 DETOT -8.32E+00 tst  6.29E-01 PX  2.42E+00
 TTTTTTTTTTTTTTTTTTTTTTTTTTTTTT DIIS        TELAPSE      294.74 TCPU      268.49
 DIIS TEST: 0.16839E+02 AT SCF   CYCLE   3 - DIIS ACTIVE - HISTORY:     3 CYCLES
 TTTTTTTTTTTTTTTTTTTTTTTTTTTTTT FDIK        TELAPSE      305.66 TCPU      277.07
 INSULATING STATE
 TOP OF VALENCE BANDS -    BAND    384; K    1; EIG -1.6608789E-01 AU
 BOTTOM OF VIRTUAL BANDS - BAND    385; K    1; EIG -8.0053275E-02 AU
 DIRECT ENERGY BAND GAP:   2.3411 eV
 TTTTTTTTTTTTTTTTTTTTTTTTTTTTTT PDIG        TELAPSE      306.85 TCPU      278.25
 CHARGE NORMALIZATION FACTOR   1.00000000
 TOTAL ATOMIC CHARGES:
   1.1636950   1.1636950   1.1636950   1.1636950   6.1667637   6.1667637
   6.1667637   6.1667637   5.7663005   5.7663005   5.7663005   5.7663005
   6.2611272   6.2611272   6.2611272   6.2611272   5.9005594   5.9005594
   5.9005594   5.9005594   6.0026162   6.0026162   6.0026162   6.0026162
   6.1244915   6.1244915   6.1244915   6.1244915   7.3200927   7.3200927
   7.3200927   7.3200927   7.1338274   7.1338274   7.1338274   7.1338274
   7.1754205   7.1754205   7.1754205   7.1754205   7.0090272   7.0090272
   7.0090272   7.0090272   7.0906820   7.0906820   7.0906820   7.0906820
  34.9110508  34.9110508  34.9110508  34.9110508  34.8437541  34.8437541
  34.8437541  34.8437541  34.7336644  34.7336644  34.7336644  34.7336644
  28.7738741  28.8138355
 TTTTTTTTTTTTTTTTTTTTTTTTTTTTTT MOQGAD      TELAPSE      306.88 TCPU      278.28
 TTTTTTTTTTTTTTTTTTTTTTTTTTTTTT SHELLXN     TELAPSE      354.14 TCPU      323.07
 TTTTTTTTTTTTTTTTTTTTTTTTTTTTTT MONMO3      TELAPSE      359.21 TCPU      328.12
 NUMERICALLY INTEGRATED DENSITY    768.0003154420
 TTTTTTTTTTTTTTTTTTTTTTTTTTTTTT NUMDFT      TELAPSE      361.39 TCPU      330.29
 CYC   4 ETOT(AU) -3.644390864718E+04 DETOT -2.56E+00 tst  9.65E-03 PX  5.50E-01
 TTTTTTTTTTTTTTTTTTTTTTTTTTTTTT DIIS        TELAPSE      361.58 TCPU      330.49
 DIIS TEST: 0.12428E+01 AT SCF   CYCLE   4 - DIIS ACTIVE - HISTORY:     4 CYCLES
 TTTTTTTTTTTTTTTTTTTTTTTTTTTTTT FDIK        TELAPSE      373.51 TCPU      339.88
 INSULATING STATE
 TOP OF VALENCE BANDS -    BAND    384; K    1; EIG -1.4995598E-01 AU
 BOTTOM OF VIRTUAL BANDS - BAND    385; K    1; EIG -8.7847758E-02 AU
 DIRECT ENERGY BAND GAP:   1.6901 eV
 TTTTTTTTTTTTTTTTTTTTTTTTTTTTTT PDIG        TELAPSE      374.70 TCPU      341.06
 CHARGE NORMALIZATION FACTOR   1.00000000
 TOTAL ATOMIC CHARGES:
   1.1453704   1.1453704   1.1453704   1.1453704   6.0112681   6.0112681
   6.0112681   6.0112681   5.8318132   5.8318132   5.8318132   5.8318132
   6.2708482   6.2708482   6.2708482   6.2708482   6.1606798   6.1606798
   6.1606798   6.1606798   6.1457055   6.1457055   6.1457055   6.1457055
   5.7111626   5.7111626   5.7111626   5.7111626   7.1392918   7.1392918
   7.1392918   7.1392918   7.0813198   7.0813198   7.0813198   7.0813198
   7.3096034   7.3096034   7.3096034   7.3096034   7.1628404   7.1628404
   7.1628404   7.1628404   7.0111338   7.0111338   7.0111338   7.0111338
  34.9261195  34.9261195  34.9261195  34.9261195  34.8695510  34.8695510
  34.8695510  34.8695510  34.8148676  34.8148676  34.8148676  34.8148676
  28.8262091  28.8074913
 TTTTTTTTTTTTTTTTTTTTTTTTTTTTTT MOQGAD      TELAPSE      374.73 TCPU      341.09
 TTTTTTTTTTTTTTTTTTTTTTTTTTTTTT SHELLXN     TELAPSE      423.22 TCPU      386.10
 TTTTTTTTTTTTTTTTTTTTTTTTTTTTTT MONMO3      TELAPSE      427.97 TCPU      390.83
 NUMERICALLY INTEGRATED DENSITY    768.0003192271
 TTTTTTTTTTTTTTTTTTTTTTTTTTTTTT NUMDFT      TELAPSE      430.15 TCPU      393.00
 CYC   5 ETOT(AU) -3.644395503233E+04 DETOT -4.64E-02 tst  7.80E-04 PX  1.28E-01
 TTTTTTTTTTTTTTTTTTTTTTTTTTTTTT DIIS        TELAPSE      430.37 TCPU      393.21
 DIIS TEST: 0.10046E+01 AT SCF   CYCLE   5 - DIIS ACTIVE - HISTORY:     5 CYCLES
 TTTTTTTTTTTTTTTTTTTTTTTTTTTTTT FDIK        TELAPSE      442.74 TCPU      403.27
 INSULATING STATE
 TOP OF VALENCE BANDS -    BAND    384; K    1; EIG -1.5926794E-01 AU
 BOTTOM OF VIRTUAL BANDS - BAND    385; K    1; EIG -8.6257480E-02 AU
 DIRECT ENERGY BAND GAP:   1.9867 eV
 TTTTTTTTTTTTTTTTTTTTTTTTTTTTTT PDIG        TELAPSE      443.92 TCPU      404.46
 CHARGE NORMALIZATION FACTOR   1.00000000
 TOTAL ATOMIC CHARGES:
   1.1425532   1.1425532   1.1425532   1.1425532   6.0267865   6.0267865
   6.0267865   6.0267865   5.8821893   5.8821893   5.8821893   5.8821893
   6.2912534   6.2912534   6.2912534   6.2912534   6.1030216   6.1030216
   6.1030216   6.1030216   6.0980520   6.0980520   6.0980520   6.0980520
   5.9361514   5.9361514   5.9361514   5.9361514   7.1884668   7.1884668
   7.1884668   7.1884668   7.1697104   7.1697104   7.1697104   7.1697104
   7.1007520   7.1007520   7.1007520   7.1007520   7.0319269   7.0319269
   7.0319269   7.0319269   7.0551407   7.0551407   7.0551407   7.0551407
  34.8778705  34.8778705  34.8778705  34.8778705  34.8689581  34.8689581
  34.8689581  34.8689581  34.7841627  34.7841627  34.7841627  34.7841627
  28.9038878  28.8681301
 TTTTTTTTTTTTTTTTTTTTTTTTTTTTTT MOQGAD      TELAPSE      443.95 TCPU      404.48
 TTTTTTTTTTTTTTTTTTTTTTTTTTTTTT SHELLXN     TELAPSE      489.01 TCPU      449.17
 TTTTTTTTTTTTTTTTTTTTTTTTTTTTTT MONMO3      TELAPSE      496.21 TCPU      456.35
 NUMERICALLY INTEGRATED DENSITY    768.0003199132
 TTTTTTTTTTTTTTTTTTTTTTTTTTTTTT NUMDFT      TELAPSE      498.40 TCPU      458.52
 CYC   6 ETOT(AU) -3.644409421750E+04 DETOT -1.39E-01 tst  5.49E-04 PX  7.20E-02
 TTTTTTTTTTTTTTTTTTTTTTTTTTTTTT DIIS        TELAPSE      498.64 TCPU      458.76
 DIIS TEST: 0.12520E+00 AT SCF   CYCLE   6 - DIIS ACTIVE - HISTORY:     6 CYCLES
 TTTTTTTTTTTTTTTTTTTTTTTTTTTTTT FDIK        TELAPSE      507.00 TCPU      466.87
 INSULATING STATE
 TOP OF VALENCE BANDS -    BAND    384; K    1; EIG -1.5878737E-01 AU
 BOTTOM OF VIRTUAL BANDS - BAND    385; K    1; EIG -8.1828500E-02 AU
 DIRECT ENERGY BAND GAP:   2.0942 eV
 TTTTTTTTTTTTTTTTTTTTTTTTTTTTTT PDIG        TELAPSE      508.18 TCPU      468.04
 CHARGE NORMALIZATION FACTOR   1.00000000
 TOTAL ATOMIC CHARGES:
   1.1429758   1.1429758   1.1429758   1.1429758   6.0651135   6.0651135
   6.0651135   6.0651135   5.8781897   5.8781897   5.8781897   5.8781897
[...]
  45 N    1     2.7581     5.2121   13 C    0 0 0

  49 BR   1     1.8782     3.5493   13 C    0 1 0
  49 BR   1     2.6168     4.9450   42 N    0 0-1
  49 BR   1     2.8040     5.2987   26 C    0 1 0
  49 BR   1     2.8790     5.4406    5 C    0 1 0
  49 BR   1     2.9169     5.5121    1 H    0 1 0
  49 BR   1     3.2277     6.0995   39 N    1 1 0

  53 BR   1     1.9144     3.6176   21 C    0 0 0
  53 BR   1     2.7554     5.2069   45 N    0 0 0
  53 BR   1     2.8737     5.4306    5 C    0 0 0
  53 BR   1     2.9790     5.6295   34 N    0 0 0
  53 BR   1     3.0293     5.7245   29 N    0-1 0
  53 BR   1     3.0467     5.7574   61 ZN   1 0 0

  57 BR   1     1.8904     3.5724   17 C    0 0 0
  57 BR   1     2.7978     5.2871   45 N    0 0 0
  57 BR   1     2.8281     5.3443   26 C    0 0 0
  57 BR   1     2.9314     5.5395    1 H    0 0 0
  57 BR   1     3.2324     6.1084   46 N    0 0 0
  57 BR   1     3.2954     6.2274   33 N    0 0 0

  61 ZN   4     2.2624     4.2752   29 N   -1-1 0   30 N   -1 0 1   31 N    0 0 1
                                    32 N   -1 0 0
  61 ZN   4     2.9589     5.5914   33 N    0 0 1   34 N   -1 0 0   35 N   -1 0 1
                                    36 N   -1-1 0
  61 ZN   4     3.0467     5.7574   53 BR  -1 0 0   54 BR   0 0 1   55 BR  -1-1 0
                                    56 BR  -1 0 1
  61 ZN   4     3.4832     6.5822    9 C   -1-1 0   10 C   -1 0 1   11 C    0 0 1
                                    12 C   -1 0 0
  61 ZN   4     3.8421     7.2605   21 C   -1 0 0   22 C    0 0 1   23 C   -1-1 0
                                    24 C   -1 0 1
  61 ZN   4     4.0490     7.6514    5 C   -1 0 0    6 C    0 0 1    7 C   -1-1 0
                                     8 C   -1 0 1

  62 ZN   4     2.1622     4.0860   37 N    0 0 0   38 N    0 0 0   39 N    1 1 0
                                    40 N    1 1 0
  62 ZN   4     2.9066     5.4926   41 N    1 1 1   42 N    0 0-1   43 N    0 1 0
                                    44 N    1 0 0
  62 ZN   4     3.2878     6.2131   49 BR   0 0 0   50 BR   0 0 0   51 BR   1 1 0
                                    52 BR   1 1 0
  62 ZN   4     3.3837     6.3942    9 C    0 0 0   10 C    0 0 0   11 C    1 1 0
                                    12 C    1 1 0
  62 ZN   4     4.0677     7.6869    5 C    0 1 0    6 C    1 0 0    7 C    0 0-1
                                     8 C    1 1 1
  62 ZN   4     4.1352     7.8144   33 N    1 1 1   34 N    0 0-1   35 N    0 1 0
                                    36 N    1 0 0


 FINAL OPTIMIZED GEOMETRY - DIMENSIONALITY OF THE SYSTEM      3
 (NON PERIODIC DIRECTION: LATTICE PARAMETER FORMALLY SET TO 500)
 *******************************************************************************
 LATTICE PARAMETERS (ANGSTROMS AND DEGREES) - BOHR = 0.5291772083 ANGSTROM
 PRIMITIVE CELL - CENTRING CODE 6/0 VOLUME=   883.617060 - DENSITY  3.095 g/cm^3
         A              B              C           ALPHA      BETA       GAMMA 
    10.56405910    10.56405910    10.56405910   115.181848 115.181848  98.569835
 *******************************************************************************
 ATOMS IN THE ASYMMETRIC UNIT   17 - ATOMS IN THE UNIT CELL:   62
     ATOM                 X/A                 Y/B                 Z/C    
 *******************************************************************************
      1 T   1 H    -1.241590393664E-01  4.610607602327E-01 -3.631919035471E-01
      2 F   1 H    -1.757473362202E-01  2.390328641807E-01  3.631919035471E-01
      3 F   1 H    -4.610607602327E-01  1.757473362202E-01  4.147802004009E-01
      4 F   1 H    -2.390328641807E-01  1.241590393664E-01 -4.147802004009E-01
      5 T   6 C     1.694214548343E-01 -3.715766153249E-01  4.527620293606E-02
      6 F   6 C    -4.168528182610E-01  1.241452518982E-01 -4.527620293606E-02
      7 F   6 C     3.715766153249E-01  4.168528182610E-01 -4.590019298408E-01
      8 F   6 C    -1.241452518982E-01 -1.694214548343E-01  4.590019298408E-01
      9 T   6 C     2.898842943818E-01 -3.922004259675E-01  1.613263994826E-01
     10 F   6 C     4.464731745499E-01  1.285578948992E-01 -1.613263994826E-01
     11 F   6 C     3.922004259675E-01 -4.464731745499E-01 -3.179152796506E-01
     12 F   6 C    -1.285578948992E-01 -2.898842943818E-01  3.179152796506E-01
     13 T   6 C     7.604661914669E-02 -4.744426322540E-01 -1.305318929906E-01
     14 F   6 C    -3.439107392635E-01  2.065785121373E-01  1.305318929906E-01
     15 F   6 C     4.744426322540E-01  3.439107392635E-01 -4.495107485993E-01
     16 F   6 C    -2.065785121373E-01 -7.604661914669E-02  4.495107485993E-01
     17 T   6 C    -7.960844637453E-02 -3.325020318796E-01 -1.489610218030E-01
     18 F   6 C    -1.835410100766E-01  6.935257542851E-02  1.489610218030E-01
     19 F   6 C     3.325020318796E-01  1.835410100766E-01  2.528935855051E-01
     20 F   6 C    -6.935257542851E-02  7.960844637453E-02 -2.528935855051E-01
     21 T   6 C     1.318241106565E-01 -2.452216398233E-01  1.046966250576E-01
     22 F   6 C    -3.499182648810E-01  2.712748559889E-02 -1.046966250576E-01
     23 F   6 C     2.452216398233E-01  3.499182648810E-01  3.770457504799E-01
     24 F   6 C    -2.712748559889E-02 -1.318241106565E-01 -3.770457504799E-01
     25 T   6 C    -2.308603122461E-01  1.764655648710E-01  2.282601785428E-01
     26 F   6 C    -5.179461367178E-02 -4.591204907889E-01 -2.282601785428E-01
     27 F   6 C    -1.764655648710E-01  5.179461367178E-02 -4.073258771171E-01
     28 F   6 C     4.591204907889E-01  2.308603122461E-01  4.073258771171E-01
     29 T   7 N     3.082459952875E-01 -3.643028497709E-01  3.088463939277E-01
     30 F   7 N     3.268507563014E-01 -6.003986402025E-04 -3.088463939277E-01
     31 F   7 N     3.643028497709E-01 -3.268507563014E-01 -3.274511549416E-01
     32 F   7 N     6.003986402024E-04 -3.082459952875E-01  3.274511549416E-01
     33 T   7 N     4.318783272602E-01 -3.928227513362E-01  3.843121527548E-01
     34 F   7 N     2.228650959090E-01  4.756617450549E-02 -3.843121527548E-01
     35 F   7 N     3.928227513362E-01 -2.228650959090E-01 -1.752989214036E-01
     36 F   7 N    -4.756617450549E-02 -4.318783272602E-01  1.752989214036E-01
     37 T   7 N     4.008946763830E-01 -4.369013239428E-01  1.473463180794E-01
     38 F   7 N     4.157523579778E-01  2.535483583036E-01 -1.473463180794E-01
     39 F   7 N     4.369013239428E-01 -4.157523579778E-01 -1.622039996742E-01
     40 F   7 N    -2.535483583036E-01 -4.008946763830E-01  1.622039996742E-01
     41 T   7 N     4.883616707558E-01 -4.325517653592E-01  2.908546994701E-01
     42 F   7 N     2.765935351708E-01  1.975069712858E-01 -2.908546994701E-01
     43 F   7 N     4.325517653592E-01 -2.765935351708E-01 -7.908656388500E-02
     44 F   7 N    -1.975069712858E-01 -4.883616707558E-01  7.908656388500E-02
     45 T   7 N     1.362020518308E-02 -2.260109127462E-01  1.335020906849E-02
     46 F   7 N    -2.393611218147E-01  2.699961145874E-04 -1.335020906849E-02
     47 F   7 N     2.260109127462E-01  2.393611218147E-01  2.396311179293E-01
     48 F   7 N    -2.699961145874E-04 -1.362020518308E-02 -2.396311179293E-01
     49 T  35 BR    1.263415178785E-01  3.695555265531E-01 -2.420519759792E-01
     50 F  35 BR   -3.883924974677E-01  3.683934938577E-01  2.420519759792E-01
     51 F  35 BR   -3.695555265531E-01  3.883924974677E-01 -2.432140086746E-01
     52 F  35 BR   -3.683934938577E-01 -1.263415178785E-01  2.432140086746E-01
     53 T  35 BR    2.668703296167E-01 -7.886525630619E-02  3.332880136185E-01
     54 F  35 BR   -4.121532699247E-01 -6.641768400177E-02 -3.332880136185E-01
     55 F  35 BR    7.886525630619E-02  4.121532699247E-01  3.457355859229E-01
     56 F  35 BR    6.641768400177E-02 -2.668703296167E-01 -3.457355859229E-01
     57 T  35 BR   -2.493703427474E-01 -3.077434845053E-01 -2.823869109120E-01
     58 F  35 BR   -2.535657359332E-02  3.301656816459E-02  2.823869109120E-01
     59 F  35 BR    3.077434845053E-01  2.535657359332E-02  5.837314175791E-02
     60 F  35 BR   -3.301656816459E-02  2.493703427474E-01 -5.837314175791E-02
     61 T  30 ZN    2.500000000000E-01 -2.500000000000E-01 -5.000000000000E-01
     62 T  30 ZN   -5.000000000000E-01 -5.000000000000E-01 -5.305107765763E-19

 TRANSFORMATION MATRIX PRIMITIVE-CRYSTALLOGRAPHIC CELL
  0.0000  1.0000  1.0000  1.0000  0.0000  1.0000  1.0000  1.0000  0.0000

 *******************************************************************************
 CRYSTALLOGRAPHIC CELL (VOLUME=       1767.23411908)
         A              B              C           ALPHA      BETA       GAMMA 
    11.32383749    11.32383749    13.78182818    90.000000  90.000000  90.000000

 COORDINATES IN THE CRYSTALLOGRAPHIC CELL
     ATOM                 X/A                 Y/B                 Z/C    
 *******************************************************************************
      1 T   1 H    -3.889860519740E-01  2.579414842690E-02 -1.499531877933E-01
      2 F   1 H     3.889860519740E-01 -2.579414842690E-02 -1.499531877933E-01
      3 F   1 H     2.579414842690E-02  3.889860519740E-01  1.499531877933E-01
      4 F   1 H    -2.579414842690E-02 -3.889860519740E-01  1.499531877933E-01
      5 T   6 C    -2.478609336116E-01  2.931371365476E-01 -1.237156817134E-01
      6 F   6 C     2.478609336116E-01 -2.931371365476E-01 -1.237156817134E-01
      7 F   6 C     2.931371365476E-01  2.478609336116E-01  1.237156817134E-01
      8 F   6 C    -2.931371365476E-01 -2.478609336116E-01  1.237156817134E-01
      9 T   6 C     2.396208395666E-01 -7.829444008403E-02  3.681787344658E-01
     10 F   6 C    -2.396208395666E-01  7.829444008403E-02  3.681787344658E-01
     11 F   6 C    -7.829444008403E-02 -2.396208395666E-01 -3.681787344658E-01
     12 F   6 C     7.829444008403E-02  2.396208395666E-01 -3.681787344658E-01
     13 T   6 C    -3.405105721956E-01  2.099786792051E-01 -1.339320600584E-01
     14 F   6 C     3.405105721956E-01 -2.099786792051E-01 -1.339320600584E-01
     15 F   6 C     2.099786792051E-01  3.405105721956E-01  1.339320600584E-01
     16 F   6 C    -2.099786792051E-01 -3.405105721956E-01  1.339320600584E-01
     17 T   6 C    -2.009273036541E-01  5.196628185103E-02 -1.315747282256E-01
     18 F   6 C     2.009273036541E-01 -5.196628185103E-02 -1.315747282256E-01
     19 F   6 C     5.196628185103E-02  2.009273036541E-01  1.315747282256E-01
     20 F   6 C    -5.196628185103E-02 -2.009273036541E-01  1.315747282256E-01
     21 T   6 C    -1.361745627111E-01  2.408711877688E-01 -1.090470771122E-01
     22 F   6 C     1.361745627111E-01 -2.408711877688E-01 -1.090470771122E-01
     23 F   6 C     2.408711877688E-01  1.361745627111E-01  1.090470771122E-01
     24 F   6 C    -2.408711877688E-01 -1.361745627111E-01  1.090470771122E-01
     25 T   6 C     3.177930278300E-01 -8.953284928717E-02 -1.413274629589E-01
     26 F   6 C    -3.177930278300E-01  8.953284928717E-02 -1.413274629589E-01
     27 F   6 C    -8.953284928717E-02 -3.177930278300E-01  1.413274629589E-01
     28 F   6 C     8.953284928717E-02  3.177930278300E-01  1.413274629589E-01
     29 T   7 N     3.181487744346E-01 -9.302380506991E-03  3.175483757944E-01
     30 F   7 N    -3.181487744346E-01  9.302380506991E-03  3.175483757944E-01
     31 F   7 N    -9.302380506991E-03 -3.181487744346E-01 -3.175483757944E-01
     32 F   7 N     9.302380506991E-03  3.181487744346E-01 -3.175483757944E-01
     33 T   7 N    -2.201944629208E-01 -3.954933843244E-01 -1.726282884154E-01
     34 F   7 N     2.201944629208E-01  3.954933843244E-01 -1.726282884154E-01
     35 F   7 N    -3.954933843244E-01  2.201944629208E-01  1.726282884154E-01
     36 F   7 N     3.954933843244E-01 -2.201944629208E-01  1.726282884154E-01
     37 T   7 N     1.547751588768E-01 -7.428840797417E-03  4.083235171804E-01
     38 F   7 N    -1.547751588768E-01  7.428840797417E-03  4.083235171804E-01
     39 F   7 N    -7.428840797417E-03 -1.547751588768E-01 -4.083235171804E-01
     40 F   7 N     7.428840797417E-03  1.547751588768E-01 -4.083235171804E-01
     41 T   7 N    -3.150293683225E-01 -3.941159322075E-01 -1.175223970367E-01
     42 F   7 N     3.150293683225E-01  3.941159322075E-01 -1.175223970367E-01
     43 F   7 N    -3.941159322075E-01  3.150293683225E-01  1.175223970367E-01
     44 F   7 N     3.941159322075E-01 -3.150293683225E-01  1.175223970367E-01
     45 T   7 N    -1.131404544304E-01  1.264906634989E-01 -1.128704583158E-01
     46 F   7 N     1.131404544304E-01 -1.264906634989E-01 -1.128704583158E-01
     47 F   7 N     1.264906634989E-01  1.131404544304E-01  1.128704583158E-01
     48 F   7 N    -1.264906634989E-01 -1.131404544304E-01  1.128704583158E-01
     49 T  35 BR    5.810163476965E-04 -2.426329923269E-01  3.689745102054E-01
     50 F  35 BR   -5.810163476965E-04  2.426329923269E-01  3.689745102054E-01
     51 F  35 BR   -2.426329923269E-01 -5.810163476965E-04 -3.689745102054E-01
     52 F  35 BR    2.426329923269E-01  5.810163476965E-04 -3.689745102054E-01
     53 T  35 BR   -6.223786152210E-03  3.395117997707E-01 -7.264147015398E-02
     54 F  35 BR    6.223786152210E-03 -3.395117997707E-01 -7.264147015398E-02
     55 F  35 BR    3.395117997707E-01  6.223786152210E-03  7.264147015398E-02
     56 F  35 BR   -3.395117997707E-01 -6.223786152210E-03  7.264147015398E-02
     57 T  35 BR   -1.703800263349E-01 -1.120068845770E-01 -1.373634581703E-01
     58 F  35 BR    1.703800263349E-01  1.120068845770E-01 -1.373634581703E-01
     59 F  35 BR   -1.120068845770E-01  1.703800263349E-01  1.373634581703E-01
     60 F  35 BR    1.120068845770E-01 -1.703800263349E-01  1.373634581703E-01
     61 T  30 ZN    5.000000000000E-01  4.327890144987E-17  2.500000000000E-01
     62 T  30 ZN   -5.546678239835E-32 -5.305107765763E-19 -5.000000000000E-01

 T = ATOM BELONGING TO THE ASYMMETRIC UNIT
 INFORMATION **** fort.34 **** GEOMETRY OUTPUT FILE

 DIRECT LATTICE VECTORS CARTESIAN COMPONENTS (ANGSTROM)
          X                    Y                    Z
  -0.566191874726E+01   0.566191874726E+01   0.689091408785E+01
   0.566191874726E+01  -0.566191874726E+01   0.689091408785E+01
   0.566191874726E+01   0.566191874726E+01  -0.689091408785E+01


 CARTESIAN COORDINATES - PRIMITIVE CELL
 *******************************************************************************
 *      ATOM          X(ANGSTROM)         Y(ANGSTROM)         Z(ANGSTROM)
 *******************************************************************************
    1     1 H    -4.404814840188E+00  2.920887450957E-01 -2.066629068565E+00
    2     1 H     4.404814840188E+00 -2.920887450957E-01 -2.066629068565E+00
    3     1 H     2.920887450957E-01  4.404814840188E+00  2.066629068565E+00
    4     1 H    -2.920887450957E-01 -4.404814840188E+00  2.066629068565E+00
    5     6 C    -2.806736933457E+00  3.319437297874E+00 -1.705028268012E+00
    6     6 C     2.806736933457E+00 -3.319437297874E+00 -1.705028268012E+00
    7     6 C     3.319437297874E+00  2.806736933457E+00  1.705028268012E+00
    8     6 C    -3.319437297874E+00 -2.806736933457E+00  1.705028268012E+00
    9     6 C     2.713427447553E+00 -8.865935162360E-01  5.074176056353E+00
   10     6 C    -2.713427447553E+00  8.865935162360E-01  5.074176056353E+00
   11     6 C    -8.865935162360E-01 -2.713427447553E+00 -5.074176056353E+00
   12     6 C     8.865935162360E-01  2.713427447553E+00 -5.074176056353E+00
   13     6 C    -3.855886384710E+00  2.377764440632E+00 -1.845828638941E+00
   14     6 C     3.855886384710E+00 -2.377764440632E+00 -1.845828638941E+00
   15     6 C     2.377764440632E+00  3.855886384710E+00  1.845828638941E+00
   16     6 C    -2.377764440632E+00 -3.855886384710E+00  1.845828638941E+00
   17     6 C    -2.275268134791E+00  5.884577308756E-01 -1.813340296668E+00
   18     6 C     2.275268134791E+00 -5.884577308756E-01 -1.813340296668E+00
   19     6 C     5.884577308756E-01  2.275268134791E+00  1.813340296668E+00
   20     6 C    -5.884577308756E-01 -2.275268134791E+00  1.813340296668E+00
   21     6 C    -1.542018619028E+00  2.727586187405E+00 -1.502868079822E+00
   22     6 C     1.542018619028E+00 -2.727586187405E+00 -1.502868079822E+00
   23     6 C     2.727586187405E+00  1.542018619028E+00  1.502868079822E+00
   24     6 C    -2.727586187405E+00 -1.542018619028E+00  1.502868079822E+00
   25     6 C     3.598636604038E+00 -1.013855435749E+00 -1.947750811007E+00
   26     6 C    -3.598636604038E+00  1.013855435749E+00 -1.947750811007E+00
   27     6 C    -1.013855435749E+00 -3.598636604038E+00  1.947750811007E+00
   28     6 C     1.013855435749E+00  3.598636604038E+00  1.947750811007E+00
   29     7 N     3.602665020779E+00 -1.053386451734E-01  4.376397152670E+00
   30     7 N    -3.602665020779E+00  1.053386451734E-01  4.376397152670E+00
   31     7 N    -1.053386451734E-01 -3.602665020779E+00 -4.376397152670E+00
   32     7 N     1.053386451734E-01  3.602665020779E+00 -4.376397152670E+00
   33     7 N    -2.493446315309E+00 -4.478502814247E+00 -2.379133409205E+00
   34     7 N     2.493446315309E+00  4.478502814247E+00 -2.379133409205E+00
   35     7 N    -4.478502814247E+00  2.493446315309E+00  2.379133409205E+00
   36     7 N     4.478502814247E+00 -2.493446315309E+00  2.379133409205E+00
   37     7 N     1.752648747309E+00 -8.412298596262E-02  5.627444553875E+00
   38     7 N    -1.752648747309E+00  8.412298596261E-02  5.627444553875E+00
   39     7 N    -8.412298596262E-02 -1.752648747309E+00 -5.627444553875E+00
   40     7 N     8.412298596262E-02  1.752648747309E+00 -5.627444553875E+00
   41     7 N    -3.567341372885E+00 -4.462904770319E+00 -1.619673482755E+00
   42     7 N     3.567341372885E+00  4.462904770319E+00 -1.619673482755E+00
   43     7 N    -4.462904770319E+00  3.567341372885E+00  1.619673482755E+00
   44     7 N     4.462904770319E+00 -3.567341372885E+00  1.619673482755E+00
   45     7 N    -1.281184120026E+00  1.432359718036E+00 -1.555561262620E+00
   46     7 N     1.281184120026E+00 -1.432359718036E+00 -1.555561262620E+00
   47     7 N     1.432359718036E+00  1.281184120026E+00  1.555561262620E+00
   48     7 N    -1.432359718036E+00 -1.281184120026E+00  1.555561262620E+00
   49    35 BR    6.579334702975E-03 -2.747536575919E+00  5.085143300862E+00
   50    35 BR   -6.579334702975E-03  2.747536575919E+00  5.085143300862E+00
   51    35 BR   -2.747536575919E+00 -6.579334702975E-03 -5.085143300862E+00
   52    35 BR    2.747536575919E+00  6.579334702975E-03 -5.085143300862E+00
   53    35 BR   -7.047714298827E-02  3.844576448076E+00 -1.001132260092E+00
   54    35 BR    7.047714298827E-02 -3.844576448076E+00 -1.001132260092E+00
   55    35 BR    3.844576448076E+00  7.047714298827E-02  1.001132260092E+00
   56    35 BR   -3.844576448076E+00 -7.047714298827E-02  1.001132260092E+00
   57    35 BR   -1.929355730529E+00 -1.268347759218E+00 -1.893119578123E+00
   58    35 BR    1.929355730529E+00  1.268347759218E+00 -1.893119578123E+00
   59    35 BR   -1.268347759218E+00  1.929355730529E+00  1.893119578123E+00
   60    35 BR    1.268347759218E+00 -1.929355730529E+00  1.893119578123E+00
   61    30 ZN    5.661918747260E+00  4.900832469597E-16 -1.033637113177E+01
   62    30 ZN   -6.280968302229E-31 -6.007417823042E-18  6.890914087847E+00

 ****    4 SYMMOPS - TRANSLATORS IN FRACTIONAL UNITS
 **** MATRICES AND TRANSLATORS IN THE CRYSTALLOGRAPHIC REFERENCE FRAME
   V INV                    ROTATION MATRICES                   TRANSLATORS
   1   1  1.00  0.00  0.00  0.00  1.00  0.00  0.00  0.00  1.00  0.00  0.00  0.00
   2   2 -0.00  1.00 -1.00  1.00  0.00 -1.00 -0.00  0.00 -1.00  0.00  0.00  0.00
   3   4  0.00 -1.00  0.00  0.00 -1.00  1.00  1.00 -1.00  0.00  0.00  0.00  0.00
   4   3 -1.00  0.00  1.00 -1.00  0.00  0.00 -1.00  1.00 -0.00  0.00  0.00  0.00
 TTTTTTTTTTTTTTTTTTTTTTTTTTTTTT END         TELAPSE    44968.55 TCPU    43464.91
 EEEEEEEEEE TERMINATION  DATE 26 03 2024 TIME 12:19:26.3
NODE    0 CPU TIME =     43464.915
    TOTAL CPU TIME =   2785095.397
