Loading crystal17/1.0.2/intel/19.0
  Loading requirement: intel/19.0 ompi/4.0.1/intel/19.0
          64 PROCESSORS WORKING

         
 *******************************************************************************
 *                                                                             *
 *                               CRYSTAL17                                     *
 *                      public : 1.0.2 - March 1st, 2018                       *
 *                       HTTP://WWW.CRYSTAL.UNITO.IT                           *
 *                                                                             *
 *                              MAIN AUTHORS                                   *
 *                                                                             *
 *  R. DOVESI(1,11), V.R. SAUNDERS(2), C. ROETTI(1,11), R. ORLANDO(1,11),      *
 *  C.M. ZICOVICH-WILSON(1,3), F. PASCALE(4), B. CIVALLERI(1,11),              *
 *  K. DOLL(5), N.M. HARRISON(2,6), I.J. BUSH(7), Ph. D'ARCO(8),               *
 *  M. LLUNELL(9), M. CAUSA'(10), Y. NOEL(8), L. MASCHIO(1,11), A. ERBA(1,11)  *
 *  M. RE'RAT(14), S. CASASSA(1,11)                                            *
 *                                                                             *
 *        CONTRIBUTIONS TO THE CODE HAVE ALSO BEEN GIVEN BY                    *
 *                                                                             *
 *  M. FERRABONE(1,11), M. DE LA PIERRE(1,11), M. FERRERO(1,11),               *
 *  J. BAIMA(1,11), E. ALBANESE(1,11), M.F. PEINTINGER(12), R. BAST(13),       *
 *  B. KIRTMAN(15), V. LACIVITA(1,11), R. DEMICHELIS(1,16)                     *
 *  G. BRANDEBURG(17), S. SALUSTRO(1,11), G. SANSONE(1,11)                     *
 *  M.T. RUGGIERO(18)                                                          *
 *                                                                             *
 * (1) THEORETICAL CHEMISTRY GROUP - UNIVERSITA' DI TORINO - TORINO (ITALY)    *
 * (2) COMPUTATIONAL SCIENCE & ENGINEERING DEPARTMENT - STFC DARESBURY (UK)    *
 * (3) UNIVERSIDAD AUTONOMA DEL ESTADO DE MORELOS - CUERNAVACA (MEXICO)        *
 * (4) UNIVERSITE' DE LORRAINE - NANCY (FRANCE)                                *
 * (5) UNIVERSITAET STUTTGART- STUTTGART (GERMANY)                             *
 * (6) IMPERIAL COLLEGE - LONDON (UK)                                          *
 * (7) OXFORD E-RESEARCH CENTRE - OXFORD (UK)                                  *
 * (8) UPMC - SORBONNE UNIVERSITES - PARIS (FRANCE)                            *
 * (9) UNIVERSIDAD DE BARCELONA - BARCELONA (SPAIN)                            *
 *(10) UNIVERSITA' DI NAPOLI "FEDERICO II" - NAPOLI (ITALY)                    *
 *(11) NIS - NANOSTRUCTURED INTERFACES AND SURFACES - TORINO (ITALY)           *
 *(12) MPI FUER CHEMISCHE ENERGIEKONVERSION - MUELHEIM AN DER RUHR (GERMANY)   *
 *(13) UNIVERSITY OF TROMSO - TROMSO (NORWAY)                                  *
 *(14) UNIVERSITE' DE PAU ET DES PAYS DE L'ADOUR - PAU (FRANCE)                *
 *(15) UNIVERSITY OF CALIFORNIA SANTA BARBARA - SANTA BARBARA (USA)            *
 *(16) CURTIN UNIVERSITY - PERTH (AUSTRALIA)                                   *
 *(17) UNIVERSITY COLLEGE LONDON - LONDON (UK)                                 *
 *(18) CAMBRIDGE UNIVERSITY - CAMBRIDGE (UK)                                   *
 *                                                                             *
 *******************************************************************************
 EEEEEEEEEE STARTING  DATE 20 02 2024 TIME 16:23:21.0
 C:\Users\wilso\AppData\Local\Temp\tmp_p\newconn.mol                             

 CRYSTAL CALCULATION
 (INPUT ACCORDING TO THE INTERNATIONAL TABLES FOR X-RAY CRYSTALLOGRAPHY)
 CRYSTAL FAMILY                       :  TETRAGONAL  
 CRYSTAL CLASS  (GROTH - 1921)        :  TETRAGONAL DISPHENOIDAL              

 SPACE GROUP (NONCENTROSYMMETRIC)     :  I -4            

 LATTICE PARAMETERS  (ANGSTROMS AND DEGREES) - CONVENTIONAL CELL
        A           B           C        ALPHA        BETA       GAMMA
    10.15800    10.15800    13.29400    90.00000    90.00000    90.00000


 NUMBER OF IRREDUCIBLE ATOMS IN THE CONVENTIONAL CELL:  124

 INPUT COORDINATES

 ATOM AT. N.              COORDINATES
   1   1     5.576100000000E-01  7.373700000000E-01  1.366700000000E-01
   2   1     4.423900000000E-01  2.626300000000E-01  1.366700000000E-01
   3   1     7.373700000000E-01  4.423900000000E-01  8.633300000000E-01
   4   1     2.626300000000E-01  5.576100000000E-01  8.633300000000E-01
   5   1     5.761000000000E-02  2.373700000000E-01  6.366700000000E-01
   6   1     9.423900000000E-01  7.626300000000E-01  6.366700000000E-01
   7   1     2.373700000000E-01  9.423900000000E-01  3.633300000000E-01
   8   1     7.626300000000E-01  5.761000000000E-02  3.633300000000E-01
   9   1     9.759200000000E-01  6.751900000000E-01  9.083000000000E-02
  10   1     2.408000000000E-02  3.248100000000E-01  9.083000000000E-02
  11   1     6.751900000000E-01  2.408000000000E-02  9.091700000000E-01
  12   1     3.248100000000E-01  9.759200000000E-01  9.091700000000E-01
  13   1     4.759200000000E-01  1.751900000000E-01  5.908300000000E-01
  14   1     5.240800000000E-01  8.248100000000E-01  5.908300000000E-01
  15   1     1.751900000000E-01  5.240800000000E-01  4.091700000000E-01
  16   1     8.248100000000E-01  4.759200000000E-01  4.091700000000E-01
  17  35     6.058200000000E-01  9.805800000000E-01  1.369900000000E-01
  18  35     3.941800000000E-01  1.942000000000E-02  1.369900000000E-01
  19  35     9.805800000000E-01  3.941800000000E-01  8.630100000000E-01
  20  35     1.942000000000E-02  6.058200000000E-01  8.630100000000E-01
  21  35     1.058200000000E-01  4.805800000000E-01  6.369900000000E-01
  22  35     8.941800000000E-01  5.194200000000E-01  6.369900000000E-01
  23  35     4.805800000000E-01  8.941800000000E-01  3.630100000000E-01
  24  35     5.194200000000E-01  1.058200000000E-01  3.630100000000E-01
  25  35     8.420800000000E-01  5.709000000000E-02  1.240200000000E-01
  26  35     1.579200000000E-01  9.429100000000E-01  1.240200000000E-01
  27  35     5.709000000000E-02  1.579200000000E-01  8.759800000000E-01
  28  35     9.429100000000E-01  8.420800000000E-01  8.759800000000E-01
  29  35     3.420800000000E-01  5.570900000000E-01  6.240200000000E-01
  30  35     6.579200000000E-01  4.429100000000E-01  6.240200000000E-01
  31  35     5.570900000000E-01  6.579200000000E-01  3.759800000000E-01
  32  35     4.429100000000E-01  3.420800000000E-01  3.759800000000E-01
  33   6     2.646500000000E-01  1.859800000000E-01  6.165500000000E-01
  34   6     7.353500000000E-01  8.140200000000E-01  6.165500000000E-01
  35   6     1.859800000000E-01  7.353500000000E-01  3.834500000000E-01
  36   6     8.140200000000E-01  2.646500000000E-01  3.834500000000E-01
  37   6     7.646500000000E-01  6.859800000000E-01  1.165500000000E-01
  38   6     2.353500000000E-01  3.140200000000E-01  1.165500000000E-01
  39   6     6.859800000000E-01  2.353500000000E-01  8.834500000000E-01
  40   6     3.140200000000E-01  7.646500000000E-01  8.834500000000E-01
  41   6     2.514000000000E-01  4.317000000000E-02  6.230000000000E-01
  42   6     7.486000000000E-01  9.568300000000E-01  6.230000000000E-01
  43   6     4.317000000000E-02  7.486000000000E-01  3.770000000000E-01
  44   6     9.568300000000E-01  2.514000000000E-01  3.770000000000E-01
  45   6     7.514000000000E-01  5.431700000000E-01  1.230000000000E-01
  46   6     2.486000000000E-01  4.568300000000E-01  1.230000000000E-01
  47   6     5.431700000000E-01  2.486000000000E-01  8.770000000000E-01
  48   6     4.568300000000E-01  7.514000000000E-01  8.770000000000E-01
  49   6     6.583700000000E-01  7.736700000000E-01  1.273400000000E-01
  50   6     3.416300000000E-01  2.263300000000E-01  1.273400000000E-01
  51   6     7.736700000000E-01  3.416300000000E-01  8.726600000000E-01
  52   6     2.263300000000E-01  6.583700000000E-01  8.726600000000E-01
  53   6     1.583700000000E-01  2.736700000000E-01  6.273400000000E-01
  54   6     8.416300000000E-01  7.263300000000E-01  6.273400000000E-01
  55   6     2.736700000000E-01  8.416300000000E-01  3.726600000000E-01
  56   6     7.263300000000E-01  1.583700000000E-01  3.726600000000E-01
  57   6     8.156900000000E-01  9.525900000000E-01  1.204300000000E-01
  58   6     1.843100000000E-01  4.741000000000E-02  1.204300000000E-01
  59   6     9.525900000000E-01  1.843100000000E-01  8.795700000000E-01
  60   6     4.741000000000E-02  8.156900000000E-01  8.795700000000E-01
  61   6     3.156900000000E-01  4.525900000000E-01  6.204300000000E-01
  62   6     6.843100000000E-01  5.474100000000E-01  6.204300000000E-01
  63   6     4.525900000000E-01  6.843100000000E-01  3.795700000000E-01
  64   6     5.474100000000E-01  3.156900000000E-01  3.795700000000E-01
  65   6     3.914300000000E-01  2.396500000000E-01  6.044300000000E-01
  66   6     6.085700000000E-01  7.603500000000E-01  6.044300000000E-01
  67   6     2.396500000000E-01  6.085700000000E-01  3.955700000000E-01
  68   6     7.603500000000E-01  3.914300000000E-01  3.955700000000E-01
  69   6     8.914300000000E-01  7.396500000000E-01  1.044300000000E-01
  70   6     1.085700000000E-01  2.603500000000E-01  1.044300000000E-01
  71   6     7.396500000000E-01  1.085700000000E-01  8.955700000000E-01
  72   6     2.603500000000E-01  8.914300000000E-01  8.955700000000E-01
  73   6     3.150000000000E-01  9.141000000000E-02  1.282200000000E-01
  74   6     6.850000000000E-01  9.085900000000E-01  1.282200000000E-01
  75   6     9.141000000000E-02  6.850000000000E-01  8.717800000000E-01
  76   6     9.085900000000E-01  3.150000000000E-01  8.717800000000E-01
  77   6     8.150000000000E-01  5.914100000000E-01  6.282200000000E-01
  78   6     1.850000000000E-01  4.085900000000E-01  6.282200000000E-01
  79   6     5.914100000000E-01  1.850000000000E-01  3.717800000000E-01
  80   6     4.085900000000E-01  8.150000000000E-01  3.717800000000E-01
  81   7     8.407700000000E-01  4.628300000000E-01  1.672900000000E-01
  82   7     1.592300000000E-01  5.371700000000E-01  1.672900000000E-01
  83   7     4.628300000000E-01  1.592300000000E-01  8.327100000000E-01
  84   7     5.371700000000E-01  8.407700000000E-01  8.327100000000E-01
  85   7     3.407700000000E-01  9.628300000000E-01  6.672900000000E-01
  86   7     6.592300000000E-01  3.717000000000E-02  6.672900000000E-01
  87   7     9.628300000000E-01  6.592300000000E-01  3.327100000000E-01
  88   7     3.717000000000E-02  3.407700000000E-01  3.327100000000E-01
  89   7     2.940400000000E-01  8.358500000000E-01  6.597700000000E-01
  90   7     7.059600000000E-01  1.641500000000E-01  6.597700000000E-01
  91   7     8.358500000000E-01  7.059600000000E-01  3.402300000000E-01
  92   7     1.641500000000E-01  2.940400000000E-01  3.402300000000E-01
  93   7     7.940400000000E-01  3.358500000000E-01  1.597700000000E-01
  94   7     2.059600000000E-01  6.641500000000E-01  1.597700000000E-01
  95   7     3.358500000000E-01  2.059600000000E-01  8.402300000000E-01
  96   7     6.641500000000E-01  7.940400000000E-01  8.402300000000E-01
  97   7     1.518600000000E-01  9.677900000000E-01  5.884000000000E-01
  98   7     8.481400000000E-01  3.221000000000E-02  5.884000000000E-01
  99   7     9.677900000000E-01  8.481400000000E-01  4.116000000000E-01
 100   7     3.221000000000E-02  1.518600000000E-01  4.116000000000E-01
 101   7     6.518600000000E-01  4.677900000000E-01  8.840000000000E-02
 102   7     3.481400000000E-01  5.322100000000E-01  8.840000000000E-02
 103   7     4.677900000000E-01  3.481400000000E-01  9.116000000000E-01
 104   7     5.322100000000E-01  6.518600000000E-01  9.116000000000E-01
 105   7     1.800200000000E-01  8.388700000000E-01  6.128200000000E-01
 106   7     8.199800000000E-01  1.611300000000E-01  6.128200000000E-01
 107   7     8.388700000000E-01  8.199800000000E-01  3.871800000000E-01
 108   7     1.611300000000E-01  1.800200000000E-01  3.871800000000E-01
 109   7     6.800200000000E-01  3.388700000000E-01  1.128200000000E-01
 110   7     3.199800000000E-01  6.611300000000E-01  1.128200000000E-01
 111   7     3.388700000000E-01  3.199800000000E-01  8.871800000000E-01
 112   7     6.611300000000E-01  6.800200000000E-01  8.871800000000E-01
 113   7     9.174200000000E-01  8.687700000000E-01  1.079100000000E-01
 114   7     8.258000000000E-02  1.312300000000E-01  1.079100000000E-01
 115   7     8.687700000000E-01  8.258000000000E-02  8.920900000000E-01
 116   7     1.312300000000E-01  9.174200000000E-01  8.920900000000E-01
 117   7     4.174200000000E-01  3.687700000000E-01  6.079100000000E-01
 118   7     5.825800000000E-01  6.312300000000E-01  6.079100000000E-01
 119   7     3.687700000000E-01  5.825800000000E-01  3.920900000000E-01
 120   7     6.312300000000E-01  4.174200000000E-01  3.920900000000E-01
 121  30     0.000000000000E+00  5.000000000000E-01  2.500000000000E-01
 122  30     5.000000000000E-01  0.000000000000E+00  7.500000000000E-01
 123  30     0.000000000000E+00  0.000000000000E+00  5.000000000000E-01
 124  30     0.000000000000E+00  0.000000000000E+00  5.000000000000E-01

 *******************************************************************************

 << INFORMATION >>: FROM NOW ON, ALL COORDINATES REFER TO THE PRIMITIVE CELL

 *******************************************************************************

 LATTICE PARAMETERS  (ANGSTROMS AND DEGREES) - PRIMITIVE CELL
       A          B          C        ALPHA      BETA     GAMMA        VOLUME
    9.78647    9.78647    9.78647   117.47208 117.47208  94.43726    685.870456

 INPUT LIST - ATOM N.   2 NOT IRREDUCIBLE

 INPUT LIST - ATOM N.   3 NOT IRREDUCIBLE

 INPUT LIST - ATOM N.   4 NOT IRREDUCIBLE

 INPUT LIST - ATOM N.   1 NOT IRREDUCIBLE

 INPUT LIST - ATOM N.   2 NOT IRREDUCIBLE

 INPUT LIST - ATOM N.   3 NOT IRREDUCIBLE

 INPUT LIST - ATOM N.   4 NOT IRREDUCIBLE

 INPUT LIST - ATOM N.   6 NOT IRREDUCIBLE

 INPUT LIST - ATOM N.   7 NOT IRREDUCIBLE

 INPUT LIST - ATOM N.   8 NOT IRREDUCIBLE

 INPUT LIST - ATOM N.   5 NOT IRREDUCIBLE

 INPUT LIST - ATOM N.   6 NOT IRREDUCIBLE

 INPUT LIST - ATOM N.   7 NOT IRREDUCIBLE

 INPUT LIST - ATOM N.   8 NOT IRREDUCIBLE

 INPUT LIST - ATOM N.  10 NOT IRREDUCIBLE

 INPUT LIST - ATOM N.  11 NOT IRREDUCIBLE

 INPUT LIST - ATOM N.  12 NOT IRREDUCIBLE

 INPUT LIST - ATOM N.   9 NOT IRREDUCIBLE

 INPUT LIST - ATOM N.  10 NOT IRREDUCIBLE

 INPUT LIST - ATOM N.  11 NOT IRREDUCIBLE

 INPUT LIST - ATOM N.  12 NOT IRREDUCIBLE

 INPUT LIST - ATOM N.  14 NOT IRREDUCIBLE

 INPUT LIST - ATOM N.  15 NOT IRREDUCIBLE

 INPUT LIST - ATOM N.  16 NOT IRREDUCIBLE

 INPUT LIST - ATOM N.  13 NOT IRREDUCIBLE

 INPUT LIST - ATOM N.  14 NOT IRREDUCIBLE

 INPUT LIST - ATOM N.  15 NOT IRREDUCIBLE

 INPUT LIST - ATOM N.  16 NOT IRREDUCIBLE

 INPUT LIST - ATOM N.  18 NOT IRREDUCIBLE

 INPUT LIST - ATOM N.  19 NOT IRREDUCIBLE

 INPUT LIST - ATOM N.  20 NOT IRREDUCIBLE

 INPUT LIST - ATOM N.  17 NOT IRREDUCIBLE

 INPUT LIST - ATOM N.  18 NOT IRREDUCIBLE

 INPUT LIST - ATOM N.  19 NOT IRREDUCIBLE

 INPUT LIST - ATOM N.  20 NOT IRREDUCIBLE

 INPUT LIST - ATOM N.  22 NOT IRREDUCIBLE

 INPUT LIST - ATOM N.  23 NOT IRREDUCIBLE

 INPUT LIST - ATOM N.  24 NOT IRREDUCIBLE

 INPUT LIST - ATOM N.  21 NOT IRREDUCIBLE

 INPUT LIST - ATOM N.  22 NOT IRREDUCIBLE

 INPUT LIST - ATOM N.  23 NOT IRREDUCIBLE

 INPUT LIST - ATOM N.  24 NOT IRREDUCIBLE

 INPUT LIST - ATOM N.  26 NOT IRREDUCIBLE

 INPUT LIST - ATOM N.  27 NOT IRREDUCIBLE

 INPUT LIST - ATOM N.  28 NOT IRREDUCIBLE

 INPUT LIST - ATOM N.  25 NOT IRREDUCIBLE

 INPUT LIST - ATOM N.  26 NOT IRREDUCIBLE

 INPUT LIST - ATOM N.  27 NOT IRREDUCIBLE

 INPUT LIST - ATOM N.  28 NOT IRREDUCIBLE

 INPUT LIST - ATOM N.  30 NOT IRREDUCIBLE

 INPUT LIST - ATOM N.  31 NOT IRREDUCIBLE

 INPUT LIST - ATOM N.  32 NOT IRREDUCIBLE

 INPUT LIST - ATOM N.  29 NOT IRREDUCIBLE

 INPUT LIST - ATOM N.  30 NOT IRREDUCIBLE

 INPUT LIST - ATOM N.  31 NOT IRREDUCIBLE

 INPUT LIST - ATOM N.  32 NOT IRREDUCIBLE

 INPUT LIST - ATOM N.  34 NOT IRREDUCIBLE

 INPUT LIST - ATOM N.  35 NOT IRREDUCIBLE

 INPUT LIST - ATOM N.  36 NOT IRREDUCIBLE

 INPUT LIST - ATOM N.  33 NOT IRREDUCIBLE

 INPUT LIST - ATOM N.  34 NOT IRREDUCIBLE

 INPUT LIST - ATOM N.  35 NOT IRREDUCIBLE

 INPUT LIST - ATOM N.  36 NOT IRREDUCIBLE

 INPUT LIST - ATOM N.  38 NOT IRREDUCIBLE

 INPUT LIST - ATOM N.  39 NOT IRREDUCIBLE

 INPUT LIST - ATOM N.  40 NOT IRREDUCIBLE

 INPUT LIST - ATOM N.  37 NOT IRREDUCIBLE

 INPUT LIST - ATOM N.  38 NOT IRREDUCIBLE

 INPUT LIST - ATOM N.  39 NOT IRREDUCIBLE

 INPUT LIST - ATOM N.  40 NOT IRREDUCIBLE

 INPUT LIST - ATOM N.  42 NOT IRREDUCIBLE

 INPUT LIST - ATOM N.  43 NOT IRREDUCIBLE

 INPUT LIST - ATOM N.  44 NOT IRREDUCIBLE

 INPUT LIST - ATOM N.  41 NOT IRREDUCIBLE

 INPUT LIST - ATOM N.  42 NOT IRREDUCIBLE

 INPUT LIST - ATOM N.  43 NOT IRREDUCIBLE

 INPUT LIST - ATOM N.  44 NOT IRREDUCIBLE

 INPUT LIST - ATOM N.  46 NOT IRREDUCIBLE

 INPUT LIST - ATOM N.  47 NOT IRREDUCIBLE

 INPUT LIST - ATOM N.  48 NOT IRREDUCIBLE

 INPUT LIST - ATOM N.  45 NOT IRREDUCIBLE

 INPUT LIST - ATOM N.  46 NOT IRREDUCIBLE

 INPUT LIST - ATOM N.  47 NOT IRREDUCIBLE

 INPUT LIST - ATOM N.  48 NOT IRREDUCIBLE

 INPUT LIST - ATOM N.  50 NOT IRREDUCIBLE

 INPUT LIST - ATOM N.  51 NOT IRREDUCIBLE

 INPUT LIST - ATOM N.  52 NOT IRREDUCIBLE

 INPUT LIST - ATOM N.  49 NOT IRREDUCIBLE

 INPUT LIST - ATOM N.  50 NOT IRREDUCIBLE

 INPUT LIST - ATOM N.  51 NOT IRREDUCIBLE

 INPUT LIST - ATOM N.  52 NOT IRREDUCIBLE

 INPUT LIST - ATOM N.  54 NOT IRREDUCIBLE

 INPUT LIST - ATOM N.  55 NOT IRREDUCIBLE

 INPUT LIST - ATOM N.  56 NOT IRREDUCIBLE

 INPUT LIST - ATOM N.  53 NOT IRREDUCIBLE

 INPUT LIST - ATOM N.  54 NOT IRREDUCIBLE

 INPUT LIST - ATOM N.  55 NOT IRREDUCIBLE

 INPUT LIST - ATOM N.  56 NOT IRREDUCIBLE

 INPUT LIST - ATOM N.  58 NOT IRREDUCIBLE

 INPUT LIST - ATOM N.  59 NOT IRREDUCIBLE

 INPUT LIST - ATOM N.  60 NOT IRREDUCIBLE

 INPUT LIST - ATOM N.  57 NOT IRREDUCIBLE

 INPUT LIST - ATOM N.  58 NOT IRREDUCIBLE

 INPUT LIST - ATOM N.  59 NOT IRREDUCIBLE

 INPUT LIST - ATOM N.  60 NOT IRREDUCIBLE

 INPUT LIST - ATOM N.  61 NOT IRREDUCIBLE

 INPUT LIST - ATOM N.  62 NOT IRREDUCIBLE

 COORDINATES OF THE EQUIVALENT ATOMS (FRACTIONAL UNITS)

 N. ATOM EQUIV AT. N.          X                  Y                  Z

   1   1   1    1 H    -1.25960000000E-01 -3.05720000000E-01  2.94980000000E-01
   2   1   2    1 H     3.99300000000E-01 -4.20940000000E-01 -2.94980000000E-01
   3   1   3    1 H     3.05720000000E-01 -3.99300000000E-01  1.79760000000E-01
   4   1   4    1 H     4.20940000000E-01  1.25960000000E-01 -1.79760000000E-01








   5   9   1    1 H    -2.33980000000E-01  6.67500000000E-02 -3.48890000000E-01
   6   9   2    1 H     4.15640000000E-01  1.14910000000E-01  3.48890000000E-01
   7   9   3    1 H    -6.67500000000E-02 -4.15640000000E-01 -3.00730000000E-01
   8   9   4    1 H    -1.14910000000E-01  2.33980000000E-01  3.00730000000E-01








   9  17   1   35 BR    1.17570000000E-01 -2.57190000000E-01 -4.13600000000E-01
  10  17   2   35 BR    1.56410000000E-01 -4.68830000000E-01  4.13600000000E-01
  11  17   3   35 BR    2.57190000000E-01 -1.56410000000E-01  3.74760000000E-01
  12  17   4   35 BR    4.68830000000E-01 -1.17570000000E-01 -3.74760000000E-01

 NUMBER OF SYMMETRY OPERATORS         :    4
 *******************************************************************************
 * GEOMETRY EDITING - INPUT COORDINATES ARE GIVEN IN ANGSTROM         
 *******************************************************************************

 GEOMETRY NOW FULLY CONSISTENT WITH THE GROUP
 *******************************************************************************
 *  GEOMETRY EDITING
 *  THE SYMMETRY OF THE CRYSTAL IS KEPT AND APPLIED TO THE PERTURBATION
 *******************************************************************************
 INFORMATION **** NEW DEFAULT **** FINALRUN 4 FOR GEOMETRY OPTIMIZATIONS
 INFORMATION **** NEW DEFAULT **** OPTGEOM OPTIMIZES BOTH ATOMIC COORDINATES AND CELL PARAMETERS
 INFORMATION **** NEW DEFAULT **** TOL. ON ATOMIC DISP TO REDEFINE REF. GEOMETRY: 0.8 Angs
 INFORMATION **** NEW DEFAULT **** N POINTS TO REDEFINE REF. GEOMETRY: N OF OPT DEGS OF FREEDOM
 INFORMATION **** NEW DEFAULT **** TOL. ON ENERGY TO REDEFINE REF. GEOMETRY: 10**-3*(5*N. ATOMS)

 IMPORTANT INFORMATION:
 THE COORDINATE SYSTEM ADOPTED IN THE OPTIMIZATION IS NOT IN
 GENERAL HOMOGENEOUS UNITS. FOR THIS REASON THE GRADIENT AND 
 HESSIAN MATRIX IN TERMS OF THIS SYSTEM ARE GIVEN WITHOUT
 UNITS. FOR MORE DETAILS SEE THE MANUAL.

 *******************************************************************************
 COMBINED CELL/ATOM OPTIMIZATION CONTROL

 INITIAL TRUST RADIUS         0.50000 MAXIMUM TRUST RADIUS               4.00000
 MAXIMUM GRADIENT COMPONENT   0.00045 MAXIMUM DISPLACEMENT COMPONENT     0.00180
 R.M.S. OF GRADIENT COMPONENT 0.00030 R.M.S. OF DISPLACEMENT COMPONENTS  0.00120
 THRESHOLD ON ENERGY CHANGE 0.100E-06 EXTRAPOLATING POLYNOMIAL ORDER           2
 MAXIMUM ALLOWED NUMBER OF STEPS   -1 SORTING OF ENERGY POINTS:               NO
 ANALYTICAL  GRADIENT                 HESSIAN UPDATING                      BFGS
 STEP SIZE NUMERICAL GRADIENT 0.00100
 INITIAL HESSIAN MATRIX: SCHLEGEL MODEL 2
 *******************************************************************************


 GCALCO - MAX INDICES DIRECT LATTICE VECTOR    14    14    16
 NO.OF VECTORS CREATED 6999 STARS  481 RMAX   197.96270 BOHR

 GEOMETRY FOR WAVE FUNCTION - DIMENSIONALITY OF THE SYSTEM    3
 (NON PERIODIC DIRECTION: LATTICE PARAMETER FORMALLY SET TO 500)
 *******************************************************************************
 LATTICE PARAMETERS (ANGSTROMS AND DEGREES) - BOHR = 0.5291772083 ANGSTROM
 PRIMITIVE CELL - CENTRING CODE 6/0 VOLUME=   685.870456 - DENSITY  3.233 g/cm^3
         A              B              C           ALPHA      BETA       GAMMA 
     9.78647490     9.78647490     9.78647490   117.472078 117.472078  94.437262
 *******************************************************************************
 ATOMS IN THE ASYMMETRIC UNIT   17 - ATOMS IN THE UNIT CELL:   62
     ATOM                 X/A                 Y/B                 Z/C    
 *******************************************************************************
      1 T   1 H    -1.259600000000E-01 -3.057200000000E-01  2.949800000000E-01
      2 F   1 H     3.993000000000E-01 -4.209400000000E-01 -2.949800000000E-01
      3 F   1 H     3.057200000000E-01 -3.993000000000E-01  1.797600000000E-01
      4 F   1 H     4.209400000000E-01  1.259600000000E-01 -1.797600000000E-01
      5 T   1 H    -2.339800000000E-01  6.675000000000E-02 -3.488900000000E-01
      6 F   1 H     4.156400000000E-01  1.149100000000E-01  3.488900000000E-01
      7 F   1 H    -6.675000000000E-02 -4.156400000000E-01 -3.007300000000E-01
      8 F   1 H    -1.149100000000E-01  2.339800000000E-01  3.007300000000E-01
      9 T  35 BR    1.175700000000E-01 -2.571900000000E-01 -4.136000000000E-01
     10 F  35 BR    1.564100000000E-01 -4.688300000000E-01  4.136000000000E-01
     11 F  35 BR    2.571900000000E-01 -1.564100000000E-01  3.747600000000E-01
     12 F  35 BR    4.688300000000E-01 -1.175700000000E-01 -3.747600000000E-01
     13 T  35 BR    1.811100000000E-01 -3.390000000000E-02 -1.008300000000E-01
     14 F  35 BR    6.693000000000E-02  2.819400000000E-01  1.008300000000E-01
     15 F  35 BR    3.390000000000E-02 -6.693000000000E-02  2.150100000000E-01
     16 F  35 BR   -2.819400000000E-01 -1.811100000000E-01 -2.150100000000E-01
     17 T   6 C    -1.974700000000E-01 -1.188000000000E-01  4.506300000000E-01
     18 F   6 C     4.305700000000E-01  3.519000000000E-01 -4.506300000000E-01
     19 F   6 C     1.188000000000E-01 -4.305700000000E-01 -7.867000000000E-02
     20 F   6 C    -3.519000000000E-01  1.974700000000E-01  7.867000000000E-02
     21 T   6 C    -3.338300000000E-01 -1.256000000000E-01  2.945700000000E-01
     22 F   6 C    -4.201700000000E-01  3.716000000000E-01 -2.945700000000E-01
     23 F   6 C     1.256000000000E-01  4.201700000000E-01 -2.082300000000E-01
     24 F   6 C    -3.716000000000E-01  3.338300000000E-01  2.082300000000E-01
     25 T   6 C    -9.899000000000E-02 -2.142900000000E-01  4.320400000000E-01
     26 F   6 C     3.536700000000E-01  4.689700000000E-01 -4.320400000000E-01
     27 F   6 C     2.142900000000E-01 -3.536700000000E-01  1.153000000000E-01
     28 F   6 C    -4.689700000000E-01  9.899000000000E-02 -1.153000000000E-01
     29 T   6 C     7.302000000000E-02 -6.388000000000E-02 -2.317200000000E-01
     30 F   6 C     1.678400000000E-01  3.047400000000E-01  2.317200000000E-01
     31 F   6 C     6.388000000000E-02 -1.678400000000E-01  1.369000000000E-01
     32 F   6 C    -3.047400000000E-01 -7.302000000000E-02 -1.369000000000E-01
     33 T   6 C    -1.559200000000E-01 -4.140000000000E-03 -3.689200000000E-01
     34 F   6 C     3.647800000000E-01  2.130000000000E-01  3.689200000000E-01
     35 F   6 C     4.140000000000E-03 -3.647800000000E-01 -1.517800000000E-01
     36 F   6 C    -2.130000000000E-01  1.559200000000E-01  1.517800000000E-01
     37 T   6 C     2.196300000000E-01  4.432200000000E-01  4.064100000000E-01
     38 F   6 C     3.681000000000E-02 -1.867800000000E-01 -4.064100000000E-01
     39 F   6 C    -4.432200000000E-01 -3.681000000000E-02 -2.235900000000E-01
     40 F   6 C     1.867800000000E-01 -2.196300000000E-01  2.235900000000E-01
     41 T   7 N    -3.698800000000E-01  8.060000000000E-03  3.036000000000E-01
     42 F   7 N    -2.955400000000E-01  3.265200000000E-01 -3.036000000000E-01
     43 F   7 N    -8.060000000000E-03  2.955400000000E-01 -3.779400000000E-01
     44 F   7 N    -3.265200000000E-01  3.698800000000E-01  3.779400000000E-01
     45 T   7 N     4.956200000000E-01 -4.619000000000E-02  1.298900000000E-01
     46 F   7 N    -1.760800000000E-01  3.657300000000E-01 -1.298900000000E-01
     47 F   7 N     4.619000000000E-02  1.760800000000E-01 -4.581900000000E-01
     48 F   7 N    -3.657300000000E-01 -4.956200000000E-01  4.581900000000E-01
     49 T   7 N    -4.438100000000E-01 -2.597400000000E-01  1.196500000000E-01
     50 F   7 N    -3.793900000000E-01  4.365400000000E-01 -1.196500000000E-01
     51 F   7 N     2.597400000000E-01  3.793900000000E-01 -1.840700000000E-01
     52 F   7 N    -4.365400000000E-01  4.438100000000E-01  1.840700000000E-01
     53 T   7 N     4.516900000000E-01 -2.071600000000E-01  1.889000000000E-02
     54 F   7 N    -2.260500000000E-01  4.328000000000E-01 -1.889000000000E-02
     55 F   7 N     2.071600000000E-01  2.260500000000E-01 -3.411500000000E-01
     56 F   7 N    -4.328000000000E-01 -4.516900000000E-01  3.411500000000E-01
     57 T   7 N    -2.332000000000E-02  2.533000000000E-02 -2.138100000000E-01
     58 F   7 N     2.391400000000E-01  1.904900000000E-01  2.138100000000E-01
     59 F   7 N    -2.533000000000E-02 -2.391400000000E-01 -4.865000000000E-02
     60 F   7 N    -1.904900000000E-01  2.332000000000E-02  4.865000000000E-02
     61 T  30 ZN   -2.500000000000E-01  2.500000000000E-01  5.000000000000E-01
     62 T  30 ZN   -5.000000000000E-01  5.000000000000E-01  0.000000000000E+00

 TRANSFORMATION MATRIX PRIMITIVE-CRYSTALLOGRAPHIC CELL
  0.0000  1.0000  1.0000  1.0000  0.0000  1.0000  1.0000  1.0000  0.0000

 *******************************************************************************
 CRYSTALLOGRAPHIC CELL (VOLUME=       1371.74091142)
         A              B              C           ALPHA      BETA       GAMMA 
    10.15800000    10.15800000    13.29400000    90.000000  90.000000  90.000000

 COORDINATES IN THE CRYSTALLOGRAPHIC CELL
     ATOM                 X/A                 Y/B                 Z/C    
 *******************************************************************************
      1 T   1 H     5.761000000000E-02  2.373700000000E-01 -3.633300000000E-01
      2 F   1 H    -5.761000000000E-02 -2.373700000000E-01 -3.633300000000E-01
      3 F   1 H     2.373700000000E-01 -5.761000000000E-02  3.633300000000E-01
      4 F   1 H    -2.373700000000E-01  5.761000000000E-02  3.633300000000E-01
      5 T   1 H    -2.408000000000E-02 -3.248100000000E-01  9.083000000000E-02
      6 F   1 H     2.408000000000E-02  3.248100000000E-01  9.083000000000E-02
      7 F   1 H    -3.248100000000E-01  2.408000000000E-02 -9.083000000000E-02
      8 F   1 H     3.248100000000E-01 -2.408000000000E-02 -9.083000000000E-02
      9 T  35 BR   -3.941800000000E-01 -1.942000000000E-02  1.369900000000E-01
     10 F  35 BR    3.941800000000E-01  1.942000000000E-02  1.369900000000E-01
     11 F  35 BR   -1.942000000000E-02  3.941800000000E-01 -1.369900000000E-01
     12 F  35 BR    1.942000000000E-02 -3.941800000000E-01 -1.369900000000E-01
     13 T  35 BR   -1.579200000000E-01  5.709000000000E-02  1.240200000000E-01
     14 F  35 BR    1.579200000000E-01 -5.709000000000E-02  1.240200000000E-01
     15 F  35 BR    5.709000000000E-02  1.579200000000E-01 -1.240200000000E-01
     16 F  35 BR   -5.709000000000E-02 -1.579200000000E-01 -1.240200000000E-01
     17 T   6 C    -2.353500000000E-01 -3.140200000000E-01  1.165500000000E-01
     18 F   6 C     2.353500000000E-01  3.140200000000E-01  1.165500000000E-01
     19 F   6 C    -3.140200000000E-01  2.353500000000E-01 -1.165500000000E-01
     20 F   6 C     3.140200000000E-01 -2.353500000000E-01 -1.165500000000E-01
     21 T   6 C    -2.486000000000E-01 -4.568300000000E-01  1.230000000000E-01
     22 F   6 C     2.486000000000E-01  4.568300000000E-01  1.230000000000E-01
     23 F   6 C    -4.568300000000E-01  2.486000000000E-01 -1.230000000000E-01
     24 F   6 C     4.568300000000E-01 -2.486000000000E-01 -1.230000000000E-01
     25 T   6 C    -3.416300000000E-01 -2.263300000000E-01  1.273400000000E-01
     26 F   6 C     3.416300000000E-01  2.263300000000E-01  1.273400000000E-01
     27 F   6 C    -2.263300000000E-01  3.416300000000E-01 -1.273400000000E-01
     28 F   6 C     2.263300000000E-01 -3.416300000000E-01 -1.273400000000E-01
     29 T   6 C    -1.843100000000E-01 -4.741000000000E-02  1.204300000000E-01
     30 F   6 C     1.843100000000E-01  4.741000000000E-02  1.204300000000E-01
     31 F   6 C    -4.741000000000E-02  1.843100000000E-01 -1.204300000000E-01
     32 F   6 C     4.741000000000E-02 -1.843100000000E-01 -1.204300000000E-01
     33 T   6 C    -1.085700000000E-01 -2.603500000000E-01  1.044300000000E-01
     34 F   6 C     1.085700000000E-01  2.603500000000E-01  1.044300000000E-01
     35 F   6 C    -2.603500000000E-01  1.085700000000E-01 -1.044300000000E-01
     36 F   6 C     2.603500000000E-01 -1.085700000000E-01 -1.044300000000E-01
     37 T   6 C     3.150000000000E-01  9.141000000000E-02  1.282200000000E-01
     38 F   6 C    -3.150000000000E-01 -9.141000000000E-02  1.282200000000E-01
     39 F   6 C     9.141000000000E-02 -3.150000000000E-01 -1.282200000000E-01
     40 F   6 C    -9.141000000000E-02  3.150000000000E-01 -1.282200000000E-01
     41 T   7 N    -1.592300000000E-01  4.628300000000E-01  1.672900000000E-01
     42 F   7 N     1.592300000000E-01 -4.628300000000E-01  1.672900000000E-01
     43 F   7 N     4.628300000000E-01  1.592300000000E-01 -1.672900000000E-01
     44 F   7 N    -4.628300000000E-01 -1.592300000000E-01 -1.672900000000E-01
     45 T   7 N    -2.059600000000E-01  3.358500000000E-01  1.597700000000E-01
     46 F   7 N     2.059600000000E-01 -3.358500000000E-01  1.597700000000E-01
     47 F   7 N     3.358500000000E-01  2.059600000000E-01 -1.597700000000E-01
     48 F   7 N    -3.358500000000E-01 -2.059600000000E-01 -1.597700000000E-01
     49 T   7 N     1.518600000000E-01 -3.221000000000E-02 -4.116000000000E-01
     50 F   7 N    -1.518600000000E-01  3.221000000000E-02 -4.116000000000E-01
     51 F   7 N    -3.221000000000E-02 -1.518600000000E-01  4.116000000000E-01
     52 F   7 N     3.221000000000E-02  1.518600000000E-01  4.116000000000E-01
     53 T   7 N    -3.199800000000E-01  3.388700000000E-01  1.128200000000E-01
     54 F   7 N     3.199800000000E-01 -3.388700000000E-01  1.128200000000E-01
     55 F   7 N     3.388700000000E-01  3.199800000000E-01 -1.128200000000E-01
     56 F   7 N    -3.388700000000E-01 -3.199800000000E-01 -1.128200000000E-01
     57 T   7 N    -8.258000000000E-02 -1.312300000000E-01  1.079100000000E-01
     58 F   7 N     8.258000000000E-02  1.312300000000E-01  1.079100000000E-01
     59 F   7 N    -1.312300000000E-01  8.258000000000E-02 -1.079100000000E-01
     60 F   7 N     1.312300000000E-01 -8.258000000000E-02 -1.079100000000E-01
     61 T  30 ZN    4.626932236752E-17  5.000000000000E-01  2.500000000000E-01
     62 T  30 ZN    0.000000000000E+00  0.000000000000E+00  5.000000000000E-01

 T = ATOM BELONGING TO THE ASYMMETRIC UNIT

 ****    4 SYMMOPS - TRANSLATORS IN FRACTIONAL UNITS
 **** MATRICES AND TRANSLATORS IN THE CRYSTALLOGRAPHIC REFERENCE FRAME
   V INV                    ROTATION MATRICES                   TRANSLATORS
   1   1  1.00  0.00  0.00  0.00  1.00  0.00  0.00  0.00  1.00  0.00  0.00  0.00
   2   2  0.00  1.00 -1.00  1.00 -0.00 -1.00 -0.00  0.00 -1.00  0.00  0.00  0.00
   3   4 -0.00 -1.00  0.00  0.00 -1.00  1.00  1.00 -1.00  0.00  0.00  0.00  0.00
   4   3 -1.00 -0.00  1.00 -1.00  0.00 -0.00 -1.00  1.00 -0.00  0.00  0.00  0.00

 DIRECT LATTICE VECTORS CARTESIAN COMPONENTS (ANGSTROM)
          X                    Y                    Z
  -0.507900000000E+01   0.507900000000E+01   0.664700000000E+01
   0.507900000000E+01  -0.507900000000E+01   0.664700000000E+01
   0.507900000000E+01   0.507900000000E+01  -0.664700000000E+01


 CARTESIAN COORDINATES - PRIMITIVE CELL
 *******************************************************************************
 *      ATOM          X(ANGSTROM)         Y(ANGSTROM)         Z(ANGSTROM)
 *******************************************************************************
    1     1 H     5.852023800000E-01  2.411204460000E+00 -4.830109020000E+00
    2     1 H    -5.852023800000E-01 -2.411204460000E+00 -4.830109020000E+00
    3     1 H     2.411204460000E+00 -5.852023800000E-01  4.830109020000E+00
    4     1 H    -2.411204460000E+00  5.852023800000E-01  4.830109020000E+00
    5     1 H    -2.446046400000E-01 -3.299419980000E+00  1.207494020000E+00
    6     1 H     2.446046400000E-01  3.299419980000E+00  1.207494020000E+00
    7     1 H    -3.299419980000E+00  2.446046400000E-01 -1.207494020000E+00
    8     1 H     3.299419980000E+00 -2.446046400000E-01 -1.207494020000E+00
    9    35 BR   -4.004080440000E+00 -1.972683600000E-01  1.821145060000E+00
   10    35 BR    4.004080440000E+00  1.972683600000E-01  1.821145060000E+00
   11    35 BR   -1.972683600000E-01  4.004080440000E+00 -1.821145060000E+00
   12    35 BR    1.972683600000E-01 -4.004080440000E+00 -1.821145060000E+00
   13    35 BR   -1.604151360000E+00  5.799202200000E-01  1.648721880000E+00
   14    35 BR    1.604151360000E+00 -5.799202200000E-01  1.648721880000E+00
   15    35 BR    5.799202200000E-01  1.604151360000E+00 -1.648721880000E+00
   16    35 BR   -5.799202200000E-01 -1.604151360000E+00 -1.648721880000E+00
   17     6 C    -2.390685300000E+00 -3.189815160000E+00  1.549415700000E+00
   18     6 C     2.390685300000E+00  3.189815160000E+00  1.549415700000E+00
   19     6 C    -3.189815160000E+00  2.390685300000E+00 -1.549415700000E+00
   20     6 C     3.189815160000E+00 -2.390685300000E+00 -1.549415700000E+00
   21     6 C    -2.525278800000E+00 -4.640479140000E+00  1.635162000000E+00
   22     6 C     2.525278800000E+00  4.640479140000E+00  1.635162000000E+00
   23     6 C    -4.640479140000E+00  2.525278800000E+00 -1.635162000000E+00
   24     6 C     4.640479140000E+00 -2.525278800000E+00 -1.635162000000E+00
   25     6 C    -3.470277540000E+00 -2.299060140000E+00  1.692857960000E+00
   26     6 C     3.470277540000E+00  2.299060140000E+00  1.692857960000E+00
   27     6 C    -2.299060140000E+00  3.470277540000E+00 -1.692857960000E+00
   28     6 C     2.299060140000E+00 -3.470277540000E+00 -1.692857960000E+00
   29     6 C    -1.872220980000E+00 -4.815907800000E-01  1.600996420000E+00
   30     6 C     1.872220980000E+00  4.815907800000E-01  1.600996420000E+00
   31     6 C    -4.815907800000E-01  1.872220980000E+00 -1.600996420000E+00
   32     6 C     4.815907800000E-01 -1.872220980000E+00 -1.600996420000E+00
   33     6 C    -1.102854060000E+00 -2.644635300000E+00  1.388292420000E+00
   34     6 C     1.102854060000E+00  2.644635300000E+00  1.388292420000E+00
   35     6 C    -2.644635300000E+00  1.102854060000E+00 -1.388292420000E+00
   36     6 C     2.644635300000E+00 -1.102854060000E+00 -1.388292420000E+00
   37     6 C     3.199770000000E+00  9.285427800000E-01  1.704556680000E+00
   38     6 C    -3.199770000000E+00 -9.285427800000E-01  1.704556680000E+00
   39     6 C     9.285427800000E-01 -3.199770000000E+00 -1.704556680000E+00
   40     6 C    -9.285427800000E-01  3.199770000000E+00 -1.704556680000E+00
   41     7 N    -1.617458340000E+00  4.701427140000E+00  2.223953260000E+00
   42     7 N     1.617458340000E+00 -4.701427140000E+00  2.223953260000E+00
   43     7 N     4.701427140000E+00  1.617458340000E+00 -2.223953260000E+00
   44     7 N    -4.701427140000E+00 -1.617458340000E+00 -2.223953260000E+00
   45     7 N    -2.092141680000E+00  3.411564300000E+00  2.123982380000E+00
   46     7 N     2.092141680000E+00 -3.411564300000E+00  2.123982380000E+00
   47     7 N     3.411564300000E+00  2.092141680000E+00 -2.123982380000E+00
   48     7 N    -3.411564300000E+00 -2.092141680000E+00 -2.123982380000E+00
   49     7 N     1.542593880000E+00 -3.271891800000E-01 -5.471810400000E+00
   50     7 N    -1.542593880000E+00  3.271891800000E-01 -5.471810400000E+00
   51     7 N    -3.271891800000E-01 -1.542593880000E+00  5.471810400000E+00
   52     7 N     3.271891800000E-01  1.542593880000E+00  5.471810400000E+00
   53     7 N    -3.250356840000E+00  3.442241460000E+00  1.499829080000E+00
   54     7 N     3.250356840000E+00 -3.442241460000E+00  1.499829080000E+00
   55     7 N     3.442241460000E+00  3.250356840000E+00 -1.499829080000E+00
   56     7 N    -3.442241460000E+00 -3.250356840000E+00 -1.499829080000E+00
   57     7 N    -8.388476400000E-01 -1.333034340000E+00  1.434555540000E+00
   58     7 N     8.388476400000E-01  1.333034340000E+00  1.434555540000E+00
   59     7 N    -1.333034340000E+00  8.388476400000E-01 -1.434555540000E+00
   60     7 N     1.333034340000E+00 -8.388476400000E-01 -1.434555540000E+00
   61    30 ZN    4.700037766092E-16  5.079000000000E+00 -9.970500000000E+00
   62    30 ZN    0.000000000000E+00  0.000000000000E+00  6.647000000000E+00

 *******************************************************************************
 STARTING BASIS SET HANDLING 
 *******************************************************************************

 Loading internal basis set: POB-DZVPP           

 Please cite in your publication:
 Peintinger, M. F., Oliveira, D. V. and Bredow, T. (2013), Generally applicable 
 solid-state Gaussian basis sets, in preparation                                
                                                                                
                    

 *******************************************************************************
 LOCAL ATOMIC FUNCTIONS BASIS SET
 *******************************************************************************
   ATOM   X(AU)   Y(AU)   Z(AU)  N. TYPE  EXPONENT  S COEF   P COEF   D/F/G COEF
 *******************************************************************************
   1 H    1.106   4.557  -9.128
                                  1 S  
                                         2.263E+01 1.441E-02 0.000E+00 0.000E+00
                                         3.236E+00 1.072E-01 0.000E+00 0.000E+00
                                         7.304E-01 3.846E-01 0.000E+00 0.000E+00
                                  2 S  
                                         1.417E-01 1.000E+00 0.000E+00 0.000E+00
                           3-     5 P  
                                         3.944E-01 0.000E+00 1.000E+00 0.000E+00
                           6-     8 P  
                                         1.006E-01 0.000E+00 1.000E+00 0.000E+00
   2 H   -1.106  -4.557  -9.128
   3 H    4.557  -1.106   9.128
   4 H   -4.557   1.106   9.128
   5 H   -0.462  -6.235   2.282
   6 H    0.462   6.235   2.282
   7 H   -6.235   0.462  -2.282
   8 H    6.235  -0.462  -2.282
   9 BR  -7.567  -0.373   3.441
                                 65 S  
                                         1.133E+05 1.428E-03 0.000E+00 0.000E+00
                                         1.701E+04 1.095E-02 0.000E+00 0.000E+00
                                         3.870E+03 5.442E-02 0.000E+00 0.000E+00
                                         1.093E+03 1.905E-01 0.000E+00 0.000E+00
                                         3.564E+02 3.902E-01 0.000E+00 0.000E+00
                                         1.231E+02 3.081E-01 0.000E+00 0.000E+00
                                 66 S  
                                         2.367E+02-1.123E-01 0.000E+00 0.000E+00
                                         2.847E+01 6.478E-01 0.000E+00 0.000E+00
                                         1.188E+01 4.424E-01 0.000E+00 0.000E+00
                                 67 S  
                                         2.127E+01-2.264E-01 0.000E+00 0.000E+00
                                         3.613E+00 7.382E-01 0.000E+00 0.000E+00
                                         1.663E+00 4.268E-01 0.000E+00 0.000E+00
                                 68 S  
                                         3.641E-01 1.000E+00 0.000E+00 0.000E+00
                                 69 S  
                                         1.243E-01 1.000E+00 0.000E+00 0.000E+00
                          70-    72 P  
                                         1.560E+03 0.000E+00 8.717E-03 0.000E+00
                                         3.685E+02 0.000E+00 6.624E-02 0.000E+00
                                         1.172E+02 0.000E+00 2.650E-01 0.000E+00
                                         4.265E+01 0.000E+00 5.384E-01 0.000E+00
                                         1.609E+01 0.000E+00 3.658E-01 0.000E+00
                          73-    75 P  
                                         8.635E+00 0.000E+00 3.425E-01 0.000E+00
                                         3.561E+00 0.000E+00 5.750E-01 0.000E+00
                                         1.529E+00 0.000E+00 2.433E-01 0.000E+00
                          76-    78 P  
                                         6.447E-01 0.000E+00 1.000E+00 0.000E+00
                          79-    81 P  
                                         2.103E-01 0.000E+00 1.000E+00 0.000E+00
                          82-    86 D  
                                         1.049E+02 0.000E+00 0.000E+00 2.265E-02
                                         3.028E+01 0.000E+00 0.000E+00 1.346E-01
                                         1.065E+01 0.000E+00 0.000E+00 3.647E-01
                                         3.870E+00 0.000E+00 0.000E+00 4.904E-01
                          87-    91 D  
                                         1.342E+00 0.000E+00 0.000E+00 1.000E+00
                          92-    96 D  
                                         4.101E-01 0.000E+00 0.000E+00 1.000E+00
                          97-   101 D  
                                         1.985E-01 0.000E+00 0.000E+00 1.000E+00
  10 BR   7.567   0.373   3.441
  11 BR  -0.373   7.567  -3.441
  12 BR   0.373  -7.567  -3.441
  13 BR  -3.031   1.096   3.116
  14 BR   3.031  -1.096   3.116
  15 BR   1.096   3.031  -3.116
  16 BR  -1.096  -3.031  -3.116
  17 C   -4.518  -6.028   2.928
                                361 S  
                                         1.238E+03 5.457E-03 0.000E+00 0.000E+00
                                         1.863E+02 4.064E-02 0.000E+00 0.000E+00
                                         4.225E+01 1.803E-01 0.000E+00 0.000E+00
                                         1.168E+01 4.632E-01 0.000E+00 0.000E+00
                                         3.593E+00 4.409E-01 0.000E+00 0.000E+00
                                362 S  
                                         5.281E+00 1.000E+00 0.000E+00 0.000E+00
                                363 S  
                                         4.447E-01 1.000E+00 0.000E+00 0.000E+00
                         364-   366 P  
                                         9.468E+00 0.000E+00 3.839E-02 0.000E+00
                                         2.010E+00 0.000E+00 2.112E-01 0.000E+00
                                         5.477E-01 0.000E+00 5.133E-01 0.000E+00
                         367-   369 P  
                                         1.604E-01 0.000E+00 1.000E+00 0.000E+00
                         370-   374 D  
                                         6.070E-01 0.000E+00 0.000E+00 1.000E+00
                         375-   379 D  
                                         2.939E-01 0.000E+00 0.000E+00 1.000E+00
  18 C    4.518   6.028   2.928
  19 C   -6.028   4.518  -2.928
  20 C    6.028  -4.518  -2.928
  21 C   -4.772  -8.769   3.090
  22 C    4.772   8.769   3.090
  23 C   -8.769   4.772  -3.090
  24 C    8.769  -4.772  -3.090
  25 C   -6.558  -4.345   3.199
  26 C    6.558   4.345   3.199
  27 C   -4.345   6.558  -3.199
  28 C    4.345  -6.558  -3.199
  29 C   -3.538  -0.910   3.025
  30 C    3.538   0.910   3.025
  31 C   -0.910   3.538  -3.025
  32 C    0.910  -3.538  -3.025
  33 C   -2.084  -4.998   2.623
  34 C    2.084   4.998   2.623
  35 C   -4.998   2.084  -2.623
  36 C    4.998  -2.084  -2.623
  37 C    6.047   1.755   3.221
  38 C   -6.047  -1.755   3.221
  39 C    1.755  -6.047  -3.221
  40 C   -1.755   6.047  -3.221
  41 N   -3.057   8.884   4.203
                                817 S  
                                         1.713E+03-5.393E-03 0.000E+00 0.000E+00
                                         2.576E+02-4.022E-02 0.000E+00 0.000E+00
                                         5.846E+01-1.793E-01 0.000E+00 0.000E+00
                                         1.620E+01-4.638E-01 0.000E+00 0.000E+00
                                         5.005E+00-4.417E-01 0.000E+00 0.000E+00
                                818 S  
                                         6.217E-01 1.000E+00 0.000E+00 0.000E+00
                                819 S  
                                         2.921E-01 1.000E+00 0.000E+00 0.000E+00
                         820-   822 P  
                                         1.357E+01 0.000E+00-4.007E-02 0.000E+00
                                         2.926E+00 0.000E+00-2.181E-01 0.000E+00
                                         7.993E-01 0.000E+00-5.129E-01 0.000E+00
                         823-   825 P  
                                         2.244E-01 0.000E+00 1.000E+00 0.000E+00
                         826-   830 D  
                                         3.118E-01 0.000E+00 0.000E+00 1.000E+00
  42 N    3.057  -8.884   4.203
  43 N    8.884   3.057  -4.203
  44 N   -8.884  -3.057  -4.203
  45 N   -3.954   6.447   4.014
  46 N    3.954  -6.447   4.014
  47 N    6.447   3.954  -4.014
  48 N   -6.447  -3.954  -4.014
  49 N    2.915  -0.618 -10.340
  50 N   -2.915   0.618 -10.340
  51 N   -0.618  -2.915  10.340
  52 N    0.618   2.915  10.340
  53 N   -6.142   6.505   2.834
  54 N    6.142  -6.505   2.834
  55 N    6.505   6.142  -2.834
  56 N   -6.505  -6.142  -2.834
  57 N   -1.585  -2.519   2.711
  58 N    1.585   2.519   2.711
  59 N   -2.519   1.585  -2.711
  60 N    2.519  -1.585  -2.711
  61 ZN   0.000   9.598 -18.842
                               1097 S  
                                         8.200E+04 1.421E-03 0.000E+00 0.000E+00
                                         1.231E+04 1.089E-02 0.000E+00 0.000E+00
                                         2.801E+03 5.406E-02 0.000E+00 0.000E+00
                                         7.910E+02 1.885E-01 0.000E+00 0.000E+00
                                         2.576E+02 3.835E-01 0.000E+00 0.000E+00
                                         8.881E+01 2.972E-01 0.000E+00 0.000E+00
                               1098 S  
                                         1.719E+02-1.105E-01 0.000E+00 0.000E+00
                                         2.030E+01 6.461E-01 0.000E+00 0.000E+00
                                         8.346E+00 4.422E-01 0.000E+00 0.000E+00
                               1099 S  
                                         1.485E+01-2.271E-01 0.000E+00 0.000E+00
                                         2.450E+00 7.243E-01 0.000E+00 0.000E+00
                                         9.985E-01 4.484E-01 0.000E+00 0.000E+00
                               1100 S  
                                         1.493E+00 1.000E+00 0.000E+00 0.000E+00
                               1101 S  
                                         1.830E-01 1.000E+00 0.000E+00 0.000E+00
                        1102-  1104 P  
                                         1.072E+03 0.000E+00 9.277E-03 0.000E+00
                                         2.527E+02 0.000E+00 6.954E-02 0.000E+00
                                         8.010E+01 0.000E+00 2.716E-01 0.000E+00
                                         2.890E+01 0.000E+00 5.340E-01 0.000E+00
                                         1.077E+01 0.000E+00 3.450E-01 0.000E+00
                        1105-  1107 P  
                                         5.645E+00 0.000E+00 3.413E-01 0.000E+00
                                         2.168E+00 0.000E+00 5.639E-01 0.000E+00
                                         8.054E-01 0.000E+00 2.368E-01 0.000E+00
                        1108-  1110 P  
                                         2.721E-01 0.000E+00 1.000E+00 0.000E+00
                        1111-  1115 D  
                                         5.609E+01 0.000E+00 0.000E+00 2.959E-02
                                         1.575E+01 0.000E+00 0.000E+00 1.587E-01
                                         5.312E+00 0.000E+00 0.000E+00 3.798E-01
                                         1.774E+00 0.000E+00 0.000E+00 4.690E-01
                        1116-  1120 D  
                                         5.073E-01 0.000E+00 0.000E+00 1.000E+00
                        1121-  1127 F  
                                         2.814E+00 0.000E+00 0.000E+00 1.000E+00
                        1128-  1134 F  
                                         1.300E+00 0.000E+00 0.000E+00 1.000E+00
  62 ZN   0.000   0.000  12.561

 *******************************************************************************
 FINISHED BASIS SET HANDLING 
 *******************************************************************************

 INFORMATION **** SET_MPP **** PCRYSTAL CALCULATION
 INFORMATION **** READM2 **** NEW DEFAULT: FOCK/KS MATRIX MIXING SET TO 30 %
 INFORMATION **** READM2 **** NEW DEFAULT: FULL DIRECT SCF MODE
 INFORMATION **** READM2 **** NEW DEFAULT: COULOMB BIPOLAR BUFFER SET TO 32 Mb
 INFORMATION **** READM2 **** NEW DEFAULT: EXCHANGE BIPOLAR BUFFER SET TO 32 Mb

 *******************************************************************************
 NEW DEFAULT: DFT INTEGRATION GRID INCREASED TO XLGRID
 NEW DEFAULT: DIIS ACCELERATOR ACTIVE
 USE KEYWORD NODIIS TO TURN IT OFF
 *******************************************************************************

 INFORMATION **** DFTD3_INPUT **** PERFORM DISPERSION CORRECTION DFT-D3(BJ) IN THE BECKE-JOHNSON DAMPING SCHEME

 PLEASE CITE:
 (1) DFT-D3 Reference
  S. Grimme, J. Antony, S. Ehrlich, and H. Krieg, J. Chem. Phys. 132 (2010), 154104
 (2) BJ-Damping Reference
  S. Grimme, S. Ehrlich, and L. Goerigk, J. Comput. Chem. 32 (2011), 1456-1465
 (3) General DFT-D Review
  S. Grimme, A. Hansen, J. G. Brandenburg, and C. Bannwarth,
  Chem. Rev. 116 (2016), 5105-5154

 INFORMATION **** BIPOSIZE **** COULOMB BIPOLAR BUFFER SET TO    30000000
 INFORMATION **** EXCHSIZE **** EXCHANGE BIPOLAR BUFFER SIZE SET TO    30000000
 INFORMATION **** TOLINTEG **** COULOMB AND EXCHANGE SERIES TOLERANCES MODIFIED
 INFORMATION **** MAXCYCLE **** MAX NUMBER OF SCF CYCLES SET TO        1000
 *******************************************************************************
 N. OF ATOMS PER CELL        62  COULOMB OVERLAP TOL         (T1) 10**  -12
 NUMBER OF SHELLS           448  COULOMB PENETRATION TOL     (T2) 10**  -12
 NUMBER OF AO              1172  EXCHANGE OVERLAP TOL        (T3) 10**   20
 N. OF ELECTRONS PER CELL   632  EXCHANGE PSEUDO OVP (F(G))  (T4) 10**   20
 CORE ELECTRONS PER CELL    348  EXCHANGE PSEUDO OVP (P(G))  (T5) 10**   20
 N. OF SYMMETRY OPERATORS     4  POLE ORDER IN MONO ZONE                  4
 *******************************************************************************
 TYPE OF CALCULATION :  RESTRICTED CLOSED SHELL
 KOHN-SHAM HAMILTONIAN

 (EXCHANGE)[CORRELATION] FUNCTIONAL:(PERDEW-BURKE-ERNZERHOF)[PERDEW-BURKE-ERNZERHOF]


 CAPPA:IS1  3;IS2  3;IS3  3; K PTS MONK NET   6; SYMMOPS:K SPACE   8;G SPACE   4

 *******************************************************************************
 MAX NUMBER OF SCF CYCLES    1000  CONVERGENCE ON DELTAP        10**-16
 WEIGHT OF F(I) IN F(I+1)      30% CONVERGENCE ON ENERGY        10**- 7
 SHRINK. FACT.(MONKH.)    3  3  3  NUMBER OF K POINTS IN THE IBZ      6
 SHRINKING FACTOR(GILAT NET)    3  NUMBER OF K POINTS(GILAT NET)      6
 *******************************************************************************
 *** K POINTS COORDINATES (OBLIQUE COORDINATES IN UNITS OF IS =  3)
   1-R(  0  0  0)   2-C(  1  0  0)   3-C(  1  1  0)   4-C(  2  1  0)
   5-C(  2  1  1)   6-C(  2  2  1)

 DIRECT LATTICE VECTORS COMPON. (A.U.)     RECIP. LATTICE VECTORS COMPON. (A.U.) 
        X            Y            Z              X            Y            Z
   -9.5979190    9.5979190   12.5610096      0.0000000    0.3273202    0.2501067
    9.5979190   -9.5979190   12.5610096      0.3273202    0.0000000    0.2501067
    9.5979190    9.5979190  -12.5610096      0.3273202    0.3273202    0.0000000

 DISK SPACE FOR EIGENVECTORS (FTN 10)    15109424 REALS

 SYMMETRY ADAPTION OF THE BLOCH FUNCTIONS ENABLED
 TTTTTTTTTTTTTTTTTTTTTTTTTTTTTT gordsh1     TELAPSE        3.70 TCPU        0.07

 MATRIX SIZE: P(G) 2360348, F(G) 1181288, P(G) IRR  298148, F(G) IRR  298148
 MAX G-VECTOR INDEX FOR 1- AND 2-ELECTRON INTEGRALS  63

 TTTTTTTTTTTTTTTTTTTTTTTTTTTTTT INPUT       TELAPSE        3.77 TCPU        0.11

 NEIGHBORS OF THE NON-EQUIVALENT ATOMS

 N = NUMBER OF NEIGHBORS AT DISTANCE R
    ATOM  N     R/ANG      R/AU   NEIGHBORS (ATOM LABELS AND CELL INDICES)
   1 H    1     1.0950     2.0692   25 C    0 0 1
   1 H    1     2.1707     4.1021   38 C    0 0 1
   1 H    1     2.1834     4.1260   17 C    0 0 1
   1 H    1     2.5186     4.7595    9 BR   0 0 1
   1 H    1     2.5548     4.8279   54 N    0-1 0
   1 H    1     2.7928     5.2776   21 C    0 0 1

   5 H    1     1.0945     2.0684   33 C    0 0 0
   5 H    1     2.0667     3.9055   57 N    0 0 0
   5 H    1     2.1759     4.1119   17 C    0 0 0
   5 H    1     2.5126     4.7480   46 N    0 0 0
   5 H    1     2.5429     4.8053   42 N    0 0 0
   5 H    1     2.6801     5.0646   21 C    0 0 0

   9 BR   1     1.0933     2.0660   38 C    0 0 0
   9 BR   1     2.1620     4.0855   29 C    0 0 0
   9 BR   1     2.1723     4.1051   25 C    0 0 0
   9 BR   1     2.1857     4.1305   10 BR   0-1-1
   9 BR   1     2.5186     4.7595    1 H    0 0-1
   9 BR   1     2.5285     4.7782   13 BR   0 0 0

  13 BR   1     1.0959     2.0709   29 C    0 0 0
  13 BR   1     2.0715     3.9145   57 N    0 0 0
  13 BR   1     2.1965     4.1508   38 C    0 0 0
  13 BR   1     2.5285     4.7782    9 BR   0 0 0
  13 BR   1     2.5654     4.8479   58 N    0 0 0
  13 BR   1     2.9124     5.5037   45 N    0 0 0

  17 C    1     1.4070     2.6588   25 C    0 0 0
  17 C    1     1.4077     2.6602   33 C    0 0 0
  17 C    1     1.4594     2.7579   21 C    0 0 0
  17 C    1     2.1759     4.1119    5 H    0 0 0
  17 C    1     2.1834     4.1260    1 H    0 0-1
  17 C    1     2.4067     4.5479   38 C    0 0 0

  21 C    1     1.3492     2.5496   49 N    0 0-1
  21 C    1     1.3553     2.5611   41 N   -1 0-1
  21 C    1     1.4594     2.7579   17 C    0 0 0
  21 C    1     2.2025     4.1620   53 N   -1 0-1
  21 C    1     2.2049     4.1667   45 N   -1 0-1
  21 C    1     2.4633     4.6549   33 C    0 0 0

  25 C    1     1.0950     2.0692    1 H    0 0-1
  25 C    1     1.3970     2.6400   38 C    0 0 0
  25 C    1     1.4070     2.6588   17 C    0 0 0
  25 C    1     2.1723     4.1051    9 BR   0 0 0
  25 C    1     2.4118     4.5577   33 C    0 0 0
  25 C    1     2.4219     4.5767   29 C    0 0 0

  29 C    1     1.0959     2.0709   13 BR   0 0 0
  29 C    1     1.3493     2.5497   57 N    0 0 0
  29 C    1     1.4046     2.6543   38 C    0 0 0
  29 C    1     2.1620     4.0855    9 BR   0 0 0
  29 C    1     2.3056     4.3570   33 C    0 0 0
  29 C    1     2.4219     4.5767   25 C    0 0 0

  33 C    1     1.0945     2.0684    5 H    0 0 0
  33 C    1     1.3387     2.5298   57 N    0 0 0
  33 C    1     1.4077     2.6602   17 C    0 0 0
  33 C    1     2.3056     4.3570   29 C    0 0 0
  33 C    1     2.4118     4.5577   25 C    0 0 0
  33 C    1     2.4633     4.6549   21 C    0 0 0

  37 C    1     1.0933     2.0660   10 BR   0 0 0
  37 C    1     1.3970     2.6400   26 C    0 0 0
  37 C    1     1.4046     2.6543   30 C    0 0 0
  37 C    1     2.1707     4.1021    2 H    1 1 1
  37 C    1     2.1965     4.1508   14 BR   0 0 0
  37 C    1     2.4067     4.5479   18 C    0 0 0

  41 N    1     1.3553     2.5611   21 C    1 0 1
  41 N    1     1.3781     2.6042   45 N    0 0 0
  41 N    1     1.9919     3.7642   61 ZN   1 1 0
  41 N    1     2.1855     4.1299   53 N    0 0 0
  41 N    1     2.1874     4.1336   49 N    1 0 0
  41 N    1     2.4882     4.7020   17 C    1 0 1

  45 N    1     1.3160     2.4870   53 N    0 0 0
  45 N    1     1.3781     2.6042   41 N    0 0 0
  45 N    1     2.1869     4.1326   49 N    1 0 0
  45 N    1     2.2049     4.1667   21 C    1 0 1
  45 N    1     2.5126     4.7480    6 H    0 0 0
  45 N    1     2.9124     5.5037   13 BR   0 0 0

  49 N    1     1.3492     2.5496   21 C    0 0 1
  49 N    1     1.3792     2.6063   53 N   -1 0 0
  49 N    1     1.9667     3.7164   62 ZN  -1-1 0
  49 N    1     2.1869     4.1326   45 N   -1 0 0
  49 N    1     2.1874     4.1336   41 N   -1 0 0
  49 N    1     2.5229     4.7676   17 C    0 0 1

  53 N    1     1.3160     2.4870   45 N    0 0 0
  53 N    1     1.3792     2.6063   49 N    1 0 0
  53 N    1     2.1855     4.1299   41 N    0 0 0
  53 N    1     2.2025     4.1620   21 C    1 0 1
  53 N    1     2.5548     4.8279    2 H    1 0 0
  53 N    1     2.8762     5.4352   62 ZN   0-1 0

  57 N    1     1.3387     2.5298   33 C    0 0 0
  57 N    1     1.3493     2.5497   29 C    0 0 0
  57 N    1     2.0667     3.9055    5 H    0 0 0
  57 N    1     2.0715     3.9145   13 BR   0 0 0
  57 N    1     2.4105     4.5552   38 C    0 0 0
  57 N    1     2.4226     4.5781   17 C    0 0 0

  61 ZN   4     1.9919     3.7642   41 N   -1-1 0   42 N    0-1 1   43 N    0-1 0
                                    44 N    0 0 1
  61 ZN   4     2.7756     5.2452    5 H    0-1 1    6 H   -1-1 0    7 H    0 0 1
                                     8 H    0-1 0
  61 ZN   4     2.9319     5.5406   45 N   -1-1 0   46 N    0-1 1   47 N    0-1 0
                                    48 N    0 0 1
  61 ZN   4     3.0692     5.7999   21 C    0-1 1   22 C   -1-1 0   23 C    0 0 1
                                    24 C    0-1 0
  61 ZN   4     3.2996     6.2354   33 C    0-1 1   34 C   -1-1 0   35 C    0 0 1
                                    36 C    0-1 0
  61 ZN   4     3.5259     6.6629   17 C    0-1 1   18 C   -1-1 0   19 C    0 0 1
                                    20 C    0-1 0

  62 ZN   4     1.9667     3.7164   49 N    1 1 0   50 N    1 1 0   51 N    0 0 0
                                    52 N    0 0 0
  62 ZN   4     2.8762     5.4352   53 N    0 1 0   54 N    1 0 0   55 N    0 0-1
                                    56 N    1 1 1
  62 ZN   4     3.0639     5.7900   21 C    1 1 1   22 C    0 0-1   23 C    0 1 0
                                    24 C    1 0 0
  62 ZN   4     3.0753     5.8115    1 H    1 1 0    2 H    1 1 0    3 H    0 0 0
                                     4 H    0 0 0
  62 ZN   4     3.6307     6.8610   25 C    1 1 1   26 C    0 0-1   27 C    0 1 0
                                    28 C    1 0 0
  62 ZN   4     3.6327     6.8649   17 C    1 1 1   18 C    0 0-1   19 C    0 1 0
                                    20 C    1 0 0


 SYMMETRY ALLOWED ELASTIC DISTORTION 1
  0.5773503  0.0000000  0.0000000
  0.0000000  0.5773503  0.0000000
  0.0000000  0.0000000  0.5773503

 SYMMETRY ALLOWED ELASTIC DISTORTION 2
  0.4082483  0.0000000  0.0000000
  0.0000000  0.4082483  0.0000000
  0.0000000  0.0000000 -0.8164966

 SYMMETRY ALLOWED INTERNAL DEGREE(S) OF FREEDOM:  45
 TTTTTTTTTTTTTTTTTTTTTTTTTTTTTT SYMM        TELAPSE        3.91 TCPU        0.23
 TTTTTTTTTTTTTTTTTTTTTTTTTTTTTT INT_SCREEN  TELAPSE        3.92 TCPU        0.23

 *******************************************************************************
 *                             OPTIMIZATION STARTS                             *
 *******************************************************************************
 RECLASIFICATION OF INDICES FOR INTEGRAL CALC ACCORDING TO DIFFERENT CRITERIA:
           FIXDELTE                  FIXDELTX              FIXDELTN
          0.10000000               0.80000000                 47
 DEFAULT MAX NUM OF POINTS  100
 *******************************************************************************

 *******************************************************************************
 COORDINATE AND CELL OPTIMIZATION - POINT    1
 INFORMATION **** EXCBUF **** EXCH. BIPO BUFFER: WORDS USED =           0

 DFT PARAMETERS

     ATOM       ELECTRONS   NET CHARGE   R(ANGSTROM)
   1   1  H       1.0000      0.0000     1.11000000
   9  35  BR     35.0000      0.0000     1.14000000
  17   6  C       6.0000      0.0000     0.77000000
  41   7  N       7.0000      0.0000     0.74000000
  61  30  ZN     30.0000      0.0000     1.37000000

 SIZE OF GRID=     439872
 TTTTTTTTTTTTTTTTTTTTTTTTTTTTTT MAKE_GRID2  TELAPSE        4.90 TCPU        1.20
 BECKE WEIGHT FUNCTION
 RADSAFE =     2.00
 TOLERANCES - DENSITY:10**- 6; POTENTIAL:10**- 9; GRID WGT:10**-14

 RADIAL INTEGRATION  - INTERVALS (POINTS,UPPER LIMIT):            1( 75,  4.0*R)

 ANGULAR INTEGRATION - INTERVALS (ACCURACY LEVEL [N. POINTS] UPPER LIMIT):
  1(  4[  86]   0.2)  2(  8[ 194]   0.5)  3( 12[ 350]   0.9)  4( 16[ 974]   3.5)
  5( 12[ 350]9999.0)
 TTTTTTTTTTTTTTTTTTTTTTTTTTTTTT INT_CALC    TELAPSE        4.94 TCPU        1.24

 *******************************************************************************
 C:\Users\wilso\AppData\Local\Temp\tmp_p\newconn.mol                             
 CRYSTAL - SCF - TYPE OF CALCULATION :  RESTRICTED CLOSED SHELL
 *******************************************************************************

 CAPPA:IS1  3;IS2  3;IS3  3; K PTS MONK NET   6; SYMMOPS:K SPACE   8;G SPACE   4

 TTTTTTTTTTTTTTTTTTTTTTTTTTTTTT SDIK        TELAPSE        5.07 TCPU        1.37

 AAAAAAAAAAAAAAAAAAAAAAAAAAAAAAAAAAAAAAAAAAAAAAAAAAAAAAAAAAAAAAAAAAAAAAAAAAAAAAA
         ATOMIC WAVEFUNCTION(S)


 NUCLEAR CHARGE  1.0  SYMMETRY SPECIES            S
 N. ELECTRONS    1.0  NUMBER OF PRIMITIVE GTOS    4
                      NUMBER OF CONTRACTED GTOS   2
                      NUMBER OF CLOSED SHELLS     0
                      OPEN SHELL OCCUPATION       1

  ZNUC SCFIT  TOTAL HF ENERGY   KINETIC ENERGY   VIRIAL THEOREM ACCURACY
   1.0   1   -4.946643675E-01  4.917913167E-01 -2.005842012E+00  9.4E-17

 NUCLEAR CHARGE 35.0  SYMMETRY SPECIES            S    P    D
 N. ELECTRONS   35.0  NUMBER OF PRIMITIVE GTOS   14   10    7
                      NUMBER OF CONTRACTED GTOS   5    4    4
                      NUMBER OF CLOSED SHELLS     4    2    1
                      OPEN SHELL OCCUPATION       0    5    0

  ZNUC SCFIT  TOTAL HF ENERGY   KINETIC ENERGY   VIRIAL THEOREM ACCURACY
  35.0  13   -2.572060514E+03  2.572021521E+03 -2.000015161E+00  3.6E-06

 NUCLEAR CHARGE  6.0  SYMMETRY SPECIES            S    P
 N. ELECTRONS    6.0  NUMBER OF PRIMITIVE GTOS    7    4
                      NUMBER OF CONTRACTED GTOS   3    2
                      NUMBER OF CLOSED SHELLS     2    0
                      OPEN SHELL OCCUPATION       0    2

  ZNUC SCFIT  TOTAL HF ENERGY   KINETIC ENERGY   VIRIAL THEOREM ACCURACY
   6.0   6   -3.750912652E+01  3.905246519E+01 -1.960480378E+00  3.7E-06

 NUCLEAR CHARGE  7.0  SYMMETRY SPECIES            S    P
 N. ELECTRONS    7.0  NUMBER OF PRIMITIVE GTOS    7    4
                      NUMBER OF CONTRACTED GTOS   3    2
                      NUMBER OF CLOSED SHELLS     2    0
                      OPEN SHELL OCCUPATION       0    3

  ZNUC SCFIT  TOTAL HF ENERGY   KINETIC ENERGY   VIRIAL THEOREM ACCURACY
   7.0   9   -5.432196661E+01  5.425066284E+01 -2.001314339E+00  1.2E-06

 NUCLEAR CHARGE 30.0  SYMMETRY SPECIES            S    P    D
 N. ELECTRONS   30.0  NUMBER OF PRIMITIVE GTOS   14    9    5
                      NUMBER OF CONTRACTED GTOS   5    3    2
                      NUMBER OF CLOSED SHELLS     4    2    1
                      OPEN SHELL OCCUPATION       0    0    0

  ZNUC SCFIT  TOTAL HF ENERGY   KINETIC ENERGY   VIRIAL THEOREM ACCURACY
  30.0  10   -1.777404290E+03  1.777325716E+03 -2.000044209E+00  2.5E-06

 AAAAAAAAAAAAAAAAAAAAAAAAAAAAAAAAAAAAAAAAAAAAAAAAAAAAAAAAAAAAAAAAAAAAAAAAAAAAAAA

 CHARGE NORMALIZATION FACTOR   1.00000000
 TOTAL ATOMIC CHARGES:
   1.0000000   1.0000000   1.0000000   1.0000000   1.0000000   1.0000000
   1.0000000   1.0000000  35.0000000  35.0000000  35.0000000  35.0000000
  35.0000000  35.0000000  35.0000000  35.0000000   6.0000000   6.0000000
   6.0000000   6.0000000   6.0000000   6.0000000   6.0000000   6.0000000
   6.0000000   6.0000000   6.0000000   6.0000000   6.0000000   6.0000000
   6.0000000   6.0000000   6.0000000   6.0000000   6.0000000   6.0000000
   6.0000000   6.0000000   6.0000000   6.0000000   7.0000000   7.0000000
   7.0000000   7.0000000   7.0000000   7.0000000   7.0000000   7.0000000
   7.0000000   7.0000000   7.0000000   7.0000000   7.0000000   7.0000000
   7.0000000   7.0000000   7.0000000   7.0000000   7.0000000   7.0000000
  30.0000000  30.0000000
 TTTTTTTTTTTTTTTTTTTTTTTTTTTTTT MOQGAD      TELAPSE        7.95 TCPU        4.24
 TTTTTTTTTTTTTTTTTTTTTTTTTTTTTT SHELLXN     TELAPSE       37.13 TCPU       25.98
 TTTTTTTTTTTTTTTTTTTTTTTTTTTTTT MONMO3      TELAPSE       40.94 TCPU       29.45
 NUMERICALLY INTEGRATED DENSITY    632.0000862725
 TTTTTTTTTTTTTTTTTTTTTTTTTTTTTT NUMDFT      TELAPSE       41.54 TCPU       30.05
 CYC   0 ETOT(AU) -2.617458311018E+04 DETOT -2.62E+04 tst  0.00E+00 PX  1.00E+00
 TTTTTTTTTTTTTTTTTTTTTTTTTTTTTT DIIS        TELAPSE       41.61 TCPU       30.11
 TTTTTTTTTTTTTTTTTTTTTTTTTTTTTT FDIK        TELAPSE       58.71 TCPU       42.68
 INSULATING STATE
 TOP OF VALENCE BANDS -    BAND    316; K    3; EIG -1.3205869E-01 AU
 TOP OF VALENCE BANDS -    BAND    316; K    1; EIG -1.3236847E-01 AU
 BOTTOM OF VIRTUAL BANDS - BAND    317; K    1; EIG -1.3095027E-01 AU
 INDIRECT ENERGY BAND GAP:   0.0302 eV
 TTTTTTTTTTTTTTTTTTTTTTTTTTTTTT PDIG        TELAPSE       59.36 TCPU       43.33
 CHARGE NORMALIZATION FACTOR   1.00000000
 TOTAL ATOMIC CHARGES:
   1.2367850   1.2367850   1.2367850   1.2367850   1.3608523   1.3608523
   1.3608523   1.3608523  34.3715489  34.3715489  34.3715489  34.3715489
  33.9721206  33.9721206  33.9721206  33.9721206   6.1219993   6.1219993
   6.1219993   6.1219993   5.4675256   5.4675256   5.4675256   5.4675256
   6.0661055   6.0661055   6.0661055   6.0661055   6.4938596   6.4938596
   6.4938596   6.4938596   5.8906069   5.8906069   5.8906069   5.8906069
   6.6022211   6.6022211   6.6022211   6.6022211   7.3714737   7.3714737
   7.3714737   7.3714737   7.1744285   7.1744285   7.1744285   7.1744285
   7.3595717   7.3595717   7.3595717   7.3595717   7.1784498   7.1784498
   7.1784498   7.1784498   7.5363685   7.5363685   7.5363685   7.5363685
  27.4845917  27.6997405
 TTTTTTTTTTTTTTTTTTTTTTTTTTTTTT MOQGAD      TELAPSE       59.38 TCPU       43.34
 TTTTTTTTTTTTTTTTTTTTTTTTTTTTTT SHELLXN     TELAPSE       87.85 TCPU       69.46
 TTTTTTTTTTTTTTTTTTTTTTTTTTTTTT MONMO3      TELAPSE       92.45 TCPU       74.05
 NUMERICALLY INTEGRATED DENSITY    632.0000517537
 TTTTTTTTTTTTTTTTTTTTTTTTTTTTTT NUMDFT      TELAPSE       94.21 TCPU       75.80
 CYC   1 ETOT(AU) -2.614440616056E+04 DETOT  3.02E+01 tst  0.00E+00 PX  1.00E+00
 TTTTTTTTTTTTTTTTTTTTTTTTTTTTTT DIIS        TELAPSE       94.34 TCPU       75.92
 DIIS TEST: 0.17278E+02 AT SCF   CYCLE   1 - MIX   30 %
 TTTTTTTTTTTTTTTTTTTTTTTTTTTTTT FDIK        TELAPSE      101.73 TCPU       80.50
 POSSIBLY CONDUCTING STATE - EFERMI(AU) -6.9483528E-02 (RES. CHARGE  3.84E-10;IT. 12)
 TTTTTTTTTTTTTTTTTTTTTTTTTTTTTT PDIG        TELAPSE      102.38 TCPU       81.15
 CHARGE NORMALIZATION FACTOR   1.00000000
 TOTAL ATOMIC CHARGES:
   1.4323995   1.4323995   1.4323995   1.4323995   1.5239765   1.5239765
   1.5239765   1.5239765  35.0857337  35.0857337  35.0857337  35.0857337
  34.4515471  34.4515471  34.4515471  34.4515471   6.1137801   6.1137801
   6.1137801   6.1137801   6.4638665   6.4638665   6.4638665   6.4638665
   6.0662394   6.0662394   6.0662394   6.0662394   6.0812764   6.0812764
   6.0812764   6.0812764   6.2085472   6.2085472   6.2085472   6.2085472
   5.8411519   5.8411519   5.8411519   5.8411519   7.3176689   7.3176689
   7.3176689   7.3176689   6.8715480   6.8715480   6.8715480   6.8715480
   7.1832319   7.1832319   7.1832319   7.1832319   6.8736793   6.8736793
   6.8736793   6.8736793   5.2523918   5.2523918   5.2523918   5.2523918
  30.8413164  30.0905304
 TTTTTTTTTTTTTTTTTTTTTTTTTTTTTT MOQGAD      TELAPSE      102.40 TCPU       81.17
 TTTTTTTTTTTTTTTTTTTTTTTTTTTTTT SHELLXN     TELAPSE      128.68 TCPU      107.18
 TTTTTTTTTTTTTTTTTTTTTTTTTTTTTT MONMO3      TELAPSE      137.65 TCPU      116.12
 NUMERICALLY INTEGRATED DENSITY    632.0000568576
 TTTTTTTTTTTTTTTTTTTTTTTTTTTTTT NUMDFT      TELAPSE      139.34 TCPU      117.79
 CYC   2 ETOT(AU) -2.613766670372E+04 DETOT  6.74E+00 tst  4.46E-01 PX  2.62E+00
 TTTTTTTTTTTTTTTTTTTTTTTTTTTTTT DIIS        TELAPSE      139.52 TCPU      117.97
 DIIS TEST: 0.65586E+02 AT SCF   CYCLE   2 - DIIS ACTIVE - HISTORY:     2 CYCLES
 TTTTTTTTTTTTTTTTTTTTTTTTTTTTTT FDIK        TELAPSE      147.10 TCPU      123.19
 INSULATING STATE
 TOP OF VALENCE BANDS -    BAND    316; K    6; EIG -1.5353267E-01 AU
 TOP OF VALENCE BANDS -    BAND    316; K    1; EIG -1.5369873E-01 AU
 BOTTOM OF VIRTUAL BANDS - BAND    317; K    6; EIG -1.2106992E-01 AU
 DIRECT ENERGY BAND GAP:   0.8834 eV
 BOTTOM OF VIRTUAL BANDS - BAND    317; K    1; EIG -1.1947237E-01 AU
 TTTTTTTTTTTTTTTTTTTTTTTTTTTTTT PDIG        TELAPSE      147.75 TCPU      123.84
 CHARGE NORMALIZATION FACTOR   1.00000000
 TOTAL ATOMIC CHARGES:
   1.3059664   1.3059664   1.3059664   1.3059664   1.3115084   1.3115084
   1.3115084   1.3115084  34.8915066  34.8915066  34.8915066  34.8915066
  35.1260778  35.1260778  35.1260778  35.1260778   5.7439927   5.7439927
   5.7439927   5.7439927   5.9355527   5.9355527   5.9355527   5.9355527
   5.6722653   5.6722653   5.6722653   5.6722653   6.3055941   6.3055941
   6.3055941   6.3055941   5.9159033   5.9159033   5.9159033   5.9159033
   5.7713104   5.7713104   5.7713104   5.7713104   6.5455876   6.5455876
   6.5455876   6.5455876   7.0957462   7.0957462   7.0957462   7.0957462
   6.7122905   6.7122905   6.7122905   6.7122905   7.1049665   7.1049665
   7.1049665   7.1049665   7.7015563   7.7015563   7.7015563   7.7015563
  29.7266915  29.7140086
 TTTTTTTTTTTTTTTTTTTTTTTTTTTTTT MOQGAD      TELAPSE      147.77 TCPU      123.85
 TTTTTTTTTTTTTTTTTTTTTTTTTTTTTT SHELLXN     TELAPSE      176.18 TCPU      149.94
 TTTTTTTTTTTTTTTTTTTTTTTTTTTTTT MONMO3      TELAPSE      181.20 TCPU      154.94
 NUMERICALLY INTEGRATED DENSITY    632.0000834835
 TTTTTTTTTTTTTTTTTTTTTTTTTTTTTT NUMDFT      TELAPSE      182.92 TCPU      156.65
 CYC   3 ETOT(AU) -2.614387399069E+04 DETOT -6.21E+00 tst  4.87E-01 PX  2.00E+00
 TTTTTTTTTTTTTTTTTTTTTTTTTTTTTT DIIS        TELAPSE      183.06 TCPU      156.79
 DIIS TEST: 0.21364E+02 AT SCF   CYCLE   3 - DIIS ACTIVE - HISTORY:     3 CYCLES
 TTTTTTTTTTTTTTTTTTTTTTTTTTTTTT FDIK        TELAPSE      188.74 TCPU      161.25
 INSULATING STATE
 TOP OF VALENCE BANDS -    BAND    316; K    2; EIG -1.3910825E-01 AU
 TOP OF VALENCE BANDS -    BAND    316; K    1; EIG -1.3928690E-01 AU
 BOTTOM OF VIRTUAL BANDS - BAND    317; K    1; EIG -1.0938438E-01 AU
 INDIRECT ENERGY BAND GAP:   0.8088 eV
 TTTTTTTTTTTTTTTTTTTTTTTTTTTTTT PDIG        TELAPSE      189.39 TCPU      161.89
 CHARGE NORMALIZATION FACTOR   1.00000000
 TOTAL ATOMIC CHARGES:
   1.2274436   1.2274436   1.2274436   1.2274436   1.3071286   1.3071286
   1.3071286   1.3071286  35.0294761  35.0294761  35.0294761  35.0294761
  34.3564208  34.3564208  34.3564208  34.3564208   6.1457206   6.1457206
   6.1457206   6.1457206   5.7048619   5.7048619   5.7048619   5.7048619
   6.2569048   6.2569048   6.2569048   6.2569048   5.9458955   5.9458955
   5.9458955   5.9458955   5.9991993   5.9991993   5.9991993   5.9991993
   6.1593798   6.1593798   6.1593798   6.1593798   7.2064821   7.2064821
   7.2064821   7.2064821   6.9815825   6.9815825   6.9815825   6.9815825
   7.1741308   7.1741308   7.1741308   7.1741308   7.0395331   7.0395331
   7.0395331   7.0395331   7.0296050   7.0296050   7.0296050   7.0296050
  28.8386621  28.9062795
 TTTTTTTTTTTTTTTTTTTTTTTTTTTTTT MOQGAD      TELAPSE      189.41 TCPU      161.91
 TTTTTTTTTTTTTTTTTTTTTTTTTTTTTT SHELLXN     TELAPSE      216.14 TCPU      188.20
 TTTTTTTTTTTTTTTTTTTTTTTTTTTTTT MONMO3      TELAPSE      220.90 TCPU      192.94
 NUMERICALLY INTEGRATED DENSITY    632.0000635597
 TTTTTTTTTTTTTTTTTTTTTTTTTTTTTT NUMDFT      TELAPSE      222.61 TCPU      194.64
 CYC   4 ETOT(AU) -2.614691683985E+04 DETOT -3.04E+00 tst  2.26E-02 PX  5.28E-01
 TTTTTTTTTTTTTTTTTTTTTTTTTTTTTT DIIS        TELAPSE      222.74 TCPU      194.77
 DIIS TEST: 0.26261E+01 AT SCF   CYCLE   4 - DIIS ACTIVE - HISTORY:     4 CYCLES
 TTTTTTTTTTTTTTTTTTTTTTTTTTTTTT FDIK        TELAPSE      229.86 TCPU      199.58
 INSULATING STATE
 TOP OF VALENCE BANDS -    BAND    316; K    1; EIG -1.1513447E-01 AU
 BOTTOM OF VIRTUAL BANDS - BAND    317; K    1; EIG -8.8167372E-02 AU
 DIRECT ENERGY BAND GAP:   0.7338 eV
 TTTTTTTTTTTTTTTTTTTTTTTTTTTTTT PDIG        TELAPSE      230.51 TCPU      200.22
 CHARGE NORMALIZATION FACTOR   1.00000000
 TOTAL ATOMIC CHARGES:
   1.2706900   1.2706900   1.2706900   1.2706900   1.3570973   1.3570973
   1.3570973   1.3570973  34.6709959  34.6709959  34.6709959  34.6709959
  34.4695664  34.4695664  34.4695664  34.4695664   6.0643442   6.0643442
   6.0643442   6.0643442   5.7823718   5.7823718   5.7823718   5.7823718
   5.9098723   5.9098723   5.9098723   5.9098723   6.3066033   6.3066033
   6.3066033   6.3066033   6.0853020   6.0853020   6.0853020   6.0853020
   6.0534870   6.0534870   6.0534870   6.0534870   7.3077363   7.3077363
   7.3077363   7.3077363   7.0946668   7.0946668   7.0946668   7.0946668
   7.1388641   7.1388641   7.1388641   7.1388641   7.0006330   7.0006330
   7.0006330   7.0006330   7.0693205   7.0693205   7.0693205   7.0693205
  28.8540105  28.8197855
 TTTTTTTTTTTTTTTTTTTTTTTTTTTTTT MOQGAD      TELAPSE      230.53 TCPU      200.24
 TTTTTTTTTTTTTTTTTTTTTTTTTTTTTT SHELLXN     TELAPSE      259.33 TCPU      226.65
 TTTTTTTTTTTTTTTTTTTTTTTTTTTTTT MONMO3      TELAPSE      264.08 TCPU      231.37
 NUMERICALLY INTEGRATED DENSITY    632.0000508336
 TTTTTTTTTTTTTTTTTTTTTTTTTTTTTT NUMDFT      TELAPSE      265.79 TCPU      233.08
 CYC   5 ETOT(AU) -2.614703498132E+04 DETOT -1.18E-01 tst  5.11E-03 PX  1.87E-01
 TTTTTTTTTTTTTTTTTTTTTTTTTTTTTT DIIS        TELAPSE      265.93 TCPU      233.21
 DIIS TEST: 0.16832E+01 AT SCF   CYCLE   5 - DIIS ACTIVE - HISTORY:     5 CYCLES
 TTTTTTTTTTTTTTTTTTTTTTTTTTTTTT FDIK        TELAPSE      272.89 TCPU      237.97
 INSULATING STATE
 TOP OF VALENCE BANDS -    BAND    316; K    2; EIG -1.3174739E-01 AU
 TOP OF VALENCE BANDS -    BAND    316; K    1; EIG -1.3280500E-01 AU
 BOTTOM OF VIRTUAL BANDS - BAND    317; K    1; EIG -9.5096271E-02 AU
 INDIRECT ENERGY BAND GAP:   0.9973 eV
 TTTTTTTTTTTTTTTTTTTTTTTTTTTTTT PDIG        TELAPSE      273.54 TCPU      238.62
 CHARGE NORMALIZATION FACTOR   1.00000000
 TOTAL ATOMIC CHARGES:
   1.2683859   1.2683859   1.2683859   1.2683859   1.3435575   1.3435575
   1.3435575   1.3435575  34.8538378  34.8538378  34.8538378  34.8538378
  34.4116683  34.4116683  34.4116683  34.4116683   6.0275982   6.0275982
   6.0275982   6.0275982   5.8053546   5.8053546   5.8053546   5.8053546
   6.0721405   6.0721405   6.0721405   6.0721405   6.2326371   6.2326371
   6.2326371   6.2326371   5.9279622   5.9279622   5.9279622   5.9279622
   6.1304106   6.1304106   6.1304106   6.1304106   7.0275702   7.0275702
   7.0275702   7.0275702   7.0244793   7.0244793   7.0244793   7.0244793
   7.1436216   7.1436216   7.1436216   7.1436216   7.1737106   7.1737106
   7.1737106   7.1737106   7.1061143   7.1061143   7.1061143   7.1061143
  28.8860419  28.9177633
 TTTTTTTTTTTTTTTTTTTTTTTTTTTTTT MOQGAD      TELAPSE      273.56 TCPU      238.63
 TTTTTTTTTTTTTTTTTTTTTTTTTTTTTT SHELLXN     TELAPSE      302.23 TCPU      265.01
 TTTTTTTTTTTTTTTTTTTTTTTTTTTTTT MONMO3      TELAPSE      307.16 TCPU      269.93
 NUMERICALLY INTEGRATED DENSITY    632.0000579568
 TTTTTTTTTTTTTTTTTTTTTTTTTTTTTT NUMDFT      TELAPSE      308.86 TCPU      271.62
 CYC   6 ETOT(AU) -2.614721369018E+04 DETOT -1.79E-01 tst  1.02E-03 PX  8.14E-02
 TTTTTTTTTTTTTTTTTTTTTTTTTTTTTT DIIS        TELAPSE      309.00 TCPU      271.75
 DIIS TEST: 0.36285E+00 AT SCF   CYCLE   6 - DIIS ACTIVE - HISTORY:     6 CYCLES
 TTTTTTTTTTTTTTTTTTTTTTTTTTTTTT FDIK        TELAPSE      318.03 TCPU      276.25
 INSULATING STATE
 TOP OF VALENCE BANDS -    BAND    316; K    2; EIG -1.3500347E-01 AU
 TOP OF VALENCE BANDS -    BAND    316; K    1; EIG -1.3582754E-01 AU
 BOTTOM OF VIRTUAL BANDS - BAND    317; K    1; EIG -1.0022122E-01 AU
 INDIRECT ENERGY BAND GAP:   0.9465 eV
 TTTTTTTTTTTTTTTTTTTTTTTTTTTTTT PDIG        TELAPSE      318.68 TCPU      276.90
 CHARGE NORMALIZATION FACTOR   1.00000000
 TOTAL ATOMIC CHARGES:
   1.2552231   1.2552231   1.2552231   1.2552231   1.3298381   1.3298381
   1.3298381   1.3298381  34.8276230  34.8276230  34.8276230  34.8276230
  34.4091725  34.4091725  34.4091725  34.4091725   6.0640940   6.0640940
   6.0640940   6.0640940   5.7940842   5.7940842   5.7940842   5.7940842
   6.1238703   6.1238703   6.1238703   6.1238703   6.1744730   6.1744730
   6.1744730   6.1744730   6.0086111   6.0086111   6.0086111   6.0086111
   6.0905312   6.0905312   6.0905312   6.0905312   7.1562844   7.1562844
   7.1562844   7.1562844   7.0799649   7.0799649   7.0799649   7.0799649
   7.0569052   7.0569052   7.0569052   7.0569052   7.0272436   7.0272436
   7.0272436   7.0272436   7.1468315   7.1468315   7.1468315   7.1468315
  28.9019137  28.9190864
 TTTTTTTTTTTTTTTTTTTTTTTTTTTTTT MOQGAD      TELAPSE      318.70 TCPU      276.92
 TTTTTTTTTTTTTTTTTTTTTTTTTTTTTT SHELLXN     TELAPSE      347.61 TCPU      303.41
 TTTTTTTTTTTTTTTTTTTTTTTTTTTTTT MONMO3      TELAPSE      352.38 TCPU      308.17
 NUMERICALLY INTEGRATED DENSITY    632.0000581854
 TTTTTTTTTTTTTTTTTTTTTTTTTTTTTT NUMDFT      TELAPSE      354.12 TCPU      309.90
 CYC   7 ETOT(AU) -2.614724961985E+04 DETOT -3.59E-02 tst  2.41E-04 PX  4.80E-02
[...]
  45 N    1     2.9145     5.5076   36 C    1 0 0

  49 N    1     1.3701     2.5891   21 C    0 0 1
  49 N    1     1.3898     2.6264   53 N   -1 0 0
  49 N    1     2.2168     4.1891   45 N   -1 0 0
  49 N    1     2.2176     4.1906   62 ZN  -1-1 0
  49 N    1     2.2409     4.2346   41 N   -1 0 0
  49 N    1     2.5413     4.8024   17 C    0 0 1

  53 N    1     1.3199     2.4943   45 N    0 0 0
  53 N    1     1.3898     2.6264   49 N    1 0 0
  53 N    1     2.1906     4.1396   21 C    1 0 1
  53 N    1     2.2020     4.1612   41 N    0 0 0
  53 N    1     2.7554     5.2069    3 H    0-1 0
  53 N    1     2.8483     5.3825   27 C    0 0 0

  57 N    1     1.3270     2.5077   29 C    0 0 0
  57 N    1     1.3394     2.5312   33 C    0 0 0
  57 N    1     2.0627     3.8979    5 H    0 0 0
  57 N    1     2.3792     4.4960   38 C    0 0 0
  57 N    1     2.4136     4.5610   17 C    0 0 0
  57 N    1     2.7964     5.2844   25 C    0 0 0

  61 ZN   4     2.1937     4.1454   41 N   -1-1 0   42 N    0-1 1   43 N    0-1 0
                                    44 N    0 0 1
  61 ZN   4     2.5441     4.8076    5 H    0-1 1    6 H   -1-1 0    7 H    0 0 1
                                     8 H    0-1 0
  61 ZN   4     3.1545     5.9612   33 C    0-1 1   34 C   -1-1 0   35 C    0 0 1
                                    36 C    0-1 0
  61 ZN   4     3.1583     5.9683   45 N   -1-1 0   46 N    0-1 1   47 N    0-1 0
                                    48 N    0 0 1
  61 ZN   4     3.2455     6.1331   21 C    0-1 1   22 C   -1-1 0   23 C    0 0 1
                                    24 C    0-1 0
  61 ZN   4     3.5631     6.7332   17 C    0-1 1   18 C   -1-1 0   19 C    0 0 1
                                    20 C    0-1 0

  62 ZN   4     2.2176     4.1906   49 N    1 1 0   50 N    1 1 0   51 N    0 0 0
                                    52 N    0 0 0
  62 ZN   4     3.0168     5.7010   53 N    0 1 0   54 N    1 0 0   55 N    0 0-1
                                    56 N    1 1 1
  62 ZN   4     3.1579     5.9675    1 H    1 1 0    2 H    1 1 0    3 H    0 0 0
                                     4 H    0 0 0
  62 ZN   4     3.4135     6.4505   21 C    1 1 1   22 C    0 0-1   23 C    0 1 0
                                    24 C    1 0 0
  62 ZN   4     3.9054     7.3800   25 C    1 1 1   26 C    0 0-1   27 C    0 1 0
                                    28 C    1 0 0
  62 ZN   4     4.0635     7.6790   17 C    1 1 1   18 C    0 0-1   19 C    0 1 0
                                    20 C    1 0 0


 FINAL OPTIMIZED GEOMETRY - DIMENSIONALITY OF THE SYSTEM      3
 (NON PERIODIC DIRECTION: LATTICE PARAMETER FORMALLY SET TO 500)
 *******************************************************************************
 LATTICE PARAMETERS (ANGSTROMS AND DEGREES) - BOHR = 0.5291772083 ANGSTROM
 PRIMITIVE CELL - CENTRING CODE 6/0 VOLUME=   817.700769 - DENSITY  2.712 g/cm^3
         A              B              C           ALPHA      BETA       GAMMA 
    10.20329045    10.20329045    10.20329045   109.577252 109.577252 109.259366
 *******************************************************************************
 ATOMS IN THE ASYMMETRIC UNIT   17 - ATOMS IN THE UNIT CELL:   62
     ATOM                 X/A                 Y/B                 Z/C    
 *******************************************************************************
      1 T   1 H    -1.648487782442E-01 -2.699980384941E-01  3.207953443383E-01
      2 F   1 H     4.092066171676E-01 -4.856441225825E-01 -3.207953443383E-01
      3 F   1 H     2.699980384941E-01 -4.092066171676E-01  1.051492602499E-01
      4 F   1 H     4.856441225825E-01  1.648487782442E-01 -1.051492602499E-01
      5 T   1 H    -2.612530210451E-01  6.243334418407E-02 -3.858063698321E-01
      6 F   1 H     4.482397140162E-01  1.245533487870E-01  3.858063698321E-01
      7 F   1 H    -6.243334418407E-02 -4.482397140162E-01 -3.236863652292E-01
      8 F   1 H    -1.245533487870E-01  2.612530210451E-01  3.236863652292E-01
      9 T  35 BR    8.981408238216E-02 -2.622199348633E-01 -4.221609347342E-01
     10 F  35 BR    1.599409998709E-01 -4.880249828836E-01  4.221609347342E-01
     11 F  35 BR    2.622199348633E-01 -1.599409998709E-01  3.520340172455E-01
     12 F  35 BR    4.880249828836E-01 -8.981408238216E-02 -3.520340172455E-01
     13 T  35 BR    1.988416206449E-01  2.627748183189E-02 -8.612858394891E-02
     14 F  35 BR    1.124060657808E-01  2.849702045938E-01  8.612858394891E-02
     15 F  35 BR   -2.627748183189E-02 -1.124060657808E-01  1.725641388130E-01
     16 F  35 BR   -2.849702045938E-01 -1.988416206449E-01 -1.725641388130E-01
     17 T   6 C    -2.286900815150E-01 -1.045565269233E-01  4.454853302299E-01
     18 F   6 C     4.499581428467E-01  3.258245882550E-01 -4.454853302299E-01
     19 F   6 C     1.045565269233E-01 -4.499581428467E-01 -1.241335545917E-01
     20 F   6 C    -3.258245882550E-01  2.286900815150E-01  1.241335545917E-01
     21 T   6 C    -3.460858539625E-01 -1.222631919862E-01  3.031814241777E-01
     22 F   6 C    -4.254446161639E-01  3.507327218598E-01 -3.031814241777E-01
     23 F   6 C     1.222631919862E-01  4.254446161639E-01 -2.238226619763E-01
     24 F   6 C    -3.507327218598E-01  3.460858539625E-01  2.238226619763E-01
     25 T   6 C    -1.419382527350E-01 -1.851645784751E-01  4.361298797279E-01
     26 F   6 C     3.787055417969E-01  4.219318675371E-01 -4.361298797279E-01
     27 F   6 C     1.851645784751E-01 -3.787055417969E-01  4.322632574013E-02
     28 F   6 C    -4.219318675371E-01  1.419382527350E-01 -4.322632574013E-02
     29 T   6 C     1.856695782884E-02 -2.927929072381E-02 -2.739132923335E-01
     30 F   6 C     2.446340016097E-01  2.924802501623E-01  2.739132923335E-01
     31 F   6 C     2.927929072381E-02 -2.446340016097E-01  4.784624855265E-02
     32 F   6 C    -2.924802501623E-01 -1.856695782884E-02 -4.784624855265E-02
     33 T   6 C    -1.902821106294E-01  4.567268568549E-03 -4.010340842235E-01
     34 F   6 C     4.056013527921E-01  2.107519735941E-01  4.010340842235E-01
     35 F   6 C    -4.567268568549E-03 -4.056013527921E-01 -1.948493791980E-01
     36 F   6 C    -2.107519735941E-01  1.902821106294E-01  1.948493791980E-01
     37 T   6 C     2.710583290728E-01  3.997659538014E-01  4.214054574165E-01
     38 F   6 C    -2.163950361512E-02 -1.503471283438E-01 -4.214054574165E-01
     39 F   6 C    -3.997659538014E-01  2.163950361512E-02 -1.287076247287E-01
     40 F   6 C     1.503471283438E-01 -2.710583290728E-01  1.287076247287E-01
     41 T   7 N    -3.786653253154E-01 -1.698912527286E-03  3.099034819115E-01
     42 F   7 N    -3.116023944388E-01  3.114311927731E-01 -3.099034819115E-01
     43 F   7 N     1.698912527286E-03  3.116023944388E-01 -3.769664127881E-01
     44 F   7 N    -3.114311927731E-01  3.786653253154E-01  3.769664127881E-01
     45 T   7 N    -4.922659248799E-01 -5.608294286041E-02  1.546667295775E-01
     46 F   7 N    -2.107496724379E-01  3.530673455426E-01 -1.546667295775E-01
     47 F   7 N     5.608294286041E-02  2.107496724379E-01 -4.361829820195E-01
     48 F   7 N    -3.530673455426E-01  4.922659248799E-01  4.361829820195E-01
     49 T   7 N    -4.334437120028E-01 -2.479460622478E-01  1.484755483913E-01
     50 F   7 N    -3.964216106391E-01  4.180807396059E-01 -1.484755483913E-01
     51 F   7 N     2.479460622478E-01  3.964216106391E-01 -1.854976497551E-01
     52 F   7 N    -4.180807396059E-01  4.334437120028E-01  1.854976497551E-01
     53 T   7 N     4.771375427666E-01 -2.002265363464E-01  5.925694588415E-02
     54 F   7 N    -2.594834822305E-01  4.178805968824E-01 -5.925694588415E-02
     55 F   7 N     2.002265363464E-01  2.594834822305E-01 -3.226359208871E-01
     56 F   7 N    -4.178805968824E-01 -4.771375427666E-01  3.226359208871E-01
     57 T   7 N    -6.685107431372E-02  4.384923634512E-02 -2.651109779914E-01
     58 F   7 N     3.089602143366E-01  1.982599036777E-01  2.651109779914E-01
     59 F   7 N    -4.384923634512E-02 -3.089602143366E-01 -1.107003106588E-01
     60 F   7 N    -1.982599036777E-01  6.685107431373E-02  1.107003106588E-01
     61 T  30 ZN   -2.500000000000E-01  2.500000000000E-01  5.000000000000E-01
     62 T  30 ZN   -5.000000000000E-01 -5.000000000000E-01 -5.519797489473E-19

 TRANSFORMATION MATRIX PRIMITIVE-CRYSTALLOGRAPHIC CELL
  0.0000  1.0000  1.0000  1.0000  0.0000  1.0000  1.0000  1.0000  0.0000

 *******************************************************************************
 CRYSTALLOGRAPHIC CELL (VOLUME=       1635.40153877)
         A              B              C           ALPHA      BETA       GAMMA 
    11.76632273    11.76632273    11.81252906    90.000000  90.000000  90.000000

 COORDINATES IN THE CRYSTALLOGRAPHIC CELL
     ATOM                 X/A                 Y/B                 Z/C    
 *******************************************************************************
      1 T   1 H     1.078230420442E-01  2.129723022941E-01 -3.778210805383E-01
      2 F   1 H    -1.078230420442E-01 -2.129723022941E-01 -3.778210805383E-01
      3 F   1 H     2.129723022941E-01 -1.078230420442E-01  3.778210805383E-01
      4 F   1 H    -2.129723022941E-01  1.078230420442E-01  3.778210805383E-01
      5 T   1 H    -3.106000230144E-02 -3.547463675306E-01  9.349334648552E-02
      6 F   1 H     3.106000230144E-02  3.547463675306E-01  9.349334648552E-02
      7 F   1 H    -3.547463675306E-01  3.106000230144E-02 -9.349334648552E-02
      8 F   1 H     3.547463675306E-01 -3.106000230144E-02 -9.349334648552E-02
      9 T  35 BR   -3.870974759898E-01 -3.506345874437E-02  1.248775411265E-01
     10 F  35 BR    3.870974759898E-01  3.506345874437E-02  1.248775411265E-01
     11 F  35 BR   -3.506345874437E-02  3.870974759898E-01 -1.248775411265E-01
     12 F  35 BR    3.506345874437E-02 -3.870974759898E-01 -1.248775411265E-01
     13 T  35 BR   -1.293463613810E-01  4.321777743206E-02  1.556238432129E-01
     14 F  35 BR    1.293463613810E-01 -4.321777743206E-02  1.556238432129E-01
     15 F  35 BR    4.321777743206E-02  1.293463613810E-01 -1.556238432129E-01
     16 F  35 BR   -4.321777743206E-02 -1.293463613810E-01 -1.556238432129E-01
     17 T   6 C    -2.151905575892E-01 -3.393241121809E-01  1.106340306658E-01
     18 F   6 C     2.151905575892E-01  3.393241121809E-01  1.106340306658E-01
     19 F   6 C    -3.393241121809E-01  2.151905575892E-01 -1.106340306658E-01
     20 F   6 C     3.393241121809E-01 -2.151905575892E-01 -1.106340306658E-01
     21 T   6 C    -2.364979569230E-01 -4.603206188993E-01  1.142347649368E-01
     22 F   6 C     2.364979569230E-01  4.603206188993E-01  1.142347649368E-01
     23 F   6 C    -4.603206188993E-01  2.364979569230E-01 -1.142347649368E-01
     24 F   6 C     4.603206188993E-01 -2.364979569230E-01 -1.142347649368E-01
     25 T   6 C    -3.035482230061E-01 -2.603218972660E-01  1.183836445310E-01
     26 F   6 C     3.035482230061E-01  2.603218972660E-01  1.183836445310E-01
     27 F   6 C    -2.603218972660E-01  3.035482230061E-01 -1.183836445310E-01
     28 F   6 C     2.603218972660E-01 -3.035482230061E-01 -1.183836445310E-01
     29 T   6 C    -1.608797704431E-01 -1.130335218904E-01  1.316004797193E-01
     30 F   6 C     1.608797704431E-01  1.130335218904E-01  1.316004797193E-01
     31 F   6 C    -1.130335218904E-01  1.608797704431E-01 -1.316004797193E-01
     32 F   6 C     1.130335218904E-01 -1.608797704431E-01 -1.316004797193E-01
     33 T   6 C    -1.030923525128E-01 -2.979417317107E-01  1.076596210813E-01
     34 F   6 C     1.030923525128E-01  2.979417317107E-01  1.076596210813E-01
     35 F   6 C    -2.979417317107E-01  1.030923525128E-01 -1.076596210813E-01
     36 F   6 C     2.979417317107E-01 -1.030923525128E-01 -1.076596210813E-01
     37 T   6 C     2.750565410726E-01  1.463489163439E-01  1.247094127288E-01
     38 F   6 C    -2.750565410726E-01 -1.463489163439E-01  1.247094127288E-01
     39 F   6 C     1.463489163439E-01 -2.750565410726E-01 -1.247094127288E-01
     40 F   6 C    -1.463489163439E-01  2.750565410726E-01 -1.247094127288E-01
     41 T   7 N    -1.565650526502E-01  4.664685345617E-01  1.548661401229E-01
     42 F   7 N     1.565650526502E-01 -4.664685345617E-01  1.548661401229E-01
     43 F   7 N     4.664685345617E-01  1.565650526502E-01 -1.548661401229E-01
     44 F   7 N    -4.664685345617E-01 -1.565650526502E-01 -1.548661401229E-01
     45 T   7 N    -2.045751442015E-01  3.592418737790E-01  1.484922013411E-01
     46 F   7 N     2.045751442015E-01 -3.592418737790E-01  1.484922013411E-01
     47 F   7 N     3.592418737790E-01  2.045751442015E-01 -1.484922013411E-01
     48 F   7 N    -3.592418737790E-01 -2.045751442015E-01 -1.484922013411E-01
     49 T   7 N     1.669865990732E-01 -1.851105068188E-02 -4.149326613210E-01
     50 F   7 N    -1.669865990732E-01  1.851105068188E-02 -4.149326613210E-01
     51 F   7 N    -1.851105068188E-02 -1.669865990732E-01  4.149326613210E-01
     52 F   7 N     1.851105068188E-02  1.669865990732E-01  4.149326613210E-01
     53 T   7 N    -3.090535666144E-01  3.683105124985E-01  1.088270302680E-01
     54 F   7 N     3.090535666144E-01 -3.683105124985E-01  1.088270302680E-01
     55 F   7 N     3.683105124985E-01  3.090535666144E-01 -1.088270302680E-01
     56 F   7 N    -3.683105124985E-01 -3.090535666144E-01 -1.088270302680E-01
     57 T   7 N    -7.720533366630E-02 -1.879056443251E-01  1.210545700114E-01
     58 F   7 N     7.720533366630E-02  1.879056443251E-01  1.210545700114E-01
     59 F   7 N    -1.879056443251E-01  7.720533366630E-02 -1.210545700114E-01
     60 F   7 N     1.879056443251E-01 -7.720533366630E-02 -1.210545700114E-01
     61 T  30 ZN    4.626932236752E-17  5.000000000000E-01  2.500000000000E-01
     62 T  30 ZN    0.000000000000E+00 -5.519797489473E-19 -5.000000000000E-01

 T = ATOM BELONGING TO THE ASYMMETRIC UNIT
 INFORMATION **** fort.34 **** GEOMETRY OUTPUT FILE

 DIRECT LATTICE VECTORS CARTESIAN COMPONENTS (ANGSTROM)
          X                    Y                    Z
  -0.588316136373E+01   0.588316136373E+01   0.590626452973E+01
   0.588316136373E+01  -0.588316136373E+01   0.590626452973E+01
   0.588316136373E+01   0.588316136373E+01  -0.590626452973E+01


 CARTESIAN COORDINATES - PRIMITIVE CELL
 *******************************************************************************
 *      ATOM          X(ANGSTROM)         Y(ANGSTROM)         Z(ANGSTROM)
 *******************************************************************************
    1     1 H     1.268680710148E+00  2.505900840803E+00 -4.463022493136E+00
    2     1 H    -1.268680710148E+00 -2.505900840803E+00 -4.463022493136E+00
    3     1 H     2.505900840803E+00 -1.268680710148E+00  4.463022493136E+00
    4     1 H    -2.505900840803E+00  1.268680710148E+00  4.463022493136E+00
    5     1 H    -3.654620109944E-01 -4.174060246759E+00  1.104392872227E+00
    6     1 H     3.654620109944E-01  4.174060246759E+00  1.104392872227E+00
    7     1 H    -4.174060246759E+00  3.654620109944E-01 -1.104392872227E+00
    8     1 H     4.174060246759E+00 -3.654620109944E-01 -1.104392872227E+00
    9    35 BR   -4.554713829481E+00 -4.125679715272E-01  1.475119583432E+00
   10    35 BR    4.554713829481E+00  4.125679715272E-01  1.475119583432E+00
   11    35 BR   -4.125679715272E-01  4.554713829481E+00 -1.475119583432E+00
   12    35 BR    4.125679715272E-01 -4.554713829481E+00 -1.475119583432E+00
   13    35 BR   -1.521931031631E+00  5.085143168291E-01  1.838311170297E+00
   14    35 BR    1.521931031631E+00 -5.085143168291E-01  1.838311170297E+00
   15    35 BR    5.085143168291E-01  1.521931031631E+00 -1.838311170297E+00
   16    35 BR   -5.085143168291E-01 -1.521931031631E+00 -1.838311170297E+00
   17     6 C    -2.532001548496E+00 -3.992597013129E+00  1.306867702206E+00
   18     6 C     2.532001548496E+00  3.992597013129E+00  1.306867702206E+00
   19     6 C    -3.992597013129E+00  2.532001548496E+00 -1.306867702206E+00
   20     6 C     3.992597013129E+00 -2.532001548496E+00 -1.306867702206E+00
   21     6 C    -2.782711285541E+00 -5.416280960073E+00  1.349401480417E+00
   22     6 C     2.782711285541E+00  5.416280960073E+00  1.349401480417E+00
   23     6 C    -5.416280960073E+00  2.782711285541E+00 -1.349401480417E+00
   24     6 C     5.416280960073E+00 -2.782711285541E+00 -1.349401480417E+00
   25     6 C    -3.571646355237E+00 -3.063031456256E+00  1.398410241187E+00
   26     6 C     3.571646355237E+00  3.063031456256E+00  1.398410241187E+00
   27     6 C    -3.063031456256E+00  3.571646355237E+00 -1.398410241187E+00
   28     6 C     3.063031456256E+00 -3.571646355237E+00 -1.398410241187E+00
   29     6 C    -1.892963299353E+00 -1.329988897584E+00  1.554534490923E+00
   30     6 C     1.892963299353E+00  1.329988897584E+00  1.554534490923E+00
   31     6 C    -1.329988897584E+00  1.892963299353E+00 -1.554534490923E+00
   32     6 C     1.329988897584E+00 -1.892963299353E+00 -1.554534490923E+00
   33     6 C    -1.213017890398E+00 -3.505678569287E+00  1.271732402554E+00
   34     6 C     1.213017890398E+00  3.505678569287E+00  1.271732402554E+00
   35     6 C    -3.505678569287E+00  1.213017890398E+00 -1.271732402554E+00
   36     6 C     3.505678569287E+00 -1.213017890398E+00 -1.271732402554E+00
   37     6 C     3.236404030559E+00  1.721988580517E+00  1.473133561848E+00
   38     6 C    -3.236404030559E+00 -1.721988580517E+00  1.473133561848E+00
   39     6 C     1.721988580517E+00 -3.236404030559E+00 -1.473133561848E+00
   40     6 C    -1.721988580517E+00  3.236404030559E+00 -1.473133561848E+00
   41     7 N    -1.842194937324E+00  5.488619319858E+00  1.829360780529E+00
   42     7 N     1.842194937324E+00 -5.488619319858E+00  1.829360780529E+00
   43     7 N     5.488619319858E+00  1.842194937324E+00 -1.829360780529E+00
   44     7 N    -5.488619319858E+00 -1.842194937324E+00 -1.829360780529E+00
   45     7 N    -2.407097168691E+00  4.226955824101E+00  1.754068443445E+00
   46     7 N     2.407097168691E+00 -4.226955824101E+00  1.754068443445E+00
   47     7 N     4.226955824101E+00  2.407097168691E+00 -1.754068443445E+00
   48     7 N    -4.226955824101E+00 -2.407097168691E+00 -1.754068443445E+00
   49     7 N     1.964818215856E+00 -2.178069963474E-01 -4.901404119574E+00
   50     7 N    -1.964818215856E+00  2.178069963474E-01 -4.901404119574E+00
   51     7 N    -2.178069963474E-01 -1.964818215856E+00  4.901404119574E+00
   52     7 N     2.178069963474E-01  1.964818215856E+00  4.901404119574E+00
   53     7 N    -3.636424004857E+00  4.333660353974E+00  1.285522457496E+00
   54     7 N     3.636424004857E+00 -4.333660353974E+00  1.285522457496E+00
   55     7 N     4.333660353974E+00  3.636424004857E+00 -1.285522457496E+00
   56     7 N    -4.333660353974E+00 -3.636424004857E+00 -1.285522457496E+00
   57     7 N    -9.084228721989E-01 -2.210958453441E+00  1.429960626041E+00
   58     7 N     9.084228721989E-01  2.210958453441E+00  1.429960626041E+00
   59     7 N    -2.210958453441E+00  9.084228721989E-01 -1.429960626041E+00
   60     7 N     2.210958453441E+00 -9.084228721989E-01 -1.429960626041E+00
   61    30 ZN    5.444197793570E-16  5.883161363730E+00 -8.859396794598E+00
   62    30 ZN    0.000000000000E+00 -6.494771865136E-18  5.906264529732E+00

 ****    4 SYMMOPS - TRANSLATORS IN FRACTIONAL UNITS
 **** MATRICES AND TRANSLATORS IN THE CRYSTALLOGRAPHIC REFERENCE FRAME
   V INV                    ROTATION MATRICES                   TRANSLATORS
   1   1  1.00  0.00  0.00  0.00  1.00  0.00  0.00  0.00  1.00  0.00  0.00  0.00
   2   2 -0.00  1.00 -1.00  1.00  0.00 -1.00 -0.00  0.00 -1.00  0.00  0.00  0.00
   3   4  0.00 -1.00  0.00  0.00 -1.00  1.00  1.00 -1.00  0.00  0.00  0.00  0.00
   4   3 -1.00  0.00  1.00 -1.00  0.00 -0.00 -1.00  1.00 -0.00  0.00  0.00  0.00
 TTTTTTTTTTTTTTTTTTTTTTTTTTTTTT END         TELAPSE    48548.77 TCPU    44658.45
 EEEEEEEEEE TERMINATION  DATE 21 02 2024 TIME 05:52:29.6
NODE    0 CPU TIME =     44658.451
    TOTAL CPU TIME =   2880234.544
