Loading crystal17/1.0.2/intel/19.0
  Loading requirement: intel/19.0 ompi/4.0.1/intel/19.0
          64 PROCESSORS WORKING

         
 *******************************************************************************
 *                                                                             *
 *                               CRYSTAL17                                     *
 *                      public : 1.0.2 - March 1st, 2018                       *
 *                       HTTP://WWW.CRYSTAL.UNITO.IT                           *
 *                                                                             *
 *                              MAIN AUTHORS                                   *
 *                                                                             *
 *  R. DOVESI(1,11), V.R. SAUNDERS(2), C. ROETTI(1,11), R. ORLANDO(1,11),      *
 *  C.M. ZICOVICH-WILSON(1,3), F. PASCALE(4), B. CIVALLERI(1,11),              *
 *  K. DOLL(5), N.M. HARRISON(2,6), I.J. BUSH(7), Ph. D'ARCO(8),               *
 *  M. LLUNELL(9), M. CAUSA'(10), Y. NOEL(8), L. MASCHIO(1,11), A. ERBA(1,11)  *
 *  M. RE'RAT(14), S. CASASSA(1,11)                                            *
 *                                                                             *
 *        CONTRIBUTIONS TO THE CODE HAVE ALSO BEEN GIVEN BY                    *
 *                                                                             *
 *  M. FERRABONE(1,11), M. DE LA PIERRE(1,11), M. FERRERO(1,11),               *
 *  J. BAIMA(1,11), E. ALBANESE(1,11), M.F. PEINTINGER(12), R. BAST(13),       *
 *  B. KIRTMAN(15), V. LACIVITA(1,11), R. DEMICHELIS(1,16)                     *
 *  G. BRANDEBURG(17), S. SALUSTRO(1,11), G. SANSONE(1,11)                     *
 *  M.T. RUGGIERO(18)                                                          *
 *                                                                             *
 * (1) THEORETICAL CHEMISTRY GROUP - UNIVERSITA' DI TORINO - TORINO (ITALY)    *
 * (2) COMPUTATIONAL SCIENCE & ENGINEERING DEPARTMENT - STFC DARESBURY (UK)    *
 * (3) UNIVERSIDAD AUTONOMA DEL ESTADO DE MORELOS - CUERNAVACA (MEXICO)        *
 * (4) UNIVERSITE' DE LORRAINE - NANCY (FRANCE)                                *
 * (5) UNIVERSITAET STUTTGART- STUTTGART (GERMANY)                             *
 * (6) IMPERIAL COLLEGE - LONDON (UK)                                          *
 * (7) OXFORD E-RESEARCH CENTRE - OXFORD (UK)                                  *
 * (8) UPMC - SORBONNE UNIVERSITES - PARIS (FRANCE)                            *
 * (9) UNIVERSIDAD DE BARCELONA - BARCELONA (SPAIN)                            *
 *(10) UNIVERSITA' DI NAPOLI "FEDERICO II" - NAPOLI (ITALY)                    *
 *(11) NIS - NANOSTRUCTURED INTERFACES AND SURFACES - TORINO (ITALY)           *
 *(12) MPI FUER CHEMISCHE ENERGIEKONVERSION - MUELHEIM AN DER RUHR (GERMANY)   *
 *(13) UNIVERSITY OF TROMSO - TROMSO (NORWAY)                                  *
 *(14) UNIVERSITE' DE PAU ET DES PAYS DE L'ADOUR - PAU (FRANCE)                *
 *(15) UNIVERSITY OF CALIFORNIA SANTA BARBARA - SANTA BARBARA (USA)            *
 *(16) CURTIN UNIVERSITY - PERTH (AUSTRALIA)                                   *
 *(17) UNIVERSITY COLLEGE LONDON - LONDON (UK)                                 *
 *(18) CAMBRIDGE UNIVERSITY - CAMBRIDGE (UK)                                   *
 *                                                                             *
 *******************************************************************************
 EEEEEEEEEE STARTING  DATE 06 03 2024 TIME 10:16:09.4
 C:\Users\wilso\AppData\Local\Temp\tmp_p\newconn.mol                             

 CRYSTAL CALCULATION
 (INPUT ACCORDING TO THE INTERNATIONAL TABLES FOR X-RAY CRYSTALLOGRAPHY)
 CRYSTAL FAMILY                       :  TETRAGONAL  
 CRYSTAL CLASS  (GROTH - 1921)        :  TETRAGONAL DISPHENOIDAL              

 SPACE GROUP (NONCENTROSYMMETRIC)     :  I -4            

 LATTICE PARAMETERS  (ANGSTROMS AND DEGREES) - CONVENTIONAL CELL
        A           B           C        ALPHA        BETA       GAMMA
    11.88800    11.88800    11.48800    90.00000    90.00000    90.00000


 NUMBER OF IRREDUCIBLE ATOMS IN THE CONVENTIONAL CELL:  124

 INPUT COORDINATES

 ATOM AT. N.              COORDINATES
   1   1     1.249300000000E-01  7.793700000000E-01  3.000600000000E-01
   2   1     8.750700000000E-01  2.206300000000E-01  3.000600000000E-01
   3   1     7.793700000000E-01  8.750700000000E-01  6.999400000000E-01
   4   1     2.206300000000E-01  1.249300000000E-01  6.999400000000E-01
   5   1     6.249300000000E-01  2.793700000000E-01  8.000600000000E-01
   6   1     3.750700000000E-01  7.206300000000E-01  8.000600000000E-01
   7   1     2.793700000000E-01  3.750700000000E-01  1.999400000000E-01
   8   1     7.206300000000E-01  6.249300000000E-01  1.999400000000E-01
   9   6     2.782500000000E-01  8.221100000000E-01  3.895900000000E-01
  10   6     2.575700000000E-01  9.431700000000E-01  3.865900000000E-01
  11   6     2.043900000000E-01  7.483800000000E-01  3.333700000000E-01
  12   6     3.400500000000E-01  6.011400000000E-01  3.535600000000E-01
  13   6     3.822500000000E-01  7.765800000000E-01  4.239500000000E-01
  14   6     7.618500000000E-01  3.603100000000E-01  3.065100000000E-01
  15   6     7.217500000000E-01  1.778900000000E-01  3.895900000000E-01
  16   6     7.424300000000E-01  5.683000000000E-02  3.865900000000E-01
  17   6     7.956100000000E-01  2.516200000000E-01  3.333700000000E-01
  18   6     6.599500000000E-01  3.988600000000E-01  3.535600000000E-01
  19   6     6.177500000000E-01  2.234200000000E-01  4.239500000000E-01
  20   6     2.381500000000E-01  6.396900000000E-01  3.065100000000E-01
  21   6     8.221100000000E-01  7.217500000000E-01  6.104100000000E-01
  22   6     9.431700000000E-01  7.424300000000E-01  6.134100000000E-01
  23   6     7.483800000000E-01  7.956100000000E-01  6.666300000000E-01
  24   6     6.011400000000E-01  6.599500000000E-01  6.464400000000E-01
  25   6     7.765800000000E-01  6.177500000000E-01  5.760500000000E-01
  26   6     3.603100000000E-01  2.381500000000E-01  6.934900000000E-01
  27   6     1.778900000000E-01  2.782500000000E-01  6.104100000000E-01
  28   6     5.683000000000E-02  2.575700000000E-01  6.134100000000E-01
  29   6     2.516200000000E-01  2.043900000000E-01  6.666300000000E-01
  30   6     3.988600000000E-01  3.400500000000E-01  6.464400000000E-01
  31   6     2.234200000000E-01  3.822500000000E-01  5.760500000000E-01
  32   6     6.396900000000E-01  7.618500000000E-01  6.934900000000E-01
  33   6     7.782500000000E-01  3.221100000000E-01  8.895900000000E-01
  34   6     7.575700000000E-01  4.431700000000E-01  8.865900000000E-01
  35   6     7.043900000000E-01  2.483800000000E-01  8.333700000000E-01
  36   6     8.400500000000E-01  1.011400000000E-01  8.535600000000E-01
  37   6     8.822500000000E-01  2.765800000000E-01  9.239500000000E-01
  38   6     2.618500000000E-01  8.603100000000E-01  8.065100000000E-01
  39   6     2.217500000000E-01  6.778900000000E-01  8.895900000000E-01
  40   6     2.424300000000E-01  5.568300000000E-01  8.865900000000E-01
  41   6     2.956100000000E-01  7.516200000000E-01  8.333700000000E-01
  42   6     1.599500000000E-01  8.988600000000E-01  8.535600000000E-01
  43   6     1.177500000000E-01  7.234200000000E-01  9.239500000000E-01
  44   6     7.381500000000E-01  1.396900000000E-01  8.065100000000E-01
  45   6     3.221100000000E-01  2.217500000000E-01  1.104100000000E-01
  46   6     4.431700000000E-01  2.424300000000E-01  1.134100000000E-01
  47   6     2.483800000000E-01  2.956100000000E-01  1.666300000000E-01
  48   6     1.011400000000E-01  1.599500000000E-01  1.464400000000E-01
  49   6     2.765800000000E-01  1.177500000000E-01  7.605000000000E-02
  50   6     8.603100000000E-01  7.381500000000E-01  1.934900000000E-01
  51   6     6.778900000000E-01  7.782500000000E-01  1.104100000000E-01
  52   6     5.568300000000E-01  7.575700000000E-01  1.134100000000E-01
  53   6     7.516200000000E-01  7.043900000000E-01  1.666300000000E-01
  54   6     8.988600000000E-01  8.400500000000E-01  1.464400000000E-01
  55   6     7.234200000000E-01  8.822500000000E-01  7.605000000000E-02
  56   6     1.396900000000E-01  2.618500000000E-01  1.934900000000E-01
  57   7     3.350300000000E-01  1.395000000000E-02  3.382400000000E-01
  58   7     2.905900000000E-01  1.203500000000E-01  3.476100000000E-01
  59   7     1.652800000000E-01  3.020000000000E-03  4.213500000000E-01
  60   7     1.901300000000E-01  1.140100000000E-01  3.960700000000E-01
  61   7     4.091600000000E-01  6.692100000000E-01  4.100100000000E-01
  62   7     6.649700000000E-01  9.860500000000E-01  3.382400000000E-01
  63   7     7.094100000000E-01  8.796500000000E-01  3.476100000000E-01
  64   7     8.347200000000E-01  9.969800000000E-01  4.213500000000E-01
  65   7     8.098700000000E-01  8.859900000000E-01  3.960700000000E-01
  66   7     5.908400000000E-01  3.307900000000E-01  4.100100000000E-01
  67   7     1.395000000000E-02  6.649700000000E-01  6.617600000000E-01
  68   7     1.203500000000E-01  7.094100000000E-01  6.523900000000E-01
  69   7     3.020000000000E-03  8.347200000000E-01  5.786500000000E-01
  70   7     1.140100000000E-01  8.098700000000E-01  6.039300000000E-01
  71   7     6.692100000000E-01  5.908400000000E-01  5.899900000000E-01
  72   7     9.860500000000E-01  3.350300000000E-01  6.617600000000E-01
  73   7     8.796500000000E-01  2.905900000000E-01  6.523900000000E-01
  74   7     9.969800000000E-01  1.652800000000E-01  5.786500000000E-01
  75   7     8.859900000000E-01  1.901300000000E-01  6.039300000000E-01
  76   7     3.307900000000E-01  4.091600000000E-01  5.899900000000E-01
  77   7     8.350300000000E-01  5.139500000000E-01  8.382400000000E-01
  78   7     7.905900000000E-01  6.203500000000E-01  8.476100000000E-01
  79   7     6.652800000000E-01  5.030200000000E-01  9.213500000000E-01
  80   7     6.901300000000E-01  6.140100000000E-01  8.960700000000E-01
  81   7     9.091600000000E-01  1.692100000000E-01  9.100100000000E-01
  82   7     1.649700000000E-01  4.860500000000E-01  8.382400000000E-01
  83   7     2.094100000000E-01  3.796500000000E-01  8.476100000000E-01
  84   7     3.347200000000E-01  4.969800000000E-01  9.213500000000E-01
  85   7     3.098700000000E-01  3.859900000000E-01  8.960700000000E-01
  86   7     9.084000000000E-02  8.307900000000E-01  9.100100000000E-01
  87   7     5.139500000000E-01  1.649700000000E-01  1.617600000000E-01
  88   7     6.203500000000E-01  2.094100000000E-01  1.523900000000E-01
  89   7     5.030200000000E-01  3.347200000000E-01  7.865000000000E-02
  90   7     6.140100000000E-01  3.098700000000E-01  1.039300000000E-01
  91   7     1.692100000000E-01  9.084000000000E-02  8.999000000000E-02
  92   7     4.860500000000E-01  8.350300000000E-01  1.617600000000E-01
  93   7     3.796500000000E-01  7.905900000000E-01  1.523900000000E-01
  94   7     4.969800000000E-01  6.652800000000E-01  7.865000000000E-02
  95   7     3.859900000000E-01  6.901300000000E-01  1.039300000000E-01
  96   7     8.307900000000E-01  9.091600000000E-01  8.999000000000E-02
  97  35     4.864000000000E-01  8.613600000000E-01  4.849300000000E-01
  98  35     1.663600000000E-01  5.618800000000E-01  2.047500000000E-01
  99  35     3.779500000000E-01  4.617400000000E-01  3.383900000000E-01
 100  35     5.136000000000E-01  1.386400000000E-01  4.849300000000E-01
 101  35     8.336400000000E-01  4.381200000000E-01  2.047500000000E-01
 102  35     6.220500000000E-01  5.382600000000E-01  3.383900000000E-01
 103  35     8.613600000000E-01  5.136000000000E-01  5.150700000000E-01
 104  35     5.618800000000E-01  8.336400000000E-01  7.952500000000E-01
 105  35     4.617400000000E-01  6.220500000000E-01  6.616100000000E-01
 106  35     1.386400000000E-01  4.864000000000E-01  5.150700000000E-01
 107  35     4.381200000000E-01  1.663600000000E-01  7.952500000000E-01
 108  35     5.382600000000E-01  3.779500000000E-01  6.616100000000E-01
 109  35     9.864000000000E-01  3.613600000000E-01  9.849300000000E-01
 110  35     6.663600000000E-01  6.188000000000E-02  7.047500000000E-01
 111  35     8.779500000000E-01  9.617400000000E-01  8.383900000000E-01
 112  35     1.360000000000E-02  6.386400000000E-01  9.849300000000E-01
 113  35     3.336400000000E-01  9.381200000000E-01  7.047500000000E-01
 114  35     1.220500000000E-01  3.826000000000E-02  8.383900000000E-01
 115  35     3.613600000000E-01  1.360000000000E-02  1.507000000000E-02
 116  35     6.188000000000E-02  3.336400000000E-01  2.952500000000E-01
 117  35     9.617400000000E-01  1.220500000000E-01  1.616100000000E-01
 118  35     6.386400000000E-01  9.864000000000E-01  1.507000000000E-02
 119  35     9.381200000000E-01  6.663600000000E-01  2.952500000000E-01
 120  35     3.826000000000E-02  8.779500000000E-01  1.616100000000E-01
 121  30    -1.214882074352E-16  5.000000000000E-01  7.500000000000E-01
 122  30    -1.494233957423E-16  4.482701872268E-16  5.000000000000E-01
 123  30     5.000000000000E-01  4.482701872268E-16  2.500000000000E-01
 124  30     5.000000000000E-01  5.000000000000E-01 -1.949666756054E-17

 *******************************************************************************

 << INFORMATION >>: FROM NOW ON, ALL COORDINATES REFER TO THE PRIMITIVE CELL

 *******************************************************************************

 LATTICE PARAMETERS  (ANGSTROMS AND DEGREES) - PRIMITIVE CELL
       A          B          C        ALPHA      BETA     GAMMA        VOLUME
   10.18115   10.18115   10.18115   108.56008 108.56008 111.30928    811.768181

 INPUT LIST - ATOM N.   2 NOT IRREDUCIBLE

 INPUT LIST - ATOM N.   3 NOT IRREDUCIBLE

 INPUT LIST - ATOM N.   4 NOT IRREDUCIBLE

 INPUT LIST - ATOM N.   1 NOT IRREDUCIBLE

 INPUT LIST - ATOM N.   2 NOT IRREDUCIBLE

 INPUT LIST - ATOM N.   3 NOT IRREDUCIBLE

 INPUT LIST - ATOM N.   4 NOT IRREDUCIBLE

 INPUT LIST - ATOM N.   6 NOT IRREDUCIBLE

 INPUT LIST - ATOM N.  10 NOT IRREDUCIBLE

 INPUT LIST - ATOM N.  14 NOT IRREDUCIBLE

 INPUT LIST - ATOM N.  18 NOT IRREDUCIBLE

 INPUT LIST - ATOM N.  22 NOT IRREDUCIBLE

 INPUT LIST - ATOM N.  26 NOT IRREDUCIBLE

 INPUT LIST - ATOM N.   7 NOT IRREDUCIBLE

 INPUT LIST - ATOM N.  11 NOT IRREDUCIBLE

 INPUT LIST - ATOM N.  15 NOT IRREDUCIBLE

 INPUT LIST - ATOM N.  19 NOT IRREDUCIBLE

 INPUT LIST - ATOM N.  23 NOT IRREDUCIBLE

 INPUT LIST - ATOM N.  27 NOT IRREDUCIBLE

 INPUT LIST - ATOM N.   8 NOT IRREDUCIBLE

 INPUT LIST - ATOM N.  12 NOT IRREDUCIBLE

 INPUT LIST - ATOM N.  16 NOT IRREDUCIBLE

 INPUT LIST - ATOM N.  20 NOT IRREDUCIBLE

 INPUT LIST - ATOM N.  24 NOT IRREDUCIBLE

 INPUT LIST - ATOM N.  28 NOT IRREDUCIBLE

 INPUT LIST - ATOM N.   5 NOT IRREDUCIBLE

 INPUT LIST - ATOM N.   9 NOT IRREDUCIBLE

 INPUT LIST - ATOM N.  13 NOT IRREDUCIBLE

 INPUT LIST - ATOM N.  17 NOT IRREDUCIBLE

 INPUT LIST - ATOM N.  21 NOT IRREDUCIBLE

 INPUT LIST - ATOM N.  25 NOT IRREDUCIBLE

 INPUT LIST - ATOM N.   6 NOT IRREDUCIBLE

 INPUT LIST - ATOM N.  10 NOT IRREDUCIBLE

 INPUT LIST - ATOM N.  14 NOT IRREDUCIBLE

 INPUT LIST - ATOM N.  18 NOT IRREDUCIBLE

 INPUT LIST - ATOM N.  22 NOT IRREDUCIBLE

 INPUT LIST - ATOM N.  26 NOT IRREDUCIBLE

 INPUT LIST - ATOM N.   7 NOT IRREDUCIBLE

 INPUT LIST - ATOM N.  11 NOT IRREDUCIBLE

 INPUT LIST - ATOM N.  15 NOT IRREDUCIBLE

 INPUT LIST - ATOM N.  19 NOT IRREDUCIBLE

 INPUT LIST - ATOM N.  23 NOT IRREDUCIBLE

 INPUT LIST - ATOM N.  27 NOT IRREDUCIBLE

 INPUT LIST - ATOM N.   8 NOT IRREDUCIBLE

 INPUT LIST - ATOM N.  12 NOT IRREDUCIBLE

 INPUT LIST - ATOM N.  16 NOT IRREDUCIBLE

 INPUT LIST - ATOM N.  20 NOT IRREDUCIBLE

 INPUT LIST - ATOM N.  24 NOT IRREDUCIBLE

 INPUT LIST - ATOM N.  28 NOT IRREDUCIBLE

 INPUT LIST - ATOM N.  30 NOT IRREDUCIBLE

 INPUT LIST - ATOM N.  34 NOT IRREDUCIBLE

 INPUT LIST - ATOM N.  38 NOT IRREDUCIBLE

 INPUT LIST - ATOM N.  42 NOT IRREDUCIBLE

 INPUT LIST - ATOM N.  46 NOT IRREDUCIBLE

 INPUT LIST - ATOM N.  31 NOT IRREDUCIBLE

 INPUT LIST - ATOM N.  35 NOT IRREDUCIBLE

 INPUT LIST - ATOM N.  39 NOT IRREDUCIBLE

 INPUT LIST - ATOM N.  43 NOT IRREDUCIBLE

 INPUT LIST - ATOM N.  47 NOT IRREDUCIBLE

 INPUT LIST - ATOM N.  32 NOT IRREDUCIBLE

 INPUT LIST - ATOM N.  36 NOT IRREDUCIBLE

 INPUT LIST - ATOM N.  40 NOT IRREDUCIBLE

 INPUT LIST - ATOM N.  44 NOT IRREDUCIBLE

 INPUT LIST - ATOM N.  48 NOT IRREDUCIBLE

 INPUT LIST - ATOM N.  29 NOT IRREDUCIBLE

 INPUT LIST - ATOM N.  33 NOT IRREDUCIBLE

 INPUT LIST - ATOM N.  37 NOT IRREDUCIBLE

 INPUT LIST - ATOM N.  41 NOT IRREDUCIBLE

 INPUT LIST - ATOM N.  45 NOT IRREDUCIBLE

 INPUT LIST - ATOM N.  30 NOT IRREDUCIBLE

 INPUT LIST - ATOM N.  34 NOT IRREDUCIBLE

 INPUT LIST - ATOM N.  38 NOT IRREDUCIBLE

 INPUT LIST - ATOM N.  42 NOT IRREDUCIBLE

 INPUT LIST - ATOM N.  46 NOT IRREDUCIBLE

 INPUT LIST - ATOM N.  31 NOT IRREDUCIBLE

 INPUT LIST - ATOM N.  35 NOT IRREDUCIBLE

 INPUT LIST - ATOM N.  39 NOT IRREDUCIBLE

 INPUT LIST - ATOM N.  43 NOT IRREDUCIBLE

 INPUT LIST - ATOM N.  47 NOT IRREDUCIBLE

 INPUT LIST - ATOM N.  32 NOT IRREDUCIBLE

 INPUT LIST - ATOM N.  36 NOT IRREDUCIBLE

 INPUT LIST - ATOM N.  40 NOT IRREDUCIBLE

 INPUT LIST - ATOM N.  44 NOT IRREDUCIBLE

 INPUT LIST - ATOM N.  48 NOT IRREDUCIBLE

 INPUT LIST - ATOM N.  50 NOT IRREDUCIBLE

 INPUT LIST - ATOM N.  54 NOT IRREDUCIBLE

 INPUT LIST - ATOM N.  58 NOT IRREDUCIBLE

 INPUT LIST - ATOM N.  51 NOT IRREDUCIBLE

 INPUT LIST - ATOM N.  55 NOT IRREDUCIBLE

 INPUT LIST - ATOM N.  59 NOT IRREDUCIBLE

 INPUT LIST - ATOM N.  52 NOT IRREDUCIBLE

 INPUT LIST - ATOM N.  56 NOT IRREDUCIBLE

 INPUT LIST - ATOM N.  60 NOT IRREDUCIBLE

 INPUT LIST - ATOM N.  49 NOT IRREDUCIBLE

 INPUT LIST - ATOM N.  53 NOT IRREDUCIBLE

 INPUT LIST - ATOM N.  57 NOT IRREDUCIBLE

 INPUT LIST - ATOM N.  50 NOT IRREDUCIBLE

 INPUT LIST - ATOM N.  54 NOT IRREDUCIBLE

 INPUT LIST - ATOM N.  58 NOT IRREDUCIBLE

 INPUT LIST - ATOM N.  51 NOT IRREDUCIBLE

 INPUT LIST - ATOM N.  55 NOT IRREDUCIBLE

 INPUT LIST - ATOM N.  59 NOT IRREDUCIBLE

 INPUT LIST - ATOM N.  52 NOT IRREDUCIBLE

 INPUT LIST - ATOM N.  56 NOT IRREDUCIBLE

 INPUT LIST - ATOM N.  60 NOT IRREDUCIBLE

 INPUT LIST - ATOM N.  61 NOT IRREDUCIBLE

 INPUT LIST - ATOM N.  62 NOT IRREDUCIBLE

 COORDINATES OF THE EQUIVALENT ATOMS (FRACTIONAL UNITS)

 N. ATOM EQUIV AT. N.          X                  Y                  Z

   1   1   1    1 H     7.94300000000E-02  4.24990000000E-01 -9.57000000000E-02
   2   1   2    1 H    -4.79310000000E-01  1.75130000000E-01  9.57000000000E-02
   3   1   3    1 H    -4.24990000000E-01  4.79310000000E-01 -3.45560000000E-01
   4   1   4    1 H    -1.75130000000E-01 -7.94300000000E-02  3.45560000000E-01








   5   9   1    6 C     2.11700000000E-01 -3.32160000000E-01  1.00360000000E-01
   6   9   2    6 C    -4.32520000000E-01  1.11340000000E-01 -1.00360000000E-01
   7   9   3    6 C     3.32160000000E-01  4.32520000000E-01 -4.56140000000E-01
   8   9   4    6 C    -1.11340000000E-01 -2.11700000000E-01  4.56140000000E-01

   9  10   1    6 C     3.29760000000E-01 -3.55840000000E-01  2.00740000000E-01
  10  10   2    6 C     4.43420000000E-01  1.29020000000E-01 -2.00740000000E-01
  11  10   3    6 C     3.55840000000E-01 -4.43420000000E-01 -3.14400000000E-01
  12  10   4    6 C    -1.29020000000E-01 -3.29760000000E-01  3.14400000000E-01

  13  11   1    6 C     8.17500000000E-02 -4.62240000000E-01 -4.72300000000E-02
  14  11   2    6 C    -4.15010000000E-01  1.28980000000E-01  4.72300000000E-02
  15  11   3    6 C     4.62240000000E-01  4.15010000000E-01 -4.56010000000E-01
  16  11   4    6 C    -1.28980000000E-01 -8.17500000000E-02  4.56010000000E-01

  17  12   1    6 C    -4.53000000000E-02 -3.06390000000E-01 -5.88100000000E-02
  18  12   2    6 C    -2.47580000000E-01  1.35100000000E-02  5.88100000000E-02
  19  12   3    6 C     3.06390000000E-01  2.47580000000E-01  2.61090000000E-01
  20  12   4    6 C    -1.35100000000E-02  4.53000000000E-02 -2.61090000000E-01

  21  13   1    6 C     2.00530000000E-01 -1.93800000000E-01  1.58830000000E-01
  22  13   2    6 C    -3.52630000000E-01  4.17000000000E-02 -1.58830000000E-01
  23  13   3    6 C     1.93800000000E-01  3.52630000000E-01  3.94330000000E-01
  24  13   4    6 C    -4.17000000000E-02 -2.00530000000E-01 -3.94330000000E-01

  25  14   1    6 C    -3.33180000000E-01  6.83600000000E-02  1.22160000000E-01
  26  14   2    6 C    -5.38000000000E-02 -4.55340000000E-01 -1.22160000000E-01
  27  14   3    6 C    -6.83600000000E-02  5.38000000000E-02 -4.01540000000E-01
  28  14   4    6 C     4.55340000000E-01  3.33180000000E-01  4.01540000000E-01




 NUMBER OF SYMMETRY OPERATORS         :    4
 *******************************************************************************
 * GEOMETRY EDITING - INPUT COORDINATES ARE GIVEN IN ANGSTROM         
 *******************************************************************************

 GEOMETRY NOW FULLY CONSISTENT WITH THE GROUP
 *******************************************************************************
 *  GEOMETRY EDITING
 *  THE SYMMETRY OF THE CRYSTAL IS KEPT AND APPLIED TO THE PERTURBATION
 *******************************************************************************
 INFORMATION **** NEW DEFAULT **** FINALRUN 4 FOR GEOMETRY OPTIMIZATIONS
 INFORMATION **** NEW DEFAULT **** OPTGEOM OPTIMIZES BOTH ATOMIC COORDINATES AND CELL PARAMETERS
 INFORMATION **** NEW DEFAULT **** TOL. ON ATOMIC DISP TO REDEFINE REF. GEOMETRY: 0.8 Angs
 INFORMATION **** NEW DEFAULT **** N POINTS TO REDEFINE REF. GEOMETRY: N OF OPT DEGS OF FREEDOM
 INFORMATION **** NEW DEFAULT **** TOL. ON ENERGY TO REDEFINE REF. GEOMETRY: 10**-3*(5*N. ATOMS)

 IMPORTANT INFORMATION:
 THE COORDINATE SYSTEM ADOPTED IN THE OPTIMIZATION IS NOT IN
 GENERAL HOMOGENEOUS UNITS. FOR THIS REASON THE GRADIENT AND 
 HESSIAN MATRIX IN TERMS OF THIS SYSTEM ARE GIVEN WITHOUT
 UNITS. FOR MORE DETAILS SEE THE MANUAL.

 *******************************************************************************
 COMBINED CELL/ATOM OPTIMIZATION CONTROL

 INITIAL TRUST RADIUS         0.50000 MAXIMUM TRUST RADIUS               4.00000
 MAXIMUM GRADIENT COMPONENT   0.00045 MAXIMUM DISPLACEMENT COMPONENT     0.00180
 R.M.S. OF GRADIENT COMPONENT 0.00030 R.M.S. OF DISPLACEMENT COMPONENTS  0.00120
 THRESHOLD ON ENERGY CHANGE 0.100E-06 EXTRAPOLATING POLYNOMIAL ORDER           2
 MAXIMUM ALLOWED NUMBER OF STEPS   -1 SORTING OF ENERGY POINTS:               NO
 ANALYTICAL  GRADIENT                 HESSIAN UPDATING                      BFGS
 STEP SIZE NUMERICAL GRADIENT 0.00100
 INITIAL HESSIAN MATRIX: SCHLEGEL MODEL 2
 *******************************************************************************


 GCALCO - MAX INDICES DIRECT LATTICE VECTOR    15    15    14
 NO.OF VECTORS CREATED 6999 STARS  490 RMAX   209.05928 BOHR

 GEOMETRY FOR WAVE FUNCTION - DIMENSIONALITY OF THE SYSTEM    3
 (NON PERIODIC DIRECTION: LATTICE PARAMETER FORMALLY SET TO 500)
 *******************************************************************************
 LATTICE PARAMETERS (ANGSTROMS AND DEGREES) - BOHR = 0.5291772083 ANGSTROM
 PRIMITIVE CELL - CENTRING CODE 6/0 VOLUME=   811.768181 - DENSITY  3.369 g/cm^3
         A              B              C           ALPHA      BETA       GAMMA 
    10.18114964    10.18114964    10.18114964   108.560084 108.560084 111.309277
 *******************************************************************************
 ATOMS IN THE ASYMMETRIC UNIT   17 - ATOMS IN THE UNIT CELL:   62
     ATOM                 X/A                 Y/B                 Z/C    
 *******************************************************************************
      1 T   1 H     7.943000000000E-02  4.249900000000E-01 -9.570000000000E-02
      2 F   1 H    -4.793100000000E-01  1.751300000000E-01  9.570000000000E-02
      3 F   1 H    -4.249900000000E-01  4.793100000000E-01 -3.455600000000E-01
      4 F   1 H    -1.751300000000E-01 -7.943000000000E-02  3.455600000000E-01
      5 T   6 C     2.117000000000E-01 -3.321600000000E-01  1.003600000000E-01
      6 F   6 C    -4.325200000000E-01  1.113400000000E-01 -1.003600000000E-01
      7 F   6 C     3.321600000000E-01  4.325200000000E-01 -4.561400000000E-01
      8 F   6 C    -1.113400000000E-01 -2.117000000000E-01  4.561400000000E-01
      9 T   6 C     3.297600000000E-01 -3.558400000000E-01  2.007400000000E-01
     10 F   6 C     4.434200000000E-01  1.290200000000E-01 -2.007400000000E-01
     11 F   6 C     3.558400000000E-01 -4.434200000000E-01 -3.144000000000E-01
     12 F   6 C    -1.290200000000E-01 -3.297600000000E-01  3.144000000000E-01
     13 T   6 C     8.175000000000E-02 -4.622400000000E-01 -4.723000000000E-02
     14 F   6 C    -4.150100000000E-01  1.289800000000E-01  4.723000000000E-02
     15 F   6 C     4.622400000000E-01  4.150100000000E-01 -4.560100000000E-01
     16 F   6 C    -1.289800000000E-01 -8.175000000000E-02  4.560100000000E-01
     17 T   6 C    -4.530000000000E-02 -3.063900000000E-01 -5.881000000000E-02
     18 F   6 C    -2.475800000000E-01  1.351000000000E-02  5.881000000000E-02
     19 F   6 C     3.063900000000E-01  2.475800000000E-01  2.610900000000E-01
     20 F   6 C    -1.351000000000E-02  4.530000000000E-02 -2.610900000000E-01
     21 T   6 C     2.005300000000E-01 -1.938000000000E-01  1.588300000000E-01
     22 F   6 C    -3.526300000000E-01  4.170000000000E-02 -1.588300000000E-01
     23 F   6 C     1.938000000000E-01  3.526300000000E-01  3.943300000000E-01
     24 F   6 C    -4.170000000000E-02 -2.005300000000E-01 -3.943300000000E-01
     25 T   6 C    -3.331800000000E-01  6.836000000000E-02  1.221600000000E-01
     26 F   6 C    -5.380000000000E-02 -4.553400000000E-01 -1.221600000000E-01
     27 F   6 C    -6.836000000000E-02  5.380000000000E-02 -4.015400000000E-01
     28 F   6 C     4.553400000000E-01  3.331800000000E-01  4.015400000000E-01
     29 T   7 N     3.521900000000E-01 -3.267300000000E-01  3.489800000000E-01
     30 F   7 N     3.242900000000E-01  3.210000000000E-03 -3.489800000000E-01
     31 F   7 N     3.267300000000E-01 -3.242900000000E-01 -3.210800000000E-01
     32 F   7 N    -3.210000000000E-03 -3.521900000000E-01  3.210800000000E-01
     33 T   7 N     4.679600000000E-01 -3.618000000000E-01  4.109400000000E-01
     34 F   7 N     2.272600000000E-01  5.702000000000E-02 -4.109400000000E-01
     35 F   7 N     3.618000000000E-01 -2.272600000000E-01 -1.702400000000E-01
     36 F   7 N    -5.702000000000E-02 -4.679600000000E-01  1.702400000000E-01
     37 T   7 N     4.243700000000E-01 -4.133700000000E-01  1.683000000000E-01
     38 F   7 N     4.183300000000E-01  2.560700000000E-01 -1.683000000000E-01
     39 F   7 N     4.133700000000E-01 -4.183300000000E-01 -1.622600000000E-01
     40 F   7 N    -2.560700000000E-01 -4.243700000000E-01  1.622600000000E-01
     41 T   7 N    -4.899200000000E-01 -4.138000000000E-01  3.041400000000E-01
     42 F   7 N     2.820600000000E-01  2.059400000000E-01 -3.041400000000E-01
     43 F   7 N     4.138000000000E-01 -2.820600000000E-01 -7.612000000000E-02
     44 F   7 N    -2.059400000000E-01  4.899200000000E-01  7.612000000000E-02
     45 T   7 N     7.922000000000E-02 -1.808300000000E-01  7.837000000000E-02
     46 F   7 N    -2.592000000000E-01  8.499999999998E-04 -7.837000000000E-02
     47 F   7 N     1.808300000000E-01  2.592000000000E-01  2.600500000000E-01
     48 F   7 N    -8.499999999998E-04 -7.922000000000E-02 -2.600500000000E-01
     49 T  35 BR    3.462900000000E-01 -2.867000000000E-02  3.477600000000E-01
     50 F  35 BR   -3.764300000000E-01 -1.470000000000E-03 -3.477600000000E-01
     51 F  35 BR    2.867000000000E-02  3.764300000000E-01  3.749600000000E-01
     52 F  35 BR    1.470000000000E-03 -3.462900000000E-01 -3.749600000000E-01
     53 T  35 BR   -2.333700000000E-01  3.711100000000E-01 -2.717600000000E-01
     54 F  35 BR   -3.571300000000E-01  3.839000000000E-02  2.717600000000E-01
     55 F  35 BR   -3.711100000000E-01  3.571300000000E-01  3.955200000000E-01
     56 F  35 BR   -3.839000000000E-02  2.333700000000E-01 -3.955200000000E-01
     57 T  35 BR   -1.998700000000E-01 -2.836600000000E-01 -1.603100000000E-01
     58 F  35 BR   -1.233500000000E-01 -3.956000000000E-02  1.603100000000E-01
     59 F  35 BR    2.836600000000E-01  1.233500000000E-01  8.379000000000E-02
     60 F  35 BR    3.956000000000E-02  1.998700000000E-01 -8.379000000000E-02
     61 T  30 ZN    2.500000000000E-01 -2.500000000000E-01  5.000000000000E-01
     62 T  30 ZN    5.000000000000E-01  5.000000000000E-01  6.471124613141E-32

 TRANSFORMATION MATRIX PRIMITIVE-CRYSTALLOGRAPHIC CELL
  0.0000  1.0000  1.0000  1.0000  0.0000  1.0000  1.0000  1.0000  0.0000

 *******************************************************************************
 CRYSTALLOGRAPHIC CELL (VOLUME=       1623.53636147)
         A              B              C           ALPHA      BETA       GAMMA 
    11.88800000    11.88800000    11.48800000    90.000000  90.000000  90.000000

 COORDINATES IN THE CRYSTALLOGRAPHIC CELL
     ATOM                 X/A                 Y/B                 Z/C    
 *******************************************************************************
      1 T   1 H     1.249300000000E-01 -2.206300000000E-01  3.000600000000E-01
      2 F   1 H    -1.249300000000E-01  2.206300000000E-01  3.000600000000E-01
      3 F   1 H    -2.206300000000E-01 -1.249300000000E-01 -3.000600000000E-01
      4 F   1 H     2.206300000000E-01  1.249300000000E-01 -3.000600000000E-01
      5 T   6 C    -2.217500000000E-01  3.221100000000E-01 -1.104100000000E-01
      6 F   6 C     2.217500000000E-01 -3.221100000000E-01 -1.104100000000E-01
      7 F   6 C     3.221100000000E-01  2.217500000000E-01  1.104100000000E-01
      8 F   6 C    -3.221100000000E-01 -2.217500000000E-01  1.104100000000E-01
      9 T   6 C     2.575700000000E-01 -5.683000000000E-02  3.865900000000E-01
     10 F   6 C    -2.575700000000E-01  5.683000000000E-02  3.865900000000E-01
     11 F   6 C    -5.683000000000E-02 -2.575700000000E-01 -3.865900000000E-01
     12 F   6 C     5.683000000000E-02  2.575700000000E-01 -3.865900000000E-01
     13 T   6 C    -2.956100000000E-01  2.483800000000E-01 -1.666300000000E-01
     14 F   6 C     2.956100000000E-01 -2.483800000000E-01 -1.666300000000E-01
     15 F   6 C     2.483800000000E-01  2.956100000000E-01  1.666300000000E-01
     16 F   6 C    -2.483800000000E-01 -2.956100000000E-01  1.666300000000E-01
     17 T   6 C    -1.599500000000E-01  1.011400000000E-01 -1.464400000000E-01
     18 F   6 C     1.599500000000E-01 -1.011400000000E-01 -1.464400000000E-01
     19 F   6 C     1.011400000000E-01  1.599500000000E-01  1.464400000000E-01
     20 F   6 C    -1.011400000000E-01 -1.599500000000E-01  1.464400000000E-01
     21 T   6 C    -1.177500000000E-01  2.765800000000E-01 -7.605000000000E-02
     22 F   6 C     1.177500000000E-01 -2.765800000000E-01 -7.605000000000E-02
     23 F   6 C     2.765800000000E-01  1.177500000000E-01  7.605000000000E-02
     24 F   6 C    -2.765800000000E-01 -1.177500000000E-01  7.605000000000E-02
     25 T   6 C     2.618500000000E-01 -1.396900000000E-01 -1.934900000000E-01
     26 F   6 C    -2.618500000000E-01  1.396900000000E-01 -1.934900000000E-01
     27 F   6 C    -1.396900000000E-01 -2.618500000000E-01  1.934900000000E-01
     28 F   6 C     1.396900000000E-01  2.618500000000E-01  1.934900000000E-01
     29 T   7 N     3.350300000000E-01  1.395000000000E-02  3.382400000000E-01
     30 F   7 N    -3.350300000000E-01 -1.395000000000E-02  3.382400000000E-01
     31 F   7 N     1.395000000000E-02 -3.350300000000E-01 -3.382400000000E-01
     32 F   7 N    -1.395000000000E-02  3.350300000000E-01 -3.382400000000E-01
     33 T   7 N    -2.094100000000E-01 -3.796500000000E-01 -1.523900000000E-01
     34 F   7 N     2.094100000000E-01  3.796500000000E-01 -1.523900000000E-01
     35 F   7 N    -3.796500000000E-01  2.094100000000E-01  1.523900000000E-01
     36 F   7 N     3.796500000000E-01 -2.094100000000E-01  1.523900000000E-01
     37 T   7 N     1.652800000000E-01  3.020000000000E-03  4.213500000000E-01
     38 F   7 N    -1.652800000000E-01 -3.020000000000E-03  4.213500000000E-01
     39 F   7 N     3.020000000000E-03 -1.652800000000E-01 -4.213500000000E-01
     40 F   7 N    -3.020000000000E-03  1.652800000000E-01 -4.213500000000E-01
     41 T   7 N     1.901300000000E-01  1.140100000000E-01  3.960700000000E-01
     42 F   7 N    -1.901300000000E-01 -1.140100000000E-01  3.960700000000E-01
     43 F   7 N     1.140100000000E-01 -1.901300000000E-01 -3.960700000000E-01
     44 F   7 N    -1.140100000000E-01  1.901300000000E-01 -3.960700000000E-01
     45 T   7 N    -9.084000000000E-02  1.692100000000E-01 -8.999000000000E-02
     46 F   7 N     9.084000000000E-02 -1.692100000000E-01 -8.999000000000E-02
     47 F   7 N     1.692100000000E-01  9.084000000000E-02  8.999000000000E-02
     48 F   7 N    -1.692100000000E-01 -9.084000000000E-02  8.999000000000E-02
     49 T  35 BR   -1.360000000000E-02  3.613600000000E-01 -1.507000000000E-02
     50 F  35 BR    1.360000000000E-02 -3.613600000000E-01 -1.507000000000E-02
     51 F  35 BR    3.613600000000E-01  1.360000000000E-02  1.507000000000E-02
     52 F  35 BR   -3.613600000000E-01 -1.360000000000E-02  1.507000000000E-02
     53 T  35 BR   -3.336400000000E-01  6.188000000000E-02 -2.952500000000E-01
     54 F  35 BR    3.336400000000E-01 -6.188000000000E-02 -2.952500000000E-01
     55 F  35 BR    6.188000000000E-02  3.336400000000E-01  2.952500000000E-01
     56 F  35 BR   -6.188000000000E-02 -3.336400000000E-01  2.952500000000E-01
     57 T  35 BR   -1.220500000000E-01 -3.826000000000E-02 -1.616100000000E-01
     58 F  35 BR    1.220500000000E-01  3.826000000000E-02 -1.616100000000E-01
     59 F  35 BR   -3.826000000000E-02  1.220500000000E-01  1.616100000000E-01
     60 F  35 BR    3.826000000000E-02 -1.220500000000E-01  1.616100000000E-01
     61 T  30 ZN    5.000000000000E-01  0.000000000000E+00  2.500000000000E-01
     62 T  30 ZN    3.235562306571E-32  3.235562306571E-32  5.000000000000E-01

 T = ATOM BELONGING TO THE ASYMMETRIC UNIT

 ****    4 SYMMOPS - TRANSLATORS IN FRACTIONAL UNITS
 **** MATRICES AND TRANSLATORS IN THE CRYSTALLOGRAPHIC REFERENCE FRAME
   V INV                    ROTATION MATRICES                   TRANSLATORS
   1   1  1.00  0.00  0.00  0.00  1.00  0.00  0.00  0.00  1.00  0.00  0.00  0.00
   2   2  0.00  1.00 -1.00  1.00  0.00 -1.00  0.00 -0.00 -1.00  0.00  0.00  0.00
   3   4  0.00 -1.00  0.00 -0.00 -1.00  1.00  1.00 -1.00 -0.00  0.00  0.00  0.00
   4   3 -1.00  0.00  1.00 -1.00 -0.00  0.00 -1.00  1.00  0.00  0.00  0.00  0.00

 DIRECT LATTICE VECTORS CARTESIAN COMPONENTS (ANGSTROM)
          X                    Y                    Z
  -0.594400000000E+01   0.594400000000E+01   0.574400000000E+01
   0.594400000000E+01  -0.594400000000E+01   0.574400000000E+01
   0.594400000000E+01   0.594400000000E+01  -0.574400000000E+01


 CARTESIAN COORDINATES - PRIMITIVE CELL
 *******************************************************************************
 *      ATOM          X(ANGSTROM)         Y(ANGSTROM)         Z(ANGSTROM)
 *******************************************************************************
    1     1 H     1.485167840000E+00 -2.622849440000E+00  3.447089280000E+00
    2     1 H    -1.485167840000E+00  2.622849440000E+00  3.447089280000E+00
    3     1 H    -2.622849440000E+00 -1.485167840000E+00 -3.447089280000E+00
    4     1 H     2.622849440000E+00  1.485167840000E+00 -3.447089280000E+00
    5     6 C    -2.636164000000E+00  3.829243680000E+00 -1.268390080000E+00
    6     6 C     2.636164000000E+00 -3.829243680000E+00 -1.268390080000E+00
    7     6 C     3.829243680000E+00  2.636164000000E+00  1.268390080000E+00
    8     6 C    -3.829243680000E+00 -2.636164000000E+00  1.268390080000E+00
    9     6 C     3.061992160000E+00 -6.755950400000E-01  4.441145920000E+00
   10     6 C    -3.061992160000E+00  6.755950400000E-01  4.441145920000E+00
   11     6 C    -6.755950400000E-01 -3.061992160000E+00 -4.441145920000E+00
   12     6 C     6.755950400000E-01  3.061992160000E+00 -4.441145920000E+00
   13     6 C    -3.514211680000E+00  2.952741440000E+00 -1.914245440000E+00
   14     6 C     3.514211680000E+00 -2.952741440000E+00 -1.914245440000E+00
   15     6 C     2.952741440000E+00  3.514211680000E+00  1.914245440000E+00
   16     6 C    -2.952741440000E+00 -3.514211680000E+00  1.914245440000E+00
   17     6 C    -1.901485600000E+00  1.202352320000E+00 -1.682302720000E+00
   18     6 C     1.901485600000E+00 -1.202352320000E+00 -1.682302720000E+00
   19     6 C     1.202352320000E+00  1.901485600000E+00  1.682302720000E+00
   20     6 C    -1.202352320000E+00 -1.901485600000E+00  1.682302720000E+00
   21     6 C    -1.399812000000E+00  3.287983040000E+00 -8.736624000000E-01
   22     6 C     1.399812000000E+00 -3.287983040000E+00 -8.736624000000E-01
   23     6 C     3.287983040000E+00  1.399812000000E+00  8.736624000000E-01
   24     6 C    -3.287983040000E+00 -1.399812000000E+00  8.736624000000E-01
   25     6 C     3.112872800000E+00 -1.660634720000E+00 -2.222813120000E+00
   26     6 C    -3.112872800000E+00  1.660634720000E+00 -2.222813120000E+00
   27     6 C    -1.660634720000E+00 -3.112872800000E+00  2.222813120000E+00
   28     6 C     1.660634720000E+00  3.112872800000E+00  2.222813120000E+00
   29     7 N     3.982836640000E+00  1.658376000000E-01  3.885701120000E+00
   30     7 N    -3.982836640000E+00 -1.658376000000E-01  3.885701120000E+00
   31     7 N     1.658376000000E-01 -3.982836640000E+00 -3.885701120000E+00
   32     7 N    -1.658376000000E-01  3.982836640000E+00 -3.885701120000E+00
   33     7 N    -2.489466080000E+00 -4.513279200000E+00 -1.750656320000E+00
   34     7 N     2.489466080000E+00  4.513279200000E+00 -1.750656320000E+00
   35     7 N    -4.513279200000E+00  2.489466080000E+00  1.750656320000E+00
   36     7 N     4.513279200000E+00 -2.489466080000E+00  1.750656320000E+00
   37     7 N     1.964848640000E+00  3.590176000000E-02  4.840468800000E+00
   38     7 N    -1.964848640000E+00 -3.590176000001E-02  4.840468800000E+00
   39     7 N     3.590176000001E-02 -1.964848640000E+00 -4.840468800000E+00
   40     7 N    -3.590176000001E-02  1.964848640000E+00 -4.840468800000E+00
   41     7 N     2.260265440000E+00  1.355350880000E+00  4.550052160000E+00
   42     7 N    -2.260265440000E+00 -1.355350880000E+00  4.550052160000E+00
   43     7 N     1.355350880000E+00 -2.260265440000E+00 -4.550052160000E+00
   44     7 N    -1.355350880000E+00  2.260265440000E+00 -4.550052160000E+00
   45     7 N    -1.079905920000E+00  2.011568480000E+00 -1.033805120000E+00
   46     7 N     1.079905920000E+00 -2.011568480000E+00 -1.033805120000E+00
   47     7 N     2.011568480000E+00  1.079905920000E+00  1.033805120000E+00
   48     7 N    -2.011568480000E+00 -1.079905920000E+00  1.033805120000E+00
   49    35 BR   -1.616768000000E-01  4.295847680000E+00 -1.731241600000E-01
   50    35 BR    1.616768000000E-01 -4.295847680000E+00 -1.731241600000E-01
   51    35 BR    4.295847680000E+00  1.616768000000E-01  1.731241600000E-01
   52    35 BR   -4.295847680000E+00 -1.616768000000E-01  1.731241600000E-01
   53    35 BR   -3.966312320000E+00  7.356294400000E-01 -3.391832000000E+00
   54    35 BR    3.966312320000E+00 -7.356294400000E-01 -3.391832000000E+00
   55    35 BR    7.356294400000E-01  3.966312320000E+00  3.391832000000E+00
   56    35 BR   -7.356294400000E-01 -3.966312320000E+00  3.391832000000E+00
   57    35 BR   -1.450930400000E+00 -4.548348800000E-01 -1.856575680000E+00
   58    35 BR    1.450930400000E+00  4.548348800000E-01 -1.856575680000E+00
   59    35 BR   -4.548348800000E-01  1.450930400000E+00  1.856575680000E+00
   60    35 BR    4.548348800000E-01 -1.450930400000E+00  1.856575680000E+00
   61    30 ZN    5.944000000000E+00  0.000000000000E+00 -8.616000000000E+00
   62    30 ZN    3.846436470051E-31  3.846436470051E-31  5.744000000000E+00

 *******************************************************************************
 STARTING BASIS SET HANDLING 
 *******************************************************************************

 Loading internal basis set: POB-DZVPP           

 Please cite in your publication:
 Peintinger, M. F., Oliveira, D. V. and Bredow, T. (2013), Generally applicable 
 solid-state Gaussian basis sets, in preparation                                
                                                                                
                    

 *******************************************************************************
 LOCAL ATOMIC FUNCTIONS BASIS SET
 *******************************************************************************
   ATOM   X(AU)   Y(AU)   Z(AU)  N. TYPE  EXPONENT  S COEF   P COEF   D/F/G COEF
 *******************************************************************************
   1 H    2.807  -4.956   6.514
                                  1 S  
                                         2.263E+01 1.441E-02 0.000E+00 0.000E+00
                                         3.236E+00 1.072E-01 0.000E+00 0.000E+00
                                         7.304E-01 3.846E-01 0.000E+00 0.000E+00
                                  2 S  
                                         1.417E-01 1.000E+00 0.000E+00 0.000E+00
                           3-     5 P  
                                         3.944E-01 0.000E+00 1.000E+00 0.000E+00
                           6-     8 P  
                                         1.006E-01 0.000E+00 1.000E+00 0.000E+00
   2 H   -2.807   4.956   6.514
   3 H   -4.956  -2.807  -6.514
   4 H    4.956   2.807  -6.514
   5 C   -4.982   7.236  -2.397
                                 33 S  
                                         1.238E+03 5.457E-03 0.000E+00 0.000E+00
                                         1.863E+02 4.064E-02 0.000E+00 0.000E+00
                                         4.225E+01 1.803E-01 0.000E+00 0.000E+00
                                         1.168E+01 4.632E-01 0.000E+00 0.000E+00
                                         3.593E+00 4.409E-01 0.000E+00 0.000E+00
                                 34 S  
                                         5.281E+00 1.000E+00 0.000E+00 0.000E+00
                                 35 S  
                                         4.447E-01 1.000E+00 0.000E+00 0.000E+00
                          36-    38 P  
                                         9.468E+00 0.000E+00 3.839E-02 0.000E+00
                                         2.010E+00 0.000E+00 2.112E-01 0.000E+00
                                         5.477E-01 0.000E+00 5.133E-01 0.000E+00
                          39-    41 P  
                                         1.604E-01 0.000E+00 1.000E+00 0.000E+00
                          42-    46 D  
                                         6.070E-01 0.000E+00 0.000E+00 1.000E+00
                          47-    51 D  
                                         2.939E-01 0.000E+00 0.000E+00 1.000E+00
   6 C    4.982  -7.236  -2.397
   7 C    7.236   4.982   2.397
   8 C   -7.236  -4.982   2.397
   9 C    5.786  -1.277   8.393
  10 C   -5.786   1.277   8.393
  11 C   -1.277  -5.786  -8.393
  12 C    1.277   5.786  -8.393
  13 C   -6.641   5.580  -3.617
  14 C    6.641  -5.580  -3.617
  15 C    5.580   6.641   3.617
  16 C   -5.580  -6.641   3.617
  17 C   -3.593   2.272  -3.179
  18 C    3.593  -2.272  -3.179
  19 C    2.272   3.593   3.179
  20 C   -2.272  -3.593   3.179
  21 C   -2.645   6.213  -1.651
  22 C    2.645  -6.213  -1.651
  23 C    6.213   2.645   1.651
  24 C   -6.213  -2.645   1.651
  25 C    5.882  -3.138  -4.201
  26 C   -5.882   3.138  -4.201
  27 C   -3.138  -5.882   4.201
  28 C    3.138   5.882   4.201
  29 N    7.526   0.313   7.343
                                489 S  
                                         1.713E+03-5.393E-03 0.000E+00 0.000E+00
                                         2.576E+02-4.022E-02 0.000E+00 0.000E+00
                                         5.846E+01-1.793E-01 0.000E+00 0.000E+00
                                         1.620E+01-4.638E-01 0.000E+00 0.000E+00
                                         5.005E+00-4.417E-01 0.000E+00 0.000E+00
                                490 S  
                                         6.217E-01 1.000E+00 0.000E+00 0.000E+00
                                491 S  
                                         2.921E-01 1.000E+00 0.000E+00 0.000E+00
                         492-   494 P  
                                         1.357E+01 0.000E+00-4.007E-02 0.000E+00
                                         2.926E+00 0.000E+00-2.181E-01 0.000E+00
                                         7.993E-01 0.000E+00-5.129E-01 0.000E+00
                         495-   497 P  
                                         2.244E-01 0.000E+00 1.000E+00 0.000E+00
                         498-   502 D  
                                         3.118E-01 0.000E+00 0.000E+00 1.000E+00
  30 N   -7.526  -0.313   7.343
  31 N    0.313  -7.526  -7.343
  32 N   -0.313   7.526  -7.343
  33 N   -4.704  -8.529  -3.308
  34 N    4.704   8.529  -3.308
  35 N   -8.529   4.704   3.308
  36 N    8.529  -4.704   3.308
  37 N    3.713   0.068   9.147
  38 N   -3.713  -0.068   9.147
  39 N    0.068  -3.713  -9.147
  40 N   -0.068   3.713  -9.147
  41 N    4.271   2.561   8.598
  42 N   -4.271  -2.561   8.598
  43 N    2.561  -4.271  -8.598
  44 N   -2.561   4.271  -8.598
  45 N   -2.041   3.801  -1.954
  46 N    2.041  -3.801  -1.954
  47 N    3.801   2.041   1.954
  48 N   -3.801  -2.041   1.954
  49 BR  -0.306   8.118  -0.327
                                769 S  
                                         1.133E+05 1.428E-03 0.000E+00 0.000E+00
                                         1.701E+04 1.095E-02 0.000E+00 0.000E+00
                                         3.870E+03 5.442E-02 0.000E+00 0.000E+00
                                         1.093E+03 1.905E-01 0.000E+00 0.000E+00
                                         3.564E+02 3.902E-01 0.000E+00 0.000E+00
                                         1.231E+02 3.081E-01 0.000E+00 0.000E+00
                                770 S  
                                         2.367E+02-1.123E-01 0.000E+00 0.000E+00
                                         2.847E+01 6.478E-01 0.000E+00 0.000E+00
                                         1.188E+01 4.424E-01 0.000E+00 0.000E+00
                                771 S  
                                         2.127E+01-2.264E-01 0.000E+00 0.000E+00
                                         3.613E+00 7.382E-01 0.000E+00 0.000E+00
                                         1.663E+00 4.268E-01 0.000E+00 0.000E+00
                                772 S  
                                         3.641E-01 1.000E+00 0.000E+00 0.000E+00
                                773 S  
                                         1.243E-01 1.000E+00 0.000E+00 0.000E+00
                         774-   776 P  
                                         1.560E+03 0.000E+00 8.717E-03 0.000E+00
                                         3.685E+02 0.000E+00 6.624E-02 0.000E+00
                                         1.172E+02 0.000E+00 2.650E-01 0.000E+00
                                         4.265E+01 0.000E+00 5.384E-01 0.000E+00
                                         1.609E+01 0.000E+00 3.658E-01 0.000E+00
                         777-   779 P  
                                         8.635E+00 0.000E+00 3.425E-01 0.000E+00
                                         3.561E+00 0.000E+00 5.750E-01 0.000E+00
                                         1.529E+00 0.000E+00 2.433E-01 0.000E+00
                         780-   782 P  
                                         6.447E-01 0.000E+00 1.000E+00 0.000E+00
                         783-   785 P  
                                         2.103E-01 0.000E+00 1.000E+00 0.000E+00
                         786-   790 D  
                                         1.049E+02 0.000E+00 0.000E+00 2.265E-02
                                         3.028E+01 0.000E+00 0.000E+00 1.346E-01
                                         1.065E+01 0.000E+00 0.000E+00 3.647E-01
                                         3.870E+00 0.000E+00 0.000E+00 4.904E-01
                         791-   795 D  
                                         1.342E+00 0.000E+00 0.000E+00 1.000E+00
                         796-   800 D  
                                         4.101E-01 0.000E+00 0.000E+00 1.000E+00
                         801-   805 D  
                                         1.985E-01 0.000E+00 0.000E+00 1.000E+00
  50 BR   0.306  -8.118  -0.327
  51 BR   8.118   0.306   0.327
  52 BR  -8.118  -0.306   0.327
  53 BR  -7.495   1.390  -6.410
  54 BR   7.495  -1.390  -6.410
  55 BR   1.390   7.495   6.410
  56 BR  -1.390  -7.495   6.410
  57 BR  -2.742  -0.860  -3.508
  58 BR   2.742   0.860  -3.508
  59 BR  -0.860   2.742   3.508
  60 BR   0.860  -2.742   3.508
  61 ZN  11.233   0.000 -16.282
                               1213 S  
                                         8.200E+04 1.421E-03 0.000E+00 0.000E+00
                                         1.231E+04 1.089E-02 0.000E+00 0.000E+00
                                         2.801E+03 5.406E-02 0.000E+00 0.000E+00
                                         7.910E+02 1.885E-01 0.000E+00 0.000E+00
                                         2.576E+02 3.835E-01 0.000E+00 0.000E+00
                                         8.881E+01 2.972E-01 0.000E+00 0.000E+00
                               1214 S  
                                         1.719E+02-1.105E-01 0.000E+00 0.000E+00
                                         2.030E+01 6.461E-01 0.000E+00 0.000E+00
                                         8.346E+00 4.422E-01 0.000E+00 0.000E+00
                               1215 S  
                                         1.485E+01-2.271E-01 0.000E+00 0.000E+00
                                         2.450E+00 7.243E-01 0.000E+00 0.000E+00
                                         9.985E-01 4.484E-01 0.000E+00 0.000E+00
                               1216 S  
                                         1.493E+00 1.000E+00 0.000E+00 0.000E+00
                               1217 S  
                                         1.830E-01 1.000E+00 0.000E+00 0.000E+00
                        1218-  1220 P  
                                         1.072E+03 0.000E+00 9.277E-03 0.000E+00
                                         2.527E+02 0.000E+00 6.954E-02 0.000E+00
                                         8.010E+01 0.000E+00 2.716E-01 0.000E+00
                                         2.890E+01 0.000E+00 5.340E-01 0.000E+00
                                         1.077E+01 0.000E+00 3.450E-01 0.000E+00
                        1221-  1223 P  
                                         5.645E+00 0.000E+00 3.413E-01 0.000E+00
                                         2.168E+00 0.000E+00 5.639E-01 0.000E+00
                                         8.054E-01 0.000E+00 2.368E-01 0.000E+00
                        1224-  1226 P  
                                         2.721E-01 0.000E+00 1.000E+00 0.000E+00
                        1227-  1231 D  
                                         5.609E+01 0.000E+00 0.000E+00 2.959E-02
                                         1.575E+01 0.000E+00 0.000E+00 1.587E-01
                                         5.312E+00 0.000E+00 0.000E+00 3.798E-01
                                         1.774E+00 0.000E+00 0.000E+00 4.690E-01
                        1232-  1236 D  
                                         5.073E-01 0.000E+00 0.000E+00 1.000E+00
                        1237-  1243 F  
                                         2.814E+00 0.000E+00 0.000E+00 1.000E+00
                        1244-  1250 F  
                                         1.300E+00 0.000E+00 0.000E+00 1.000E+00
  62 ZN   0.000   0.000  10.855

 *******************************************************************************
 FINISHED BASIS SET HANDLING 
 *******************************************************************************

 INFORMATION **** SET_MPP **** PCRYSTAL CALCULATION
 INFORMATION **** READM2 **** NEW DEFAULT: FOCK/KS MATRIX MIXING SET TO 30 %
 INFORMATION **** READM2 **** NEW DEFAULT: FULL DIRECT SCF MODE
 INFORMATION **** READM2 **** NEW DEFAULT: COULOMB BIPOLAR BUFFER SET TO 32 Mb
 INFORMATION **** READM2 **** NEW DEFAULT: EXCHANGE BIPOLAR BUFFER SET TO 32 Mb

 *******************************************************************************
 NEW DEFAULT: DFT INTEGRATION GRID INCREASED TO XLGRID
 NEW DEFAULT: DIIS ACCELERATOR ACTIVE
 USE KEYWORD NODIIS TO TURN IT OFF
 *******************************************************************************

 INFORMATION **** DFTD3_INPUT **** PERFORM DISPERSION CORRECTION DFT-D3(BJ) IN THE BECKE-JOHNSON DAMPING SCHEME

 PLEASE CITE:
 (1) DFT-D3 Reference
  S. Grimme, J. Antony, S. Ehrlich, and H. Krieg, J. Chem. Phys. 132 (2010), 154104
 (2) BJ-Damping Reference
  S. Grimme, S. Ehrlich, and L. Goerigk, J. Comput. Chem. 32 (2011), 1456-1465
 (3) General DFT-D Review
  S. Grimme, A. Hansen, J. G. Brandenburg, and C. Bannwarth,
  Chem. Rev. 116 (2016), 5105-5154

 INFORMATION **** BIPOSIZE **** COULOMB BIPOLAR BUFFER SET TO    30000000
 INFORMATION **** EXCHSIZE **** EXCHANGE BIPOLAR BUFFER SIZE SET TO    30000000
 INFORMATION **** TOLINTEG **** COULOMB AND EXCHANGE SERIES TOLERANCES MODIFIED
 INFORMATION **** MAXCYCLE **** MAX NUMBER OF SCF CYCLES SET TO        1000
 *******************************************************************************
 N. OF ATOMS PER CELL        62  COULOMB OVERLAP TOL         (T1) 10**  -12
 NUMBER OF SHELLS           484  COULOMB PENETRATION TOL     (T2) 10**  -12
 NUMBER OF AO              1288  EXCHANGE OVERLAP TOL        (T3) 10**   20
 N. OF ELECTRONS PER CELL   768  EXCHANGE PSEUDO OVP (F(G))  (T4) 10**   20
 CORE ELECTRONS PER CELL    460  EXCHANGE PSEUDO OVP (P(G))  (T5) 10**   20
 N. OF SYMMETRY OPERATORS     4  POLE ORDER IN MONO ZONE                  4
 *******************************************************************************
 TYPE OF CALCULATION :  RESTRICTED CLOSED SHELL
 KOHN-SHAM HAMILTONIAN

 (EXCHANGE)[CORRELATION] FUNCTIONAL:(PERDEW-BURKE-ERNZERHOF)[PERDEW-BURKE-ERNZERHOF]


 CAPPA:IS1  3;IS2  3;IS3  3; K PTS MONK NET   6; SYMMOPS:K SPACE   8;G SPACE   4

 *******************************************************************************
 MAX NUMBER OF SCF CYCLES    1000  CONVERGENCE ON DELTAP        10**-16
 WEIGHT OF F(I) IN F(I+1)      30% CONVERGENCE ON ENERGY        10**- 7
 SHRINK. FACT.(MONKH.)    3  3  3  NUMBER OF K POINTS IN THE IBZ      6
 SHRINKING FACTOR(GILAT NET)    3  NUMBER OF K POINTS(GILAT NET)      6
 *******************************************************************************
 *** K POINTS COORDINATES (OBLIQUE COORDINATES IN UNITS OF IS =  3)
   1-R(  0  0  0)   2-C(  1  0  0)   3-C(  1  1  0)   4-C(  2  1  0)
   5-C(  2  1  1)   6-C(  2  2  1)

 DIRECT LATTICE VECTORS COMPON. (A.U.)     RECIP. LATTICE VECTORS COMPON. (A.U.) 
        X            Y            Z              X            Y            Z
  -11.2325321   11.2325321   10.8545869      0.0000000    0.2796869    0.2894254
   11.2325321  -11.2325321   10.8545869      0.2796869    0.0000000    0.2894254
   11.2325321   11.2325321  -10.8545869      0.2796869    0.2796869    0.0000000

 DISK SPACE FOR EIGENVECTORS (FTN 10)    18248384 REALS

 SYMMETRY ADAPTION OF THE BLOCH FUNCTIONS ENABLED
 TTTTTTTTTTTTTTTTTTTTTTTTTTTTTT gordsh1     TELAPSE        2.78 TCPU        0.07

 MATRIX SIZE: P(G) 2223724, F(G) 1112654, P(G) IRR  280758, F(G) IRR  280758
 MAX G-VECTOR INDEX FOR 1- AND 2-ELECTRON INTEGRALS  59

 TTTTTTTTTTTTTTTTTTTTTTTTTTTTTT INPUT       TELAPSE        2.84 TCPU        0.12

 NEIGHBORS OF THE NON-EQUIVALENT ATOMS

 N = NUMBER OF NEIGHBORS AT DISTANCE R
    ATOM  N     R/ANG      R/AU   NEIGHBORS (ATOM LABELS AND CELL INDICES)
   1 H    1     1.0837     2.0479   13 C    0 1 0
   1 H    1     2.1388     4.0417   26 C    0 1 0
   1 H    1     2.1536     4.0698    5 C    0 1 0
   1 H    1     2.2282     4.2106   60 BR   0 0 0
   1 H    1     2.5961     4.9060   56 BR   0 0 0
   1 H    1     2.6956     5.0940    9 C    0 0 0

   5 C    1     1.3987     2.6432   13 C    0 0 0
   5 C    1     1.4062     2.6573   21 C    0 0 0
   5 C    1     1.4604     2.7598    9 C    0-1 0
   5 C    1     2.1536     4.0698    1 H    0-1 0
   5 C    1     2.4044     4.5436   45 N    0 0 0
   5 C    1     2.4168     4.5671   26 C    0 0 0

   9 C    1     1.3655     2.5803   29 N    0 0 0
   9 C    1     1.3673     2.5838   37 N    0 0 0
   9 C    1     1.4604     2.7598    5 C    0 1 0
   9 C    1     2.1862     4.1313   41 N    0 0 0
   9 C    1     2.1889     4.1364   33 N    1 1 1
   9 C    1     2.4771     4.6809   13 C    0 1 0

  13 C    1     1.0837     2.0479    1 H    0-1 0
  13 C    1     1.3877     2.6225   26 C    0 0 0
  13 C    1     1.3987     2.6432    5 C    0 0 0
  13 C    1     2.3803     4.4981   21 C    0 0 0
  13 C    1     2.3913     4.5190   17 C    0 0 0
  13 C    1     2.4771     4.6809    9 C    0-1 0

  17 C    1     1.3230     2.5001   45 N    0 0 0
  17 C    1     1.4034     2.6521   26 C    0 0 0
  17 C    1     1.7262     3.2620   57 BR   0 0 0
  17 C    1     2.2925     4.3321   21 C    0 0 0
  17 C    1     2.3913     4.5190   13 C    0 0 0
  17 C    1     2.7210     5.1419   53 BR   0 0 0

  21 C    1     1.3256     2.5050   45 N    0 0 0
  21 C    1     1.4062     2.6573    5 C    0 0 0
  21 C    1     1.7434     3.2946   49 BR   0 0 0
  21 C    1     2.2925     4.3321   17 C    0 0 0
  21 C    1     2.3803     4.4981   13 C    0 0 0
  21 C    1     2.5106     4.7444    9 C    0-1 0

  25 C    1     1.3877     2.6225   14 C    0 0 0
  25 C    1     1.4034     2.6521   18 C    0 0 0
  25 C    1     1.7177     3.2460   54 BR   0 0 0
  25 C    1     2.1388     4.0417    2 H   -1 0 0
  25 C    1     2.3811     4.4997   46 N    0 0 0
  25 C    1     2.4168     4.5671    6 C    0 0 0

  29 N    1     1.3655     2.5803    9 C    0 0 0
  29 N    1     1.3750     2.5984   33 N    1 1 1
  29 N    1     2.1963     4.1503   41 N    0 0 0
  29 N    1     2.2139     4.1836   61 ZN   1 1 0
  29 N    1     2.2362     4.2259   37 N    0 0 0
  29 N    1     2.4505     4.6307    5 C    0 1 0

  33 N    1     1.3198     2.4941   41 N   -1-1-1
  33 N    1     1.3750     2.5984   29 N   -1-1-1
  33 N    1     2.1889     4.1364    9 C   -1-1-1
  33 N    1     2.2096     4.1755   37 N   -1-1-1
  33 N    1     2.9859     5.6425   15 C   -1-1-1
  33 N    1     3.0031     5.6751    7 C   -1-1-1

  37 N    1     1.3673     2.5838    9 C    0 0 0
  37 N    1     1.3830     2.6134   41 N    0 0 0
  37 N    1     2.1629     4.0874   62 ZN   0 0 0
  37 N    1     2.2096     4.1755   33 N    1 1 1
  37 N    1     2.2362     4.2259   29 N    0 0 0
  37 N    1     2.5617     4.8408    5 C    0 1 0

  41 N    1     1.3198     2.4941   33 N    1 1 1
  41 N    1     1.3830     2.6134   37 N    0 0 0
  41 N    1     2.1862     4.1313    9 C    0 0 0
  41 N    1     2.1963     4.1503   29 N    0 0 0
  41 N    1     2.8933     5.4676   62 ZN   0 0 0
  41 N    1     2.9773     5.6263   28 C    0 0 0

  45 N    1     1.3230     2.5001   17 C    0 0 0
  45 N    1     1.3256     2.5050   21 C    0 0 0
  45 N    1     2.3811     4.4997   26 C    0 0 0
  45 N    1     2.4044     4.5436    5 C    0 0 0
  45 N    1     2.6080     4.9285   49 BR   0 0 0
  45 N    1     2.6264     4.9631   57 BR   0 0 0

  49 BR   1     1.7434     3.2946   21 C    0 0 0
  49 BR   1     2.6080     4.9285   45 N    0 0 0
  49 BR   1     2.7460     5.1892    5 C    0 0 0
  49 BR   1     3.0608     5.7841   29 N    0-1 0
  49 BR   1     3.0893     5.8379   30 N    0 0 1
  49 BR   1     3.0926     5.8442   34 N    0 0 0

  53 BR   1     1.7177     3.2460   26 C    0 0 0
  53 BR   1     2.5961     4.9060    3 H    0 0 0
  53 BR   1     2.7025     5.1069   13 C    0 0 0
  53 BR   1     2.7210     5.1419   17 C    0 0 0
  53 BR   1     2.8507     5.3870    1 H    0-1 0
  53 BR   2     3.1600     5.9716   55 BR  -1-1-1   56 BR   0-1 0

  57 BR   1     1.7262     3.2620   17 C    0 0 0
  57 BR   1     2.2282     4.2106    3 H    0 0 0
  57 BR   1     2.6264     4.9631   45 N    0 0 0
  57 BR   1     2.7150     5.1307   26 C    0 0 0
  57 BR   1     3.0099     5.6878   48 N    0 0 0
  57 BR   1     3.0411     5.7468   58 BR   0 0 0

  61 ZN   4     2.2139     4.1836   29 N   -1-1 0   30 N   -1 0 1   31 N    0 0 1
                                    32 N   -1 0 0
  61 ZN   4     3.0825     5.8251   33 N    0 0 1   34 N   -1 0 0   35 N   -1 0 1
                                    36 N   -1-1 0
  61 ZN   4     3.1665     5.9837   49 BR  -1 0 0   50 BR   0 0 1   51 BR  -1-1 0
                                    52 BR  -1 0 1
  61 ZN   4     3.3503     6.3312    9 C   -1-1 0   10 C   -1 0 1   11 C    0 0 1
                                    12 C   -1 0 0
  61 ZN   4     3.6066     6.8154   21 C   -1 0 0   22 C    0 0 1   23 C   -1-1 0
                                    24 C   -1 0 1
  61 ZN   4     3.7407     7.0690    5 C   -1 0 0    6 C    0 0 1    7 C   -1-1 0
                                     8 C   -1 0 1

  62 ZN   4     2.1629     4.0874   37 N    0 0 0   38 N    0 0 0   39 N    1 1 0
                                    40 N    1 1 0
  62 ZN   4     2.8933     5.4676   41 N    0 0 0   42 N    0 0 0   43 N    1 1 0
                                    44 N    1 1 0
  62 ZN   4     3.3955     6.4166    9 C    0 0 0   10 C    0 0 0   11 C    1 1 0
                                    12 C    1 1 0
  62 ZN   4     3.7896     7.1613    1 H    0 0 0    2 H    0 0 0    3 H    1 1 0
                                     4 H    1 1 0
  62 ZN   4     4.1259     7.7968    5 C    0 1 0    6 C    1 0 0    7 C    0 0-1
                                     8 C    1 1 1
  62 ZN   4     4.1286     7.8020   33 N    1 1 1   34 N    0 0-1   35 N    0 1 0
                                    36 N    1 0 0


 SYMMETRY ALLOWED ELASTIC DISTORTION 1
  0.5773503  0.0000000  0.0000000
  0.0000000  0.5773503  0.0000000
  0.0000000  0.0000000  0.5773503

 SYMMETRY ALLOWED ELASTIC DISTORTION 2
  0.4082483  0.0000000  0.0000000
  0.0000000  0.4082483  0.0000000
  0.0000000  0.0000000 -0.8164966

 SYMMETRY ALLOWED INTERNAL DEGREE(S) OF FREEDOM:  45
 TTTTTTTTTTTTTTTTTTTTTTTTTTTTTT SYMM        TELAPSE        4.64 TCPU        1.91
 TTTTTTTTTTTTTTTTTTTTTTTTTTTTTT INT_SCREEN  TELAPSE        4.64 TCPU        1.92

 *******************************************************************************
 *                             OPTIMIZATION STARTS                             *
 *******************************************************************************
 RECLASIFICATION OF INDICES FOR INTEGRAL CALC ACCORDING TO DIFFERENT CRITERIA:
           FIXDELTE                  FIXDELTX              FIXDELTN
          0.10000000               0.80000000                 47
 DEFAULT MAX NUM OF POINTS  100
 *******************************************************************************

 *******************************************************************************
 COORDINATE AND CELL OPTIMIZATION - POINT    1
 INFORMATION **** EXCBUF **** EXCH. BIPO BUFFER: WORDS USED =           0

 DFT PARAMETERS

     ATOM       ELECTRONS   NET CHARGE   R(ANGSTROM)
   1   1  H       1.0000      0.0000     1.11000000
   5   6  C       6.0000      0.0000     0.77000000
  29   7  N       7.0000      0.0000     0.74000000
  49  35  BR     35.0000      0.0000     1.14000000
  61  30  ZN     30.0000      0.0000     1.37000000

 SIZE OF GRID=     466314
 TTTTTTTTTTTTTTTTTTTTTTTTTTTTTT MAKE_GRID2  TELAPSE        5.51 TCPU        2.77
 BECKE WEIGHT FUNCTION
 RADSAFE =     2.00
 TOLERANCES - DENSITY:10**- 6; POTENTIAL:10**- 9; GRID WGT:10**-14

 RADIAL INTEGRATION  - INTERVALS (POINTS,UPPER LIMIT):            1( 75,  4.0*R)

 ANGULAR INTEGRATION - INTERVALS (ACCURACY LEVEL [N. POINTS] UPPER LIMIT):
  1(  4[  86]   0.2)  2(  8[ 194]   0.5)  3( 12[ 350]   0.9)  4( 16[ 974]   3.5)
  5( 12[ 350]9999.0)
 TTTTTTTTTTTTTTTTTTTTTTTTTTTTTT INT_CALC    TELAPSE        5.53 TCPU        2.80

 *******************************************************************************
 C:\Users\wilso\AppData\Local\Temp\tmp_p\newconn.mol                             
 CRYSTAL - SCF - TYPE OF CALCULATION :  RESTRICTED CLOSED SHELL
 *******************************************************************************

 CAPPA:IS1  3;IS2  3;IS3  3; K PTS MONK NET   6; SYMMOPS:K SPACE   8;G SPACE   4

 TTTTTTTTTTTTTTTTTTTTTTTTTTTTTT SDIK        TELAPSE        5.68 TCPU        2.95

 AAAAAAAAAAAAAAAAAAAAAAAAAAAAAAAAAAAAAAAAAAAAAAAAAAAAAAAAAAAAAAAAAAAAAAAAAAAAAAA
         ATOMIC WAVEFUNCTION(S)


 NUCLEAR CHARGE  1.0  SYMMETRY SPECIES            S
 N. ELECTRONS    1.0  NUMBER OF PRIMITIVE GTOS    4
                      NUMBER OF CONTRACTED GTOS   2
                      NUMBER OF CLOSED SHELLS     0
                      OPEN SHELL OCCUPATION       1

  ZNUC SCFIT  TOTAL HF ENERGY   KINETIC ENERGY   VIRIAL THEOREM ACCURACY
   1.0   1   -4.946643675E-01  4.917913167E-01 -2.005842012E+00  9.4E-17

 NUCLEAR CHARGE  6.0  SYMMETRY SPECIES            S    P
 N. ELECTRONS    6.0  NUMBER OF PRIMITIVE GTOS    7    4
                      NUMBER OF CONTRACTED GTOS   3    2
                      NUMBER OF CLOSED SHELLS     2    0
                      OPEN SHELL OCCUPATION       0    2

  ZNUC SCFIT  TOTAL HF ENERGY   KINETIC ENERGY   VIRIAL THEOREM ACCURACY
   6.0   6   -3.750912652E+01  3.905246519E+01 -1.960480378E+00  3.7E-06

 NUCLEAR CHARGE  7.0  SYMMETRY SPECIES            S    P
 N. ELECTRONS    7.0  NUMBER OF PRIMITIVE GTOS    7    4
                      NUMBER OF CONTRACTED GTOS   3    2
                      NUMBER OF CLOSED SHELLS     2    0
                      OPEN SHELL OCCUPATION       0    3

  ZNUC SCFIT  TOTAL HF ENERGY   KINETIC ENERGY   VIRIAL THEOREM ACCURACY
   7.0   9   -5.432196661E+01  5.425066284E+01 -2.001314339E+00  1.2E-06

 NUCLEAR CHARGE 35.0  SYMMETRY SPECIES            S    P    D
 N. ELECTRONS   35.0  NUMBER OF PRIMITIVE GTOS   14   10    7
                      NUMBER OF CONTRACTED GTOS   5    4    4
                      NUMBER OF CLOSED SHELLS     4    2    1
                      OPEN SHELL OCCUPATION       0    5    0

  ZNUC SCFIT  TOTAL HF ENERGY   KINETIC ENERGY   VIRIAL THEOREM ACCURACY
  35.0  13   -2.572060514E+03  2.572021521E+03 -2.000015161E+00  3.6E-06

 NUCLEAR CHARGE 30.0  SYMMETRY SPECIES            S    P    D
 N. ELECTRONS   30.0  NUMBER OF PRIMITIVE GTOS   14    9    5
                      NUMBER OF CONTRACTED GTOS   5    3    2
                      NUMBER OF CLOSED SHELLS     4    2    1
                      OPEN SHELL OCCUPATION       0    0    0

  ZNUC SCFIT  TOTAL HF ENERGY   KINETIC ENERGY   VIRIAL THEOREM ACCURACY
  30.0  10   -1.777404290E+03  1.777325716E+03 -2.000044209E+00  2.5E-06

 AAAAAAAAAAAAAAAAAAAAAAAAAAAAAAAAAAAAAAAAAAAAAAAAAAAAAAAAAAAAAAAAAAAAAAAAAAAAAAA

 CHARGE NORMALIZATION FACTOR   1.00000000
 TOTAL ATOMIC CHARGES:
   1.0000000   1.0000000   1.0000000   1.0000000   6.0000000   6.0000000
   6.0000000   6.0000000   6.0000000   6.0000000   6.0000000   6.0000000
   6.0000000   6.0000000   6.0000000   6.0000000   6.0000000   6.0000000
   6.0000000   6.0000000   6.0000000   6.0000000   6.0000000   6.0000000
   6.0000000   6.0000000   6.0000000   6.0000000   7.0000000   7.0000000
   7.0000000   7.0000000   7.0000000   7.0000000   7.0000000   7.0000000
   7.0000000   7.0000000   7.0000000   7.0000000   7.0000000   7.0000000
   7.0000000   7.0000000   7.0000000   7.0000000   7.0000000   7.0000000
  35.0000000  35.0000000  35.0000000  35.0000000  35.0000000  35.0000000
  35.0000000  35.0000000  35.0000000  35.0000000  35.0000000  35.0000000
  30.0000000  30.0000000
 TTTTTTTTTTTTTTTTTTTTTTTTTTTTTT MOQGAD      TELAPSE        6.78 TCPU        4.04
 TTTTTTTTTTTTTTTTTTTTTTTTTTTTTT SHELLXN     TELAPSE       24.90 TCPU       21.80
 TTTTTTTTTTTTTTTTTTTTTTTTTTTTTT MONMO3      TELAPSE       26.51 TCPU       23.40
 NUMERICALLY INTEGRATED DENSITY    767.9998976502
 TTTTTTTTTTTTTTTTTTTTTTTTTTTTTT NUMDFT      TELAPSE       27.03 TCPU       23.91
 CYC   0 ETOT(AU) -3.645392131181E+04 DETOT -3.65E+04 tst  0.00E+00 PX  1.00E+00
 TTTTTTTTTTTTTTTTTTTTTTTTTTTTTT DIIS        TELAPSE       27.09 TCPU       23.98
 TTTTTTTTTTTTTTTTTTTTTTTTTTTTTT FDIK        TELAPSE       45.08 TCPU       41.58
 INSULATING STATE
 TOP OF VALENCE BANDS -    BAND    384; K    1; EIG -1.2962219E-01 AU
 BOTTOM OF VIRTUAL BANDS - BAND    385; K    1; EIG -9.3280869E-02 AU
 DIRECT ENERGY BAND GAP:   0.9889 eV
 TTTTTTTTTTTTTTTTTTTTTTTTTTTTTT PDIG        TELAPSE       45.94 TCPU       42.44
 CHARGE NORMALIZATION FACTOR   1.00000000
 TOTAL ATOMIC CHARGES:
   1.4061292   1.4061292   1.4061292   1.4061292   6.2061534   6.2061534
   6.2061534   6.2061534   5.4765344   5.4765344   5.4765344   5.4765344
   6.4239089   6.4239089   6.4239089   6.4239089   5.5015947   5.5015947
   5.5015947   5.5015947   5.4603686   5.4603686   5.4603686   5.4603686
   5.6993631   5.6993631   5.6993631   5.6993631   7.4501229   7.4501229
   7.4501229   7.4501229   7.2008804   7.2008804   7.2008804   7.2008804
   7.4129669   7.4129669   7.4129669   7.4129669   7.1841187   7.1841187
   7.1841187   7.1841187   7.5988930   7.5988930   7.5988930   7.5988930
  35.0575368  35.0575368  35.0575368  35.0575368  35.0060476  35.0060476
  35.0060476  35.0060476  34.9000435  34.9000435  34.9000435  34.9000435
  28.0203462  28.0410056
 TTTTTTTTTTTTTTTTTTTTTTTTTTTTTT MOQGAD      TELAPSE       45.96 TCPU       42.45
 TTTTTTTTTTTTTTTTTTTTTTTTTTTTTT SHELLXN     TELAPSE       70.11 TCPU       64.16
 TTTTTTTTTTTTTTTTTTTTTTTTTTTTTT MONMO3      TELAPSE       71.52 TCPU       65.57
 NUMERICALLY INTEGRATED DENSITY    767.9999876813
 TTTTTTTTTTTTTTTTTTTTTTTTTTTTTT NUMDFT      TELAPSE       72.88 TCPU       66.92
 CYC   1 ETOT(AU) -3.644618468848E+04 DETOT  7.74E+00 tst  0.00E+00 PX  1.00E+00
 TTTTTTTTTTTTTTTTTTTTTTTTTTTTTT DIIS        TELAPSE       73.04 TCPU       67.09
 DIIS TEST: 0.75999E+01 AT SCF   CYCLE   1 - MIX   30 %
 TTTTTTTTTTTTTTTTTTTTTTTTTTTTTT FDIK        TELAPSE       81.69 TCPU       73.46
 INSULATING STATE
 TOP OF VALENCE BANDS -    BAND    384; K    1; EIG -1.5734663E-01 AU
 BOTTOM OF VIRTUAL BANDS - BAND    385; K    1; EIG -1.0466720E-01 AU
 DIRECT ENERGY BAND GAP:   1.4335 eV
 TTTTTTTTTTTTTTTTTTTTTTTTTTTTTT PDIG        TELAPSE       82.56 TCPU       74.32
 CHARGE NORMALIZATION FACTOR   1.00000000
 TOTAL ATOMIC CHARGES:
   1.3843233   1.3843233   1.3843233   1.3843233   6.1020070   6.1020070
   6.1020070   6.1020070   6.3361335   6.3361335   6.3361335   6.3361335
   6.1295648   6.1295648   6.1295648   6.1295648   6.2873518   6.2873518
   6.2873518   6.2873518   6.2587531   6.2587531   6.2587531   6.2587531
   5.8826784   5.8826784   5.8826784   5.8826784   6.9092461   6.9092461
   6.9092461   6.9092461   6.9689940   6.9689940   6.9689940   6.9689940
   6.8608436   6.8608436   6.8608436   6.8608436   6.9629121   6.9629121
   6.9629121   6.9629121   6.1929733   6.1929733   6.1929733   6.1929733
  35.1187464  35.1187464  35.1187464  35.1187464  34.9978142  34.9978142
  34.9978142  34.9978142  34.8940308  34.8940308  34.8940308  34.8940308
  29.4832611  29.3712486
 TTTTTTTTTTTTTTTTTTTTTTTTTTTTTT MOQGAD      TELAPSE       82.57 TCPU       74.33
 TTTTTTTTTTTTTTTTTTTTTTTTTTTTTT SHELLXN     TELAPSE      106.48 TCPU       95.91
 TTTTTTTTTTTTTTTTTTTTTTTTTTTTTT MONMO3      TELAPSE      108.37 TCPU       97.79
 NUMERICALLY INTEGRATED DENSITY    767.9999996913
 TTTTTTTTTTTTTTTTTTTTTTTTTTTTTT NUMDFT      TELAPSE      109.68 TCPU       99.09
 CYC   2 ETOT(AU) -3.644554930107E+04 DETOT  6.35E-01 tst  1.33E-02 PX  6.61E-01
 TTTTTTTTTTTTTTTTTTTTTTTTTTTTTT DIIS        TELAPSE      109.87 TCPU       99.28
 DIIS TEST: 0.11810E+02 AT SCF   CYCLE   2 - DIIS ACTIVE - HISTORY:     2 CYCLES
 TTTTTTTTTTTTTTTTTTTTTTTTTTTTTT FDIK        TELAPSE      115.25 TCPU      104.44
 INSULATING STATE
 TOP OF VALENCE BANDS -    BAND    384; K    4; EIG -1.9169149E-01 AU
 TOP OF VALENCE BANDS -    BAND    384; K    1; EIG -1.9327816E-01 AU
 BOTTOM OF VIRTUAL BANDS - BAND    385; K    5; EIG -1.0104468E-01 AU
 INDIRECT ENERGY BAND GAP:   2.4666 eV
 BOTTOM OF VIRTUAL BANDS - BAND    385; K    1; EIG -9.8295877E-02 AU
 TTTTTTTTTTTTTTTTTTTTTTTTTTTTTT PDIG        TELAPSE      116.11 TCPU      105.30
 CHARGE NORMALIZATION FACTOR   1.00000000
 TOTAL ATOMIC CHARGES:
   1.3688790   1.3688790   1.3688790   1.3688790   6.0133708   6.0133708
   6.0133708   6.0133708   5.8057521   5.8057521   5.8057521   5.8057521
   6.2023650   6.2023650   6.2023650   6.2023650   5.9076066   5.9076066
   5.9076066   5.9076066   5.8144826   5.8144826   5.8144826   5.8144826
   5.7693065   5.7693065   5.7693065   5.7693065   7.1240624   7.1240624
   7.1240624   7.1240624   7.1139602   7.1139602   7.1139602   7.1139602
   7.1610937   7.1610937   7.1610937   7.1610937   7.1062897   7.1062897
   7.1062897   7.1062897   7.3241881   7.3241881   7.3241881   7.3241881
  34.9733491  34.9733491  34.9733491  34.9733491  34.9113631  34.9113631
  34.9113631  34.9113631  34.9223975  34.9223975  34.9223975  34.9223975
  28.9507303  28.9754036
 TTTTTTTTTTTTTTTTTTTTTTTTTTTTTT MOQGAD      TELAPSE      116.13 TCPU      105.32
 TTTTTTTTTTTTTTTTTTTTTTTTTTTTTT SHELLXN     TELAPSE      138.26 TCPU      127.16
 TTTTTTTTTTTTTTTTTTTTTTTTTTTTTT MONMO3      TELAPSE      139.82 TCPU      128.72
 NUMERICALLY INTEGRATED DENSITY    767.9999890639
 TTTTTTTTTTTTTTTTTTTTTTTTTTTTTT NUMDFT      TELAPSE      141.16 TCPU      130.04
 CYC   3 ETOT(AU) -3.644747063673E+04 DETOT -1.92E+00 tst  3.45E-03 PX  4.45E-01
 TTTTTTTTTTTTTTTTTTTTTTTTTTTTTT DIIS        TELAPSE      141.35 TCPU      130.23
 DIIS TEST: 0.13772E+01 AT SCF   CYCLE   3 - DIIS ACTIVE - HISTORY:     3 CYCLES
 TTTTTTTTTTTTTTTTTTTTTTTTTTTTTT FDIK        TELAPSE      149.58 TCPU      136.19
 INSULATING STATE
 TOP OF VALENCE BANDS -    BAND    384; K    4; EIG -1.9731493E-01 AU
 TOP OF VALENCE BANDS -    BAND    384; K    1; EIG -1.9967129E-01 AU
 BOTTOM OF VIRTUAL BANDS - BAND    385; K    5; EIG -1.0205609E-01 AU
 INDIRECT ENERGY BAND GAP:   2.5921 eV
 BOTTOM OF VIRTUAL BANDS - BAND    385; K    1; EIG -9.8723407E-02 AU
 TTTTTTTTTTTTTTTTTTTTTTTTTTTTTT PDIG        TELAPSE      150.45 TCPU      137.05
 CHARGE NORMALIZATION FACTOR   1.00000000
 TOTAL ATOMIC CHARGES:
   1.3606089   1.3606089   1.3606089   1.3606089   6.1981890   6.1981890
   6.1981890   6.1981890   5.8284644   5.8284644   5.8284644   5.8284644
   6.3636293   6.3636293   6.3636293   6.3636293   5.7547217   5.7547217
   5.7547217   5.7547217   5.7735478   5.7735478   5.7735478   5.7735478
   5.8156692   5.8156692   5.8156692   5.8156692   7.2367373   7.2367373
   7.2367373   7.2367373   7.1152348   7.1152348   7.1152348   7.1152348
   7.1586783   7.1586783   7.1586783   7.1586783   7.0791759   7.0791759
   7.0791759   7.0791759   7.0252910   7.0252910   7.0252910   7.0252910
  35.0437907  35.0437907  35.0437907  35.0437907  35.0040313  35.0040313
  35.0040313  35.0040313  34.8568909  34.8568909  34.8568909  34.8568909
  28.7690714  28.7722862
 TTTTTTTTTTTTTTTTTTTTTTTTTTTTTT MOQGAD      TELAPSE      150.47 TCPU      137.07
 TTTTTTTTTTTTTTTTTTTTTTTTTTTTTT SHELLXN     TELAPSE      172.67 TCPU      158.94
 TTTTTTTTTTTTTTTTTTTTTTTTTTTTTT MONMO3      TELAPSE      174.19 TCPU      160.47
 NUMERICALLY INTEGRATED DENSITY    767.9999974829
 TTTTTTTTTTTTTTTTTTTTTTTTTTTTTT NUMDFT      TELAPSE      175.49 TCPU      161.76
 CYC   4 ETOT(AU) -3.644759533307E+04 DETOT -1.25E-01 tst  1.73E-03 PX  1.10E-01
 TTTTTTTTTTTTTTTTTTTTTTTTTTTTTT DIIS        TELAPSE      175.64 TCPU      161.91
 DIIS TEST: 0.56700E+00 AT SCF   CYCLE   4 - DIIS ACTIVE - HISTORY:     4 CYCLES
 TTTTTTTTTTTTTTTTTTTTTTTTTTTTTT FDIK        TELAPSE      181.61 TCPU      167.68
 INSULATING STATE
 TOP OF VALENCE BANDS -    BAND    384; K    4; EIG -1.9864764E-01 AU
 TOP OF VALENCE BANDS -    BAND    384; K    1; EIG -2.0040064E-01 AU
 BOTTOM OF VIRTUAL BANDS - BAND    385; K    5; EIG -1.0332881E-01 AU
 INDIRECT ENERGY BAND GAP:   2.5938 eV
 BOTTOM OF VIRTUAL BANDS - BAND    385; K    1; EIG -1.0077276E-01 AU
 TTTTTTTTTTTTTTTTTTTTTTTTTTTTTT PDIG        TELAPSE      182.50 TCPU      168.57
 CHARGE NORMALIZATION FACTOR   1.00000000
 TOTAL ATOMIC CHARGES:
   1.3624224   1.3624224   1.3624224   1.3624224   6.1298361   6.1298361
   6.1298361   6.1298361   5.8512329   5.8512329   5.8512329   5.8512329
   6.2798372   6.2798372   6.2798372   6.2798372   5.8917570   5.8917570
   5.8917570   5.8917570   5.8274704   5.8274704   5.8274704   5.8274704
   5.7911467   5.7911467   5.7911467   5.7911467   7.1623307   7.1623307
   7.1623307   7.1623307   7.1050683   7.1050683   7.1050683   7.1050683
   7.1510126   7.1510126   7.1510126   7.1510126   7.1166392   7.1166392
   7.1166392   7.1166392   7.0873778   7.0873778   7.0873778   7.0873778
  35.0229281  35.0229281  35.0229281  35.0229281  34.9580376  34.9580376
  34.9580376  34.9580376  34.8803275  34.8803275  34.8803275  34.8803275
  28.7683132  28.7619881
 TTTTTTTTTTTTTTTTTTTTTTTTTTTTTT MOQGAD      TELAPSE      182.52 TCPU      168.59
 TTTTTTTTTTTTTTTTTTTTTTTTTTTTTT SHELLXN     TELAPSE      205.81 TCPU      190.54
 TTTTTTTTTTTTTTTTTTTTTTTTTTTTTT MONMO3      TELAPSE      207.24 TCPU      191.96
 NUMERICALLY INTEGRATED DENSITY    767.9999942722
 TTTTTTTTTTTTTTTTTTTTTTTTTTTTTT NUMDFT      TELAPSE      208.57 TCPU      193.28
 CYC   5 ETOT(AU) -3.644767088408E+04 DETOT -7.56E-02 tst  3.37E-04 PX  3.96E-02
 TTTTTTTTTTTTTTTTTTTTTTTTTTTTTT DIIS        TELAPSE      208.73 TCPU      193.44
 DIIS TEST: 0.35903E-01 AT SCF   CYCLE   5 - DIIS ACTIVE - HISTORY:     5 CYCLES
 TTTTTTTTTTTTTTTTTTTTTTTTTTTTTT FDIK        TELAPSE      217.34 TCPU      198.99
 INSULATING STATE
 TOP OF VALENCE BANDS -    BAND    384; K    4; EIG -1.9796913E-01 AU
 TOP OF VALENCE BANDS -    BAND    384; K    1; EIG -1.9961155E-01 AU
 BOTTOM OF VIRTUAL BANDS - BAND    385; K    5; EIG -1.0229274E-01 AU
 INDIRECT ENERGY BAND GAP:   2.6035 eV
 BOTTOM OF VIRTUAL BANDS - BAND    385; K    1; EIG -9.8944886E-02 AU
 TTTTTTTTTTTTTTTTTTTTTTTTTTTTTT PDIG        TELAPSE      218.20 TCPU      199.86
 CHARGE NORMALIZATION FACTOR   1.00000000
 TOTAL ATOMIC CHARGES:
   1.3626733   1.3626733   1.3626733   1.3626733   6.1267666   6.1267666
   6.1267666   6.1267666   5.8401311   5.8401311   5.8401311   5.8401311
   6.2916246   6.2916246   6.2916246   6.2916246   5.8411679   5.8411679
   5.8411679   5.8411679   5.8129407   5.8129407   5.8129407   5.8129407
   5.7873709   5.7873709   5.7873709   5.7873709   7.1955837   7.1955837
   7.1955837   7.1955837   7.1202021   7.1202021   7.1202021   7.1202021
   7.1472070   7.1472070   7.1472070   7.1472070   7.0773111   7.0773111
   7.0773111   7.0773111   7.1084739   7.1084739   7.1084739   7.1084739
  35.0307185  35.0307185  35.0307185  35.0307185  34.9698379  34.9698379
  34.9698379  34.9698379  34.8895475  34.8895475  34.8895475  34.8895475
  28.8005549  28.7932176
 TTTTTTTTTTTTTTTTTTTTTTTTTTTTTT MOQGAD      TELAPSE      218.22 TCPU      199.87
 TTTTTTTTTTTTTTTTTTTTTTTTTTTTTT SHELLXN     TELAPSE      240.11 TCPU      221.64
 TTTTTTTTTTTTTTTTTTTTTTTTTTTTTT MONMO3      TELAPSE      243.94 TCPU      225.45
 NUMERICALLY INTEGRATED DENSITY    767.9999952373
 TTTTTTTTTTTTTTTTTTTTTTTTTTTTTT NUMDFT      TELAPSE      245.28 TCPU      226.78
 CYC   6 ETOT(AU) -3.644767451162E+04 DETOT -3.63E-03 tst  1.82E-05 PX  3.52E-02
 TTTTTTTTTTTTTTTTTTTTTTTTTTTTTT DIIS        TELAPSE      245.43 TCPU      226.94
 DIIS TEST: 0.17830E-01 AT SCF   CYCLE   6 - DIIS ACTIVE - HISTORY:     6 CYCLES
 TTTTTTTTTTTTTTTTTTTTTTTTTTTTTT FDIK        TELAPSE      252.81 TCPU      232.38
 INSULATING STATE
[...]
  45 N    1     2.7271     5.1535   13 C    0 0 0

  49 BR   1     1.8989     3.5884   21 C    0 0 0
  49 BR   1     2.7203     5.1406   45 N    0 0 0
  49 BR   1     2.9109     5.5008    5 C    0 0 0
  49 BR   1     3.0842     5.8283   61 ZN   1 0 0
  49 BR   1     3.1189     5.8938   30 N    0 0 1
  49 BR   1     3.1294     5.9136   34 N    0 0 0

  53 BR   1     1.8805     3.5537   26 C    0 0 0
  53 BR   1     2.6855     5.0749    3 H    0 0 0
  53 BR   1     2.8310     5.3499   13 C    0 0 0
  53 BR   1     2.8931     5.4671   17 C    0 0 0
  53 BR   1     2.9433     5.5621    1 H    0-1 0
  53 BR   1     3.2789     6.1962   44 N    0 0 0

  57 BR   1     1.8833     3.5590   17 C    0 0 0
  57 BR   1     2.3465     4.4342    3 H    0 0 0
  57 BR   1     2.7433     5.1842   45 N    0 0 0
  57 BR   1     2.8992     5.4787   26 C    0 0 0
  57 BR   1     3.1065     5.8705   48 N    0 0 0
  57 BR   1     3.1522     5.9567   46 N    0 0 0

  61 ZN   4     2.3502     4.4412   29 N   -1-1 0   30 N   -1 0 1   31 N    0 0 1
                                    32 N   -1 0 0
  61 ZN   4     3.0842     5.8283   49 BR  -1 0 0   50 BR   0 0 1   51 BR  -1-1 0
                                    52 BR  -1 0 1
  61 ZN   4     3.1824     6.0139   33 N    0 0 1   34 N   -1 0 0   35 N   -1 0 1
                                    36 N   -1-1 0
  61 ZN   4     3.5000     6.6141    9 C   -1-1 0   10 C   -1 0 1   11 C    0 0 1
                                    12 C   -1 0 0
  61 ZN   4     3.7135     7.0175   21 C   -1 0 0   22 C    0 0 1   23 C   -1-1 0
                                    24 C   -1 0 1
  61 ZN   4     3.8915     7.3538    5 C   -1 0 0    6 C    0 0 1    7 C   -1-1 0
                                     8 C   -1 0 1

  62 ZN   4     2.1788     4.1173   37 N    0 0 0   38 N    0 0 0   39 N    1 1 0
                                    40 N    1 1 0
  62 ZN   4     2.8544     5.3941   41 N    0 0 0   42 N    0 0 0   43 N    1 1 0
                                    44 N    1 1 0
  62 ZN   4     3.4378     6.4965    9 C    0 0 0   10 C    0 0 0   11 C    1 1 0
                                    12 C    1 1 0
  62 ZN   4     3.8621     7.2983    1 H    0 0 0    2 H    0 0 0    3 H    1 1 0
                                     4 H    1 1 0
  62 ZN   4     4.1059     7.7591   33 N    1 1 1   34 N    0 0-1   35 N    0 1 0
                                    36 N    1 0 0
  62 ZN   4     4.2060     7.9482    5 C    0 1 0    6 C    1 0 0    7 C    0 0-1
                                     8 C    1 1 1


 FINAL OPTIMIZED GEOMETRY - DIMENSIONALITY OF THE SYSTEM      3
 (NON PERIODIC DIRECTION: LATTICE PARAMETER FORMALLY SET TO 500)
 *******************************************************************************
 LATTICE PARAMETERS (ANGSTROMS AND DEGREES) - BOHR = 0.5291772083 ANGSTROM
 PRIMITIVE CELL - CENTRING CODE 6/0 VOLUME=   882.271441 - DENSITY  3.100 g/cm^3
         A              B              C           ALPHA      BETA       GAMMA 
    10.46515629    10.46515629    10.46515629   109.290304 109.290304 109.833663
 *******************************************************************************
 ATOMS IN THE ASYMMETRIC UNIT   17 - ATOMS IN THE UNIT CELL:   62
     ATOM                 X/A                 Y/B                 Z/C    
 *******************************************************************************
      1 T   1 H     8.295133346865E-02  4.286203102298E-01 -1.030113123420E-01
      2 F   1 H    -4.683683774282E-01  1.859626458107E-01  1.030113123420E-01
      3 F   1 H    -4.286203102298E-01  4.683683774282E-01 -3.456689767611E-01
      4 F   1 H    -1.859626458107E-01 -8.295133346865E-02  3.456689767611E-01
      5 T   6 C     2.056515289751E-01 -3.381286545874E-01  9.139681375348E-02
      6 F   6 C    -4.295254683409E-01  1.142547152216E-01 -9.139681375348E-02
      7 F   6 C     3.381286545874E-01  4.295254683409E-01 -4.562198164376E-01
      8 F   6 C    -1.142547152216E-01 -2.056515289751E-01  4.562198164376E-01
      9 T   6 C     3.208781657760E-01 -3.638654368877E-01  1.881586713732E-01
     10 F   6 C     4.479758917392E-01  1.327194944028E-01 -1.881586713732E-01
     11 F   6 C     3.638654368877E-01 -4.479758917392E-01 -3.152563973363E-01
     12 F   6 C    -1.327194944028E-01 -3.208781657760E-01  3.152563973363E-01
     13 T   6 C     8.022364332439E-02 -4.638933858694E-01 -5.476697268925E-02
     14 F   6 C    -4.091264131801E-01  1.349906160136E-01  5.476697268925E-02
     15 F   6 C     4.638933858694E-01  4.091264131801E-01 -4.558829708062E-01
     16 F   6 C    -1.349906160136E-01 -8.022364332439E-02  4.558829708062E-01
     17 T   6 C    -5.002526241618E-02 -3.164277223810E-01 -6.915793821304E-02
     18 F   6 C    -2.472697841680E-01  1.913267579686E-02  6.915793821304E-02
     19 F   6 C     3.164277223810E-01  2.472697841680E-01  2.664024599649E-01
     20 F   6 C    -1.913267579686E-02  5.002526241618E-02 -2.664024599649E-01
     21 T   6 C     1.875990747879E-01 -2.074899166385E-01  1.492538592318E-01
     22 F   6 C    -3.567437758703E-01  3.834521555608E-02 -1.492538592318E-01
     23 F   6 C     2.074899166385E-01  3.567437758703E-01  3.950889914263E-01
     24 F   6 C    -3.834521555608E-02 -1.875990747879E-01 -3.950889914263E-01
     25 T   6 C    -3.339385726863E-01  7.126643657685E-02  1.275937858855E-01
     26 F   6 C    -5.632734930870E-02 -4.615323585719E-01 -1.275937858855E-01
     27 F   6 C    -7.126643657685E-02  5.632734930870E-02 -4.052050092632E-01
     28 F   6 C     4.615323585719E-01  3.339385726863E-01  4.052050092632E-01
     29 T   7 N     3.393023452512E-01 -3.422871951629E-01  3.306383015316E-01
     30 F   7 N     3.270745033055E-01  8.664043719647E-03 -3.306383015316E-01
     31 F   7 N     3.422871951629E-01 -3.270745033055E-01 -3.184104595859E-01
     32 F   7 N    -8.664043719647E-03 -3.393023452512E-01  3.184104595859E-01
     33 T   7 N     4.474440269859E-01 -3.842656103794E-01  3.870458457285E-01
     34 F   7 N     2.286885438921E-01  6.039818125735E-02 -3.870458457285E-01
     35 F   7 N     3.842656103794E-01 -2.286885438921E-01 -1.682903626348E-01
     36 F   7 N    -6.039818125735E-02 -4.474440269859E-01  1.682903626348E-01
     37 T   7 N     4.122793672525E-01 -4.218157592577E-01  1.546216097533E-01
     38 F   7 N     4.235626309890E-01  2.576577574993E-01 -1.546216097533E-01
     39 F   7 N     4.218157592577E-01 -4.235626309890E-01 -1.659048734898E-01
     40 F   7 N    -2.576577574993E-01 -4.122793672525E-01  1.659048734898E-01
     41 T   7 N     4.903958455638E-01 -4.315243612082E-01  2.831649200884E-01
     42 F   7 N     2.853107187034E-01  2.072309254753E-01 -2.831649200884E-01
     43 F   7 N     4.315243612082E-01 -2.853107187034E-01 -7.807979322806E-02
     44 F   7 N    -2.072309254753E-01 -4.903958455638E-01  7.807979322806E-02
     45 T   7 N     7.013907816744E-02 -1.956483045939E-01  6.640460065003E-02
     46 F   7 N    -2.620529052439E-01  3.734477517406E-03 -6.640460065003E-02
     47 F   7 N     1.956483045939E-01  2.620529052439E-01  2.657873827613E-01
     48 F   7 N    -3.734477517406E-03 -7.013907816744E-02 -2.657873827613E-01
     49 T  35 BR    3.230549114688E-01 -3.802792729657E-02  3.575990197082E-01
     50 F  35 BR   -3.956269470048E-01 -3.454410823941E-02 -3.575990197082E-01
     51 F  35 BR    3.802792729657E-02  3.956269470048E-01  3.610828387653E-01
     52 F  35 BR    3.454410823941E-02 -3.230549114688E-01 -3.610828387654E-01
     53 T  35 BR   -2.457031832390E-01  3.473155368671E-01 -2.692817842340E-01
     54 F  35 BR   -3.834026788989E-01  2.357860099504E-02  2.692817842340E-01
     55 F  35 BR   -3.473155368671E-01  3.834026788989E-01  4.069812798939E-01
     56 F  35 BR   -2.357860099504E-02  2.457031832390E-01 -4.069812798939E-01
     57 T  35 BR   -2.056525896763E-01 -2.809567950579E-01 -1.776842996535E-01
     58 F  35 BR   -1.032724954044E-01 -2.796829002277E-02  1.776842996535E-01
     59 F  35 BR    2.809567950579E-01  1.032724954044E-01  7.530420538166E-02
     60 F  35 BR    2.796829002277E-02  2.056525896763E-01 -7.530420538166E-02
     61 T  30 ZN    2.500000000000E-01 -2.500000000000E-01 -5.000000000000E-01
     62 T  30 ZN    5.000000000000E-01 -5.000000000000E-01 -2.556224528898E-20

 TRANSFORMATION MATRIX PRIMITIVE-CRYSTALLOGRAPHIC CELL
  0.0000  1.0000  1.0000  1.0000  0.0000  1.0000  1.0000  1.0000  0.0000

 *******************************************************************************
 CRYSTALLOGRAPHIC CELL (VOLUME=       1764.54288184)
         A              B              C           ALPHA      BETA       GAMMA 
    12.11108744    12.11108744    12.03000860    90.000000  90.000000  90.000000

 COORDINATES IN THE CRYSTALLOGRAPHIC CELL
     ATOM                 X/A                 Y/B                 Z/C    
 *******************************************************************************
      1 T   1 H     1.213288322096E-01 -2.243401445516E-01  3.072914780202E-01
      2 F   1 H    -1.213288322096E-01  2.243401445516E-01  3.072914780202E-01
      3 F   1 H    -2.243401445516E-01 -1.213288322096E-01 -3.072914780202E-01
      4 F   1 H     2.243401445516E-01  1.213288322096E-01 -3.072914780202E-01
      5 T   6 C    -2.261916849045E-01  3.175884986580E-01 -1.119369696829E-01
      6 F   6 C     2.261916849045E-01 -3.175884986580E-01 -1.119369696829E-01
      7 F   6 C     3.175884986580E-01  2.261916849045E-01  1.119369696829E-01
      8 F   6 C    -3.175884986580E-01 -2.261916849045E-01  1.119369696829E-01
      9 T   6 C     2.517075343547E-01 -6.354886298159E-02  3.844270287576E-01
     10 F   6 C    -2.517075343547E-01  6.354886298159E-02  3.844270287576E-01
     11 F   6 C    -6.354886298159E-02 -2.517075343547E-01 -3.844270287576E-01
     12 F   6 C     6.354886298159E-02  2.517075343547E-01 -3.844270287576E-01
     13 T   6 C    -2.994420009415E-01  2.446750282523E-01 -1.644513849279E-01
     14 F   6 C     2.994420009415E-01 -2.446750282523E-01 -1.644513849279E-01
     15 F   6 C     2.446750282523E-01  2.994420009415E-01  1.644513849279E-01
     16 F   6 C    -2.446750282523E-01 -2.994420009415E-01  1.644513849279E-01
     17 T   6 C    -1.677801990890E-01  9.862226087591E-02 -1.486475232921E-01
     18 F   6 C     1.677801990890E-01 -9.862226087591E-02 -1.486475232921E-01
     19 F   6 C     9.862226087591E-02  1.677801990890E-01  1.486475232921E-01
     20 F   6 C    -9.862226087591E-02 -1.677801990890E-01  1.486475232921E-01
     21 T   6 C    -1.229175660973E-01  2.721714253291E-01 -8.457235054118E-02
     22 F   6 C     1.229175660973E-01 -2.721714253291E-01 -8.457235054118E-02
     23 F   6 C     2.721714253291E-01  1.229175660973E-01  8.457235054118E-02
     24 F   6 C    -2.721714253291E-01 -1.229175660973E-01  8.457235054118E-02
     25 T   6 C     2.663993975744E-01 -1.388056116888E-01 -1.951329609975E-01
     26 F   6 C    -2.663993975744E-01  1.388056116888E-01 -1.951329609975E-01
     27 F   6 C    -1.388056116888E-01 -2.663993975744E-01  1.951329609975E-01
     28 F   6 C     1.388056116888E-01  2.663993975744E-01  1.951329609975E-01
     29 T   7 N     3.245243805587E-01  6.113920972850E-03  3.331884242784E-01
     30 F   7 N    -3.245243805587E-01 -6.113920972851E-03  3.331884242784E-01
     31 F   7 N     6.113920972851E-03 -3.245243805587E-01 -3.331884242784E-01
     32 F   7 N    -6.113920972851E-03  3.245243805587E-01 -3.331884242784E-01
     33 T   7 N    -2.223318958184E-01 -3.906222584531E-01 -1.619337145610E-01
     34 F   7 N     2.223318958184E-01  3.906222584531E-01 -1.619337145610E-01
     35 F   7 N    -3.906222584531E-01  2.223318958184E-01  1.619337145610E-01
     36 F   7 N     3.906222584531E-01 -2.223318958184E-01  1.619337145610E-01
     37 T   7 N     1.602632416215E-01 -5.641631868243E-03  4.179209991208E-01
     38 F   7 N    -1.602632416215E-01  5.641631868243E-03  4.179209991208E-01
     39 F   7 N    -5.641631868243E-03 -1.602632416215E-01 -4.179209991208E-01
     40 F   7 N     5.641631868243E-03  1.602632416215E-01 -4.179209991208E-01
     41 T   7 N     1.806223566583E-01  1.025425634302E-01  3.878532821336E-01
     42 F   7 N    -1.806223566583E-01 -1.025425634302E-01  3.878532821336E-01
     43 F   7 N     1.025425634302E-01 -1.806223566583E-01 -3.878532821336E-01
     44 F   7 N    -1.025425634302E-01  1.806223566583E-01 -3.878532821336E-01
     45 T   7 N    -9.969139105566E-02  1.660959917057E-01 -9.595691353825E-02
     46 F   7 N     9.969139105566E-02 -1.660959917057E-01 -9.595691353825E-02
     47 F   7 N     1.660959917057E-01  9.969139105566E-02  9.595691353825E-02
     48 F   7 N    -1.660959917057E-01 -9.969139105566E-02  9.595691353825E-02
     49 T  35 BR   -1.741909528579E-03  3.593409292368E-01 -3.628601776799E-02
     50 F  35 BR    1.741909528579E-03 -3.593409292368E-01 -3.628601776799E-02
     51 F  35 BR    3.593409292368E-01  1.741909528579E-03  3.628601776799E-02
     52 F  35 BR   -3.593409292368E-01 -1.741909528579E-03  3.628601776799E-02
     53 T  35 BR   -3.381315320640E-01  6.884974782995E-02 -3.145529310689E-01
     54 F  35 BR    3.381315320640E-01 -6.884974782995E-02 -3.145529310689E-01
     55 F  35 BR    6.884974782995E-02  3.381315320640E-01  3.145529310689E-01
     56 F  35 BR   -6.884974782995E-02 -3.381315320640E-01  3.145529310689E-01
     57 T  35 BR   -1.264942525176E-01 -5.119004713591E-02 -1.544625425403E-01
     58 F  35 BR    1.264942525176E-01  5.119004713591E-02 -1.544625425403E-01
     59 F  35 BR   -5.119004713591E-02  1.264942525176E-01  1.544625425403E-01
     60 F  35 BR    5.119004713591E-02 -1.264942525176E-01  1.544625425403E-01
     61 T  30 ZN   -5.000000000000E-01 -2.556224528905E-20  2.500000000000E-01
     62 T  30 ZN    3.235562306571E-32 -2.556224528902E-20 -5.000000000000E-01

 T = ATOM BELONGING TO THE ASYMMETRIC UNIT
 INFORMATION **** fort.34 **** GEOMETRY OUTPUT FILE

 DIRECT LATTICE VECTORS CARTESIAN COMPONENTS (ANGSTROM)
          X                    Y                    Z
  -0.605554371929E+01   0.605554371929E+01   0.601500429967E+01
   0.605554371929E+01  -0.605554371929E+01   0.601500429967E+01
   0.605554371929E+01   0.605554371929E+01  -0.601500429967E+01


 CARTESIAN COORDINATES - PRIMITIVE CELL
 *******************************************************************************
 *      ATOM          X(ANGSTROM)         Y(ANGSTROM)         Z(ANGSTROM)
 *******************************************************************************
    1     1 H     1.469424095710E+00 -2.717003106646E+00  3.696719123090E+00
    2     1 H    -1.469424095710E+00  2.717003106646E+00  3.696719123090E+00
    3     1 H    -2.717003106646E+00 -1.469424095710E+00 -3.696719123090E+00
    4     1 H     2.717003106646E+00  1.469424095710E+00 -3.696719123090E+00
    5     6 C    -2.739427273756E+00  3.846342076731E+00 -1.346602707870E+00
    6     6 C     2.739427273756E+00 -3.846342076731E+00 -1.346602707870E+00
    7     6 C     3.846342076731E+00  2.739427273756E+00  1.346602707870E+00
    8     6 C    -3.846342076731E+00 -2.739427273756E+00  1.346602707870E+00
    9     6 C     3.048451957517E+00 -7.696458361918E-01  4.624660461776E+00
   10     6 C    -3.048451957517E+00  7.696458361918E-01  4.624660461776E+00
   11     6 C    -7.696458361918E-01 -3.048451957517E+00 -4.624660461776E+00
   12     6 C     7.696458361918E-01  3.048451957517E+00 -4.624660461776E+00
   13     6 C    -3.626568256183E+00  2.963280661198E+00 -1.978351574857E+00
   14     6 C     3.626568256183E+00 -2.963280661198E+00 -1.978351574857E+00
   15     6 C     2.963280661198E+00  3.626568256183E+00  1.978351574857E+00
   16     6 C    -2.963280661198E+00 -3.626568256183E+00  1.978351574857E+00
   17     6 C    -2.032000661627E+00  1.194422824858E+00 -1.788230983476E+00
   18     6 C     2.032000661627E+00 -1.194422824858E+00 -1.788230983476E+00
   19     6 C     1.194422824858E+00  2.032000661627E+00  1.788230983476E+00
   20     6 C    -1.194422824858E+00 -2.032000661627E+00  1.788230983476E+00
   21     6 C    -1.488665390740E+00  3.296291930441E+00 -1.017406104278E+00
   22     6 C     1.488665390740E+00 -3.296291930441E+00 -1.017406104278E+00
   23     6 C     3.296291930441E+00  1.488665390740E+00  1.017406104278E+00
   24     6 C    -3.296291930441E+00 -1.488665390740E+00  1.017406104278E+00
   25     6 C     3.226386397606E+00 -1.681086900127E+00 -2.347451198817E+00
   26     6 C    -3.226386397606E+00  1.681086900127E+00 -2.347451198817E+00
   27     6 C    -1.681086900127E+00 -3.226386397606E+00  2.347451198817E+00
   28     6 C     1.681086900127E+00  3.226386397606E+00  2.347451198817E+00
   29     7 N     3.930343148895E+00  7.404623149470E-02  4.008259609272E+00
   30     7 N    -3.930343148895E+00 -7.404623149470E-02  4.008259609272E+00
   31     7 N     7.404623149470E-02 -3.930343148895E+00 -4.008259609272E+00
   32     7 N    -7.404623149470E-02  3.930343148895E+00 -4.008259609272E+00
   33     7 N    -2.692681030640E+00 -4.730860327578E+00 -1.948063978694E+00
   34     7 N     2.692681030640E+00  4.730860327578E+00 -1.948063978694E+00
   35     7 N    -4.730860327578E+00  2.692681030640E+00  1.948063978694E+00
   36     7 N     4.730860327578E+00 -2.692681030640E+00  1.948063978694E+00
   37     7 N     1.940962132467E+00 -6.832629685252E-02  5.027593213272E+00
   38     7 N    -1.940962132467E+00  6.832629685252E-02  5.027593213272E+00
   39     7 N    -6.832629685252E-02 -1.940962132467E+00 -5.027593213272E+00
   40     7 N     6.832629685252E-02  1.940962132467E+00 -5.027593213272E+00
   41     7 N     2.187533154849E+00  1.241901951878E+00  4.665878319353E+00
   42     7 N    -2.187533154849E+00 -1.241901951878E+00  4.665878319353E+00
   43     7 N     1.241901951878E+00 -2.187533154849E+00 -4.665878319353E+00
   44     7 N    -1.241901951878E+00  2.187533154849E+00 -4.665878319353E+00
   45     7 N    -1.207371153948E+00  2.011603078744E+00 -1.154362495032E+00
   46     7 N     1.207371153948E+00 -2.011603078744E+00 -1.154362495032E+00
   47     7 N     2.011603078744E+00  1.207371153948E+00  1.154362495032E+00
   48     7 N    -2.011603078744E+00 -1.207371153948E+00  1.154362495032E+00
   49    35 BR   -2.109641861070E-02  4.352009414244E+00 -4.365211057851E-01
   50    35 BR    2.109641861070E-02 -4.352009414244E+00 -4.365211057851E-01
   51    35 BR    4.352009414244E+00  2.109641861070E-02  4.365211057851E-01
   52    35 BR   -4.352009414244E+00 -2.109641861070E-02  4.365211057851E-01
   53    35 BR   -4.095140550565E+00  8.338453160921E-01 -3.784074465710E+00
   54    35 BR    4.095140550565E+00 -8.338453160921E-01 -3.784074465710E+00
   55    35 BR    8.338453160921E-01  4.095140550565E+00  3.784074465710E+00
   56    35 BR   -8.338453160921E-01 -4.095140550565E+00  3.784074465710E+00
   57    35 BR   -1.531982952717E+00 -6.199671368476E-01 -1.858185715038E+00
   58    35 BR    1.531982952717E+00  6.199671368476E-01 -1.858185715038E+00
   59    35 BR   -6.199671368476E-01  1.531982952717E+00  1.858185715038E+00
   60    35 BR    6.199671368476E-01 -1.531982952717E+00  1.858185715038E+00
   61    30 ZN    6.055543719285E+00 -3.095865878219E-19 -9.022506449512E+00
   62    30 ZN    3.918617800782E-31 -3.095865878215E-19  6.015004299675E+00

 ****    4 SYMMOPS - TRANSLATORS IN FRACTIONAL UNITS
 **** MATRICES AND TRANSLATORS IN THE CRYSTALLOGRAPHIC REFERENCE FRAME
   V INV                    ROTATION MATRICES                   TRANSLATORS
   1   1  1.00  0.00  0.00  0.00  1.00  0.00  0.00  0.00  1.00  0.00  0.00  0.00
   2   2  0.00  1.00 -1.00  1.00  0.00 -1.00  0.00 -0.00 -1.00  0.00  0.00  0.00
   3   4  0.00 -1.00 -0.00 -0.00 -1.00  1.00  1.00 -1.00 -0.00  0.00  0.00  0.00
   4   3 -1.00  0.00  1.00 -1.00 -0.00  0.00 -1.00  1.00  0.00  0.00  0.00  0.00
 TTTTTTTTTTTTTTTTTTTTTTTTTTTTTT END         TELAPSE    13917.53 TCPU    13142.28
 EEEEEEEEEE TERMINATION  DATE 06 03 2024 TIME 14:08:06.8
NODE    0 CPU TIME =     13142.278
    TOTAL CPU TIME =    848844.494
