Loading crystal17/1.0.2/intel/19.0
  Loading requirement: intel/19.0 ompi/4.0.1/intel/19.0
          64 PROCESSORS WORKING

         
 *******************************************************************************
 *                                                                             *
 *                               CRYSTAL17                                     *
 *                      public : 1.0.2 - March 1st, 2018                       *
 *                       HTTP://WWW.CRYSTAL.UNITO.IT                           *
 *                                                                             *
 *                              MAIN AUTHORS                                   *
 *                                                                             *
 *  R. DOVESI(1,11), V.R. SAUNDERS(2), C. ROETTI(1,11), R. ORLANDO(1,11),      *
 *  C.M. ZICOVICH-WILSON(1,3), F. PASCALE(4), B. CIVALLERI(1,11),              *
 *  K. DOLL(5), N.M. HARRISON(2,6), I.J. BUSH(7), Ph. D'ARCO(8),               *
 *  M. LLUNELL(9), M. CAUSA'(10), Y. NOEL(8), L. MASCHIO(1,11), A. ERBA(1,11)  *
 *  M. RE'RAT(14), S. CASASSA(1,11)                                            *
 *                                                                             *
 *        CONTRIBUTIONS TO THE CODE HAVE ALSO BEEN GIVEN BY                    *
 *                                                                             *
 *  M. FERRABONE(1,11), M. DE LA PIERRE(1,11), M. FERRERO(1,11),               *
 *  J. BAIMA(1,11), E. ALBANESE(1,11), M.F. PEINTINGER(12), R. BAST(13),       *
 *  B. KIRTMAN(15), V. LACIVITA(1,11), R. DEMICHELIS(1,16)                     *
 *  G. BRANDEBURG(17), S. SALUSTRO(1,11), G. SANSONE(1,11)                     *
 *  M.T. RUGGIERO(18)                                                          *
 *                                                                             *
 * (1) THEORETICAL CHEMISTRY GROUP - UNIVERSITA' DI TORINO - TORINO (ITALY)    *
 * (2) COMPUTATIONAL SCIENCE & ENGINEERING DEPARTMENT - STFC DARESBURY (UK)    *
 * (3) UNIVERSIDAD AUTONOMA DEL ESTADO DE MORELOS - CUERNAVACA (MEXICO)        *
 * (4) UNIVERSITE' DE LORRAINE - NANCY (FRANCE)                                *
 * (5) UNIVERSITAET STUTTGART- STUTTGART (GERMANY)                             *
 * (6) IMPERIAL COLLEGE - LONDON (UK)                                          *
 * (7) OXFORD E-RESEARCH CENTRE - OXFORD (UK)                                  *
 * (8) UPMC - SORBONNE UNIVERSITES - PARIS (FRANCE)                            *
 * (9) UNIVERSIDAD DE BARCELONA - BARCELONA (SPAIN)                            *
 *(10) UNIVERSITA' DI NAPOLI "FEDERICO II" - NAPOLI (ITALY)                    *
 *(11) NIS - NANOSTRUCTURED INTERFACES AND SURFACES - TORINO (ITALY)           *
 *(12) MPI FUER CHEMISCHE ENERGIEKONVERSION - MUELHEIM AN DER RUHR (GERMANY)   *
 *(13) UNIVERSITY OF TROMSO - TROMSO (NORWAY)                                  *
 *(14) UNIVERSITE' DE PAU ET DES PAYS DE L'ADOUR - PAU (FRANCE)                *
 *(15) UNIVERSITY OF CALIFORNIA SANTA BARBARA - SANTA BARBARA (USA)            *
 *(16) CURTIN UNIVERSITY - PERTH (AUSTRALIA)                                   *
 *(17) UNIVERSITY COLLEGE LONDON - LONDON (UK)                                 *
 *(18) CAMBRIDGE UNIVERSITY - CAMBRIDGE (UK)                                   *
 *                                                                             *
 *******************************************************************************
 EEEEEEEEEE STARTING  DATE 06 03 2024 TIME 03:22:01.1
 C:\Users\wilso\AppData\Local\Temp\tmp_p\newconn.mol                             

 CRYSTAL CALCULATION
 (INPUT ACCORDING TO THE INTERNATIONAL TABLES FOR X-RAY CRYSTALLOGRAPHY)
 CRYSTAL FAMILY                       :  TETRAGONAL  
 CRYSTAL CLASS  (GROTH - 1921)        :  TETRAGONAL DISPHENOIDAL              

 SPACE GROUP (NONCENTROSYMMETRIC)     :  I -4            

 LATTICE PARAMETERS  (ANGSTROMS AND DEGREES) - CONVENTIONAL CELL
        A           B           C        ALPHA        BETA       GAMMA
    11.01000    11.01000    13.74000    90.00000    90.00000    90.00000


 NUMBER OF IRREDUCIBLE ATOMS IN THE CONVENTIONAL CELL:  124

 INPUT COORDINATES

 ATOM AT. N.              COORDINATES
   1   1     3.902600000000E-01  4.621200000000E-01  3.772900000000E-01
   2   1     6.097400000000E-01  5.378800000000E-01  3.772900000000E-01
   3   1     4.621200000000E-01  6.097400000000E-01  6.227100000000E-01
   4   1     5.378800000000E-01  3.902600000000E-01  6.227100000000E-01
   5   1     8.902600000000E-01  9.621200000000E-01  8.772900000000E-01
   6   1     1.097400000000E-01  3.788000000000E-02  8.772900000000E-01
   7   1     9.621200000000E-01  1.097400000000E-01  1.227100000000E-01
   8   1     3.788000000000E-02  8.902600000000E-01  1.227100000000E-01
   9   6     2.809700000000E-01  7.973200000000E-01  3.918500000000E-01
  10   6     2.508800000000E-01  9.262500000000E-01  3.762600000000E-01
  11   6     1.949900000000E-01  7.037100000000E-01  3.786100000000E-01
  12   6     3.570900000000E-01  5.556300000000E-01  3.817100000000E-01
  13   6     4.014800000000E-01  7.568800000000E-01  4.057200000000E-01
  14   6     7.656400000000E-01  4.173300000000E-01  3.693400000000E-01
  15   6     7.190300000000E-01  2.026800000000E-01  3.918500000000E-01
  16   6     7.491200000000E-01  7.375000000000E-02  3.762600000000E-01
  17   6     8.050100000000E-01  2.962900000000E-01  3.786100000000E-01
  18   6     6.429100000000E-01  4.443700000000E-01  3.817100000000E-01
  19   6     5.985200000000E-01  2.431200000000E-01  4.057200000000E-01
  20   6     2.343600000000E-01  5.826700000000E-01  3.693400000000E-01
  21   6     7.973200000000E-01  7.190300000000E-01  6.081500000000E-01
  22   6     9.262500000000E-01  7.491200000000E-01  6.237400000000E-01
  23   6     7.037100000000E-01  8.050100000000E-01  6.213900000000E-01
  24   6     5.556300000000E-01  6.429100000000E-01  6.182900000000E-01
  25   6     7.568800000000E-01  5.985200000000E-01  5.942800000000E-01
  26   6     4.173300000000E-01  2.343600000000E-01  6.306600000000E-01
  27   6     2.026800000000E-01  2.809700000000E-01  6.081500000000E-01
  28   6     7.375000000000E-02  2.508800000000E-01  6.237400000000E-01
  29   6     2.962900000000E-01  1.949900000000E-01  6.213900000000E-01
  30   6     4.443700000000E-01  3.570900000000E-01  6.182900000000E-01
  31   6     2.431200000000E-01  4.014800000000E-01  5.942800000000E-01
  32   6     5.826700000000E-01  7.656400000000E-01  6.306600000000E-01
  33   6     7.809700000000E-01  2.973200000000E-01  8.918500000000E-01
  34   6     7.508800000000E-01  4.262500000000E-01  8.762600000000E-01
  35   6     6.949900000000E-01  2.037100000000E-01  8.786100000000E-01
  36   6     8.570900000000E-01  5.563000000000E-02  8.817100000000E-01
  37   6     9.014800000000E-01  2.568800000000E-01  9.057200000000E-01
  38   6     2.656400000000E-01  9.173300000000E-01  8.693400000000E-01
  39   6     2.190300000000E-01  7.026800000000E-01  8.918500000000E-01
  40   6     2.491200000000E-01  5.737500000000E-01  8.762600000000E-01
  41   6     3.050100000000E-01  7.962900000000E-01  8.786100000000E-01
  42   6     1.429100000000E-01  9.443700000000E-01  8.817100000000E-01
  43   6     9.852000000000E-02  7.431200000000E-01  9.057200000000E-01
  44   6     7.343600000000E-01  8.267000000000E-02  8.693400000000E-01
  45   6     2.973200000000E-01  2.190300000000E-01  1.081500000000E-01
  46   6     4.262500000000E-01  2.491200000000E-01  1.237400000000E-01
  47   6     2.037100000000E-01  3.050100000000E-01  1.213900000000E-01
  48   6     5.563000000000E-02  1.429100000000E-01  1.182900000000E-01
  49   6     2.568800000000E-01  9.852000000000E-02  9.428000000000E-02
  50   6     9.173300000000E-01  7.343600000000E-01  1.306600000000E-01
  51   6     7.026800000000E-01  7.809700000000E-01  1.081500000000E-01
  52   6     5.737500000000E-01  7.508800000000E-01  1.237400000000E-01
  53   6     7.962900000000E-01  6.949900000000E-01  1.213900000000E-01
  54   6     9.443700000000E-01  8.570900000000E-01  1.182900000000E-01
  55   6     7.431200000000E-01  9.014800000000E-01  9.428000000000E-02
  56   6     8.267000000000E-02  2.656400000000E-01  1.306600000000E-01
  57   7     3.177400000000E-01  9.966200000000E-01  3.144800000000E-01
  58   7     2.615600000000E-01  1.078200000000E-01  3.108200000000E-01
  59   7     1.547000000000E-01  9.927900000000E-01  4.100800000000E-01
  60   7     1.653600000000E-01  1.059100000000E-01  3.678700000000E-01
  61   7     4.385500000000E-01  6.423900000000E-01  4.023400000000E-01
  62   7     6.822600000000E-01  3.380000000000E-03  3.144800000000E-01
  63   7     7.384400000000E-01  8.921800000000E-01  3.108200000000E-01
  64   7     8.453000000000E-01  7.210000000000E-03  4.100800000000E-01
  65   7     8.346400000000E-01  8.940900000000E-01  3.678700000000E-01
  66   7     5.614500000000E-01  3.576100000000E-01  4.023400000000E-01
  67   7     9.966200000000E-01  6.822600000000E-01  6.855200000000E-01
  68   7     1.078200000000E-01  7.384400000000E-01  6.891800000000E-01
  69   7     9.927900000000E-01  8.453000000000E-01  5.899200000000E-01
  70   7     1.059100000000E-01  8.346400000000E-01  6.321300000000E-01
  71   7     6.423900000000E-01  5.614500000000E-01  5.976600000000E-01
  72   7     3.380000000000E-03  3.177400000000E-01  6.855200000000E-01
  73   7     8.921800000000E-01  2.615600000000E-01  6.891800000000E-01
  74   7     7.210000000000E-03  1.547000000000E-01  5.899200000000E-01
  75   7     8.940900000000E-01  1.653600000000E-01  6.321300000000E-01
  76   7     3.576100000000E-01  4.385500000000E-01  5.976600000000E-01
  77   7     8.177400000000E-01  4.966200000000E-01  8.144800000000E-01
  78   7     7.615600000000E-01  6.078200000000E-01  8.108200000000E-01
  79   7     6.547000000000E-01  4.927900000000E-01  9.100800000000E-01
  80   7     6.653600000000E-01  6.059100000000E-01  8.678700000000E-01
  81   7     9.385500000000E-01  1.423900000000E-01  9.023400000000E-01
  82   7     1.822600000000E-01  5.033800000000E-01  8.144800000000E-01
  83   7     2.384400000000E-01  3.921800000000E-01  8.108200000000E-01
  84   7     3.453000000000E-01  5.072100000000E-01  9.100800000000E-01
  85   7     3.346400000000E-01  3.940900000000E-01  8.678700000000E-01
  86   7     6.145000000000E-02  8.576100000000E-01  9.023400000000E-01
  87   7     4.966200000000E-01  1.822600000000E-01  1.855200000000E-01
  88   7     6.078200000000E-01  2.384400000000E-01  1.891800000000E-01
  89   7     4.927900000000E-01  3.453000000000E-01  8.992000000000E-02
  90   7     6.059100000000E-01  3.346400000000E-01  1.321300000000E-01
  91   7     1.423900000000E-01  6.145000000000E-02  9.766000000000E-02
  92   7     5.033800000000E-01  8.177400000000E-01  1.855200000000E-01
  93   7     3.921800000000E-01  7.615600000000E-01  1.891800000000E-01
  94   7     5.072100000000E-01  6.547000000000E-01  8.992000000000E-02
  95   7     3.940900000000E-01  6.653600000000E-01  1.321300000000E-01
  96   7     8.576100000000E-01  9.385500000000E-01  9.766000000000E-02
  97  35     4.378000000000E-02  7.425100000000E-01  3.737000000000E-01
  98  35     5.160100000000E-01  8.609300000000E-01  4.266700000000E-01
  99  35     1.380700000000E-01  4.632100000000E-01  3.474700000000E-01
 100  35     9.562200000000E-01  2.574900000000E-01  3.737000000000E-01
 101  35     4.839900000000E-01  1.390700000000E-01  4.266700000000E-01
 102  35     8.619300000000E-01  5.367900000000E-01  3.474700000000E-01
 103  35     7.425100000000E-01  9.562200000000E-01  6.263000000000E-01
 104  35     8.609300000000E-01  4.839900000000E-01  5.733300000000E-01
 105  35     4.632100000000E-01  8.619300000000E-01  6.525300000000E-01
 106  35     2.574900000000E-01  4.378000000000E-02  6.263000000000E-01
 107  35     1.390700000000E-01  5.160100000000E-01  5.733300000000E-01
 108  35     5.367900000000E-01  1.380700000000E-01  6.525300000000E-01
 109  35     5.437800000000E-01  2.425100000000E-01  8.737000000000E-01
 110  35     1.601000000000E-02  3.609300000000E-01  9.266700000000E-01
 111  35     6.380700000000E-01  9.632100000000E-01  8.474700000000E-01
 112  35     4.562200000000E-01  7.574900000000E-01  8.737000000000E-01
 113  35     9.839900000000E-01  6.390700000000E-01  9.266700000000E-01
 114  35     3.619300000000E-01  3.679000000000E-02  8.474700000000E-01
 115  35     2.425100000000E-01  4.562200000000E-01  1.263000000000E-01
 116  35     3.609300000000E-01  9.839900000000E-01  7.333000000000E-02
 117  35     9.632100000000E-01  3.619300000000E-01  1.525300000000E-01
 118  35     7.574900000000E-01  5.437800000000E-01  1.263000000000E-01
 119  35     6.390700000000E-01  1.601000000000E-02  7.333000000000E-02
 120  35     3.679000000000E-02  6.380700000000E-01  1.525300000000E-01
 121  30     3.354637534679E-16  5.000000000000E-01  7.500000000000E-01
 122  30     3.226734976409E-16  3.226734976409E-16  5.000000000000E-01
 123  30     5.000000000000E-01  3.226734976409E-16  2.500000000000E-01
 124  30     5.000000000000E-01  5.000000000000E-01 -3.027130276012E-16

 *******************************************************************************

 << INFORMATION >>: FROM NOW ON, ALL COORDINATES REFER TO THE PRIMITIVE CELL

 *******************************************************************************

 LATTICE PARAMETERS  (ANGSTROMS AND DEGREES) - PRIMITIVE CELL
       A          B          C        ALPHA      BETA     GAMMA        VOLUME
   10.38301   10.38301   10.38301   115.96302 115.96302  97.14716    832.782087

 INPUT LIST - ATOM N.   2 NOT IRREDUCIBLE

 INPUT LIST - ATOM N.   3 NOT IRREDUCIBLE

 INPUT LIST - ATOM N.   4 NOT IRREDUCIBLE

 INPUT LIST - ATOM N.   1 NOT IRREDUCIBLE

 INPUT LIST - ATOM N.   2 NOT IRREDUCIBLE

 INPUT LIST - ATOM N.   3 NOT IRREDUCIBLE

 INPUT LIST - ATOM N.   4 NOT IRREDUCIBLE

 INPUT LIST - ATOM N.   6 NOT IRREDUCIBLE

 INPUT LIST - ATOM N.  10 NOT IRREDUCIBLE

 INPUT LIST - ATOM N.  14 NOT IRREDUCIBLE

 INPUT LIST - ATOM N.  18 NOT IRREDUCIBLE

 INPUT LIST - ATOM N.  22 NOT IRREDUCIBLE

 INPUT LIST - ATOM N.  26 NOT IRREDUCIBLE

 INPUT LIST - ATOM N.   7 NOT IRREDUCIBLE

 INPUT LIST - ATOM N.  11 NOT IRREDUCIBLE

 INPUT LIST - ATOM N.  15 NOT IRREDUCIBLE

 INPUT LIST - ATOM N.  19 NOT IRREDUCIBLE

 INPUT LIST - ATOM N.  23 NOT IRREDUCIBLE

 INPUT LIST - ATOM N.  27 NOT IRREDUCIBLE

 INPUT LIST - ATOM N.   8 NOT IRREDUCIBLE

 INPUT LIST - ATOM N.  12 NOT IRREDUCIBLE

 INPUT LIST - ATOM N.  16 NOT IRREDUCIBLE

 INPUT LIST - ATOM N.  20 NOT IRREDUCIBLE

 INPUT LIST - ATOM N.  24 NOT IRREDUCIBLE

 INPUT LIST - ATOM N.  28 NOT IRREDUCIBLE

 INPUT LIST - ATOM N.   5 NOT IRREDUCIBLE

 INPUT LIST - ATOM N.   9 NOT IRREDUCIBLE

 INPUT LIST - ATOM N.  13 NOT IRREDUCIBLE

 INPUT LIST - ATOM N.  17 NOT IRREDUCIBLE

 INPUT LIST - ATOM N.  21 NOT IRREDUCIBLE

 INPUT LIST - ATOM N.  25 NOT IRREDUCIBLE

 INPUT LIST - ATOM N.   6 NOT IRREDUCIBLE

 INPUT LIST - ATOM N.  10 NOT IRREDUCIBLE

 INPUT LIST - ATOM N.  14 NOT IRREDUCIBLE

 INPUT LIST - ATOM N.  18 NOT IRREDUCIBLE

 INPUT LIST - ATOM N.  22 NOT IRREDUCIBLE

 INPUT LIST - ATOM N.  26 NOT IRREDUCIBLE

 INPUT LIST - ATOM N.   7 NOT IRREDUCIBLE

 INPUT LIST - ATOM N.  11 NOT IRREDUCIBLE

 INPUT LIST - ATOM N.  15 NOT IRREDUCIBLE

 INPUT LIST - ATOM N.  19 NOT IRREDUCIBLE

 INPUT LIST - ATOM N.  23 NOT IRREDUCIBLE

 INPUT LIST - ATOM N.  27 NOT IRREDUCIBLE

 INPUT LIST - ATOM N.   8 NOT IRREDUCIBLE

 INPUT LIST - ATOM N.  12 NOT IRREDUCIBLE

 INPUT LIST - ATOM N.  16 NOT IRREDUCIBLE

 INPUT LIST - ATOM N.  20 NOT IRREDUCIBLE

 INPUT LIST - ATOM N.  24 NOT IRREDUCIBLE

 INPUT LIST - ATOM N.  28 NOT IRREDUCIBLE

 INPUT LIST - ATOM N.  30 NOT IRREDUCIBLE

 INPUT LIST - ATOM N.  34 NOT IRREDUCIBLE

 INPUT LIST - ATOM N.  38 NOT IRREDUCIBLE

 INPUT LIST - ATOM N.  42 NOT IRREDUCIBLE

 INPUT LIST - ATOM N.  46 NOT IRREDUCIBLE

 INPUT LIST - ATOM N.  31 NOT IRREDUCIBLE

 INPUT LIST - ATOM N.  35 NOT IRREDUCIBLE

 INPUT LIST - ATOM N.  39 NOT IRREDUCIBLE

 INPUT LIST - ATOM N.  43 NOT IRREDUCIBLE

 INPUT LIST - ATOM N.  47 NOT IRREDUCIBLE

 INPUT LIST - ATOM N.  32 NOT IRREDUCIBLE

 INPUT LIST - ATOM N.  36 NOT IRREDUCIBLE

 INPUT LIST - ATOM N.  40 NOT IRREDUCIBLE

 INPUT LIST - ATOM N.  44 NOT IRREDUCIBLE

 INPUT LIST - ATOM N.  48 NOT IRREDUCIBLE

 INPUT LIST - ATOM N.  29 NOT IRREDUCIBLE

 INPUT LIST - ATOM N.  33 NOT IRREDUCIBLE

 INPUT LIST - ATOM N.  37 NOT IRREDUCIBLE

 INPUT LIST - ATOM N.  41 NOT IRREDUCIBLE

 INPUT LIST - ATOM N.  45 NOT IRREDUCIBLE

 INPUT LIST - ATOM N.  30 NOT IRREDUCIBLE

 INPUT LIST - ATOM N.  34 NOT IRREDUCIBLE

 INPUT LIST - ATOM N.  38 NOT IRREDUCIBLE

 INPUT LIST - ATOM N.  42 NOT IRREDUCIBLE

 INPUT LIST - ATOM N.  46 NOT IRREDUCIBLE

 INPUT LIST - ATOM N.  31 NOT IRREDUCIBLE

 INPUT LIST - ATOM N.  35 NOT IRREDUCIBLE

 INPUT LIST - ATOM N.  39 NOT IRREDUCIBLE

 INPUT LIST - ATOM N.  43 NOT IRREDUCIBLE

 INPUT LIST - ATOM N.  47 NOT IRREDUCIBLE

 INPUT LIST - ATOM N.  32 NOT IRREDUCIBLE

 INPUT LIST - ATOM N.  36 NOT IRREDUCIBLE

 INPUT LIST - ATOM N.  40 NOT IRREDUCIBLE

 INPUT LIST - ATOM N.  44 NOT IRREDUCIBLE

 INPUT LIST - ATOM N.  48 NOT IRREDUCIBLE

 INPUT LIST - ATOM N.  50 NOT IRREDUCIBLE

 INPUT LIST - ATOM N.  54 NOT IRREDUCIBLE

 INPUT LIST - ATOM N.  58 NOT IRREDUCIBLE

 INPUT LIST - ATOM N.  51 NOT IRREDUCIBLE

 INPUT LIST - ATOM N.  55 NOT IRREDUCIBLE

 INPUT LIST - ATOM N.  59 NOT IRREDUCIBLE

 INPUT LIST - ATOM N.  52 NOT IRREDUCIBLE

 INPUT LIST - ATOM N.  56 NOT IRREDUCIBLE

 INPUT LIST - ATOM N.  60 NOT IRREDUCIBLE

 INPUT LIST - ATOM N.  49 NOT IRREDUCIBLE

 INPUT LIST - ATOM N.  53 NOT IRREDUCIBLE

 INPUT LIST - ATOM N.  57 NOT IRREDUCIBLE

 INPUT LIST - ATOM N.  50 NOT IRREDUCIBLE

 INPUT LIST - ATOM N.  54 NOT IRREDUCIBLE

 INPUT LIST - ATOM N.  58 NOT IRREDUCIBLE

 INPUT LIST - ATOM N.  51 NOT IRREDUCIBLE

 INPUT LIST - ATOM N.  55 NOT IRREDUCIBLE

 INPUT LIST - ATOM N.  59 NOT IRREDUCIBLE

 INPUT LIST - ATOM N.  52 NOT IRREDUCIBLE

 INPUT LIST - ATOM N.  56 NOT IRREDUCIBLE

 INPUT LIST - ATOM N.  60 NOT IRREDUCIBLE

 INPUT LIST - ATOM N.  61 NOT IRREDUCIBLE

 INPUT LIST - ATOM N.  62 NOT IRREDUCIBLE

 COORDINATES OF THE EQUIVALENT ATOMS (FRACTIONAL UNITS)

 N. ATOM EQUIV AT. N.          X                  Y                  Z

   1   1   1    1 H    -1.60590000000E-01 -2.32450000000E-01 -1.47620000000E-01
   2   1   2    1 H    -8.48300000000E-02 -1.29700000000E-02  1.47620000000E-01
   3   1   3    1 H     2.32450000000E-01  8.48300000000E-02  7.18600000000E-02
   4   1   4    1 H     1.29700000000E-02  1.60590000000E-01 -7.18600000000E-02








   5   9   1    6 C     1.89170000000E-01 -3.27180000000E-01  7.82900000000E-02
   6   9   2    6 C    -4.05470000000E-01  1.10880000000E-01 -7.82900000000E-02
   7   9   3    6 C     3.27180000000E-01  4.05470000000E-01 -4.83650000000E-01
   8   9   4    6 C    -1.10880000000E-01 -1.89170000000E-01  4.83650000000E-01

   9  10   1    6 C     3.02510000000E-01 -3.72860000000E-01  1.77130000000E-01
  10  10   2    6 C     4.50010000000E-01  1.25380000000E-01 -1.77130000000E-01
  11  10   3    6 C     3.72860000000E-01 -4.50010000000E-01 -3.24630000000E-01
  12  10   4    6 C    -1.25380000000E-01 -3.02510000000E-01  3.24630000000E-01

  13  11   1    6 C     8.23200000000E-02 -4.26400000000E-01 -1.01300000000E-01
  14  11   2    6 C    -3.25100000000E-01  1.83620000000E-01  1.01300000000E-01
  15  11   3    6 C     4.26400000000E-01  3.25100000000E-01 -4.91280000000E-01
  16  11   4    6 C    -1.83620000000E-01 -8.23200000000E-02  4.91280000000E-01

  17  12   1    6 C    -6.26600000000E-02 -2.61200000000E-01 -8.72800000000E-02
  18  12   2    6 C    -1.73920000000E-01  2.46200000000E-02  8.72800000000E-02
  19  12   3    6 C     2.61200000000E-01  1.73920000000E-01  1.98540000000E-01
  20  12   4    6 C    -2.46200000000E-02  6.26600000000E-02 -1.98540000000E-01

  21  13   1    6 C     1.62600000000E-01 -1.92800000000E-01  1.58360000000E-01
  22  13   2    6 C    -3.51160000000E-01  4.24000000000E-03 -1.58360000000E-01
  23  13   3    6 C     1.92800000000E-01  3.51160000000E-01  3.55400000000E-01
  24  13   4    6 C    -4.24000000000E-03 -1.62600000000E-01 -3.55400000000E-01

  25  14   1    6 C    -2.13330000000E-01  1.34980000000E-01  1.82970000000E-01
  26  14   2    6 C    -4.79900000000E-02 -3.96300000000E-01 -1.82970000000E-01
  27  14   3    6 C    -1.34980000000E-01  4.79900000000E-02 -3.48310000000E-01
  28  14   4    6 C     3.96300000000E-01  2.13330000000E-01  3.48310000000E-01




 NUMBER OF SYMMETRY OPERATORS         :    4
 *******************************************************************************
 * GEOMETRY EDITING - INPUT COORDINATES ARE GIVEN IN ANGSTROM         
 *******************************************************************************

 GEOMETRY NOW FULLY CONSISTENT WITH THE GROUP
 *******************************************************************************
 *  GEOMETRY EDITING
 *  THE SYMMETRY OF THE CRYSTAL IS KEPT AND APPLIED TO THE PERTURBATION
 *******************************************************************************
 INFORMATION **** NEW DEFAULT **** FINALRUN 4 FOR GEOMETRY OPTIMIZATIONS
 INFORMATION **** NEW DEFAULT **** OPTGEOM OPTIMIZES BOTH ATOMIC COORDINATES AND CELL PARAMETERS
 INFORMATION **** NEW DEFAULT **** TOL. ON ATOMIC DISP TO REDEFINE REF. GEOMETRY: 0.8 Angs
 INFORMATION **** NEW DEFAULT **** N POINTS TO REDEFINE REF. GEOMETRY: N OF OPT DEGS OF FREEDOM
 INFORMATION **** NEW DEFAULT **** TOL. ON ENERGY TO REDEFINE REF. GEOMETRY: 10**-3*(5*N. ATOMS)

 IMPORTANT INFORMATION:
 THE COORDINATE SYSTEM ADOPTED IN THE OPTIMIZATION IS NOT IN
 GENERAL HOMOGENEOUS UNITS. FOR THIS REASON THE GRADIENT AND 
 HESSIAN MATRIX IN TERMS OF THIS SYSTEM ARE GIVEN WITHOUT
 UNITS. FOR MORE DETAILS SEE THE MANUAL.

 *******************************************************************************
 COMBINED CELL/ATOM OPTIMIZATION CONTROL

 INITIAL TRUST RADIUS         0.50000 MAXIMUM TRUST RADIUS               4.00000
 MAXIMUM GRADIENT COMPONENT   0.00045 MAXIMUM DISPLACEMENT COMPONENT     0.00180
 R.M.S. OF GRADIENT COMPONENT 0.00030 R.M.S. OF DISPLACEMENT COMPONENTS  0.00120
 THRESHOLD ON ENERGY CHANGE 0.100E-06 EXTRAPOLATING POLYNOMIAL ORDER           2
 MAXIMUM ALLOWED NUMBER OF STEPS   -1 SORTING OF ENERGY POINTS:               NO
 ANALYTICAL  GRADIENT                 HESSIAN UPDATING                      BFGS
 STEP SIZE NUMERICAL GRADIENT 0.00100
 INITIAL HESSIAN MATRIX: SCHLEGEL MODEL 2
 *******************************************************************************


 GCALCO - MAX INDICES DIRECT LATTICE VECTOR    14    14    16
 NO.OF VECTORS CREATED 6999 STARS  482 RMAX   211.08991 BOHR

 GEOMETRY FOR WAVE FUNCTION - DIMENSIONALITY OF THE SYSTEM    3
 (NON PERIODIC DIRECTION: LATTICE PARAMETER FORMALLY SET TO 500)
 *******************************************************************************
 LATTICE PARAMETERS (ANGSTROMS AND DEGREES) - BOHR = 0.5291772083 ANGSTROM
 PRIMITIVE CELL - CENTRING CODE 6/0 VOLUME=   832.782087 - DENSITY  3.284 g/cm^3
         A              B              C           ALPHA      BETA       GAMMA 
    10.38301257    10.38301257    10.38301257   115.963016 115.963016  97.147161
 *******************************************************************************
 ATOMS IN THE ASYMMETRIC UNIT   17 - ATOMS IN THE UNIT CELL:   62
     ATOM                 X/A                 Y/B                 Z/C    
 *******************************************************************************
      1 T   1 H    -1.605900000000E-01 -2.324500000000E-01 -1.476200000000E-01
      2 F   1 H    -8.483000000000E-02 -1.297000000000E-02  1.476200000000E-01
      3 F   1 H     2.324500000000E-01  8.483000000000E-02  7.186000000000E-02
      4 F   1 H     1.297000000000E-02  1.605900000000E-01 -7.186000000000E-02
      5 T   6 C     1.891700000000E-01 -3.271800000000E-01  7.829000000000E-02
      6 F   6 C    -4.054700000000E-01  1.108800000000E-01 -7.829000000000E-02
      7 F   6 C     3.271800000000E-01  4.054700000000E-01 -4.836500000000E-01
      8 F   6 C    -1.108800000000E-01 -1.891700000000E-01  4.836500000000E-01
      9 T   6 C     3.025100000000E-01 -3.728600000000E-01  1.771300000000E-01
     10 F   6 C     4.500100000000E-01  1.253800000000E-01 -1.771300000000E-01
     11 F   6 C     3.728600000000E-01 -4.500100000000E-01 -3.246300000000E-01
     12 F   6 C    -1.253800000000E-01 -3.025100000000E-01  3.246300000000E-01
     13 T   6 C     8.232000000000E-02 -4.264000000000E-01 -1.013000000000E-01
     14 F   6 C    -3.251000000000E-01  1.836200000000E-01  1.013000000000E-01
     15 F   6 C     4.264000000000E-01  3.251000000000E-01 -4.912800000000E-01
     16 F   6 C    -1.836200000000E-01 -8.232000000000E-02  4.912800000000E-01
     17 T   6 C    -6.266000000000E-02 -2.612000000000E-01 -8.728000000000E-02
     18 F   6 C    -1.739200000000E-01  2.462000000000E-02  8.728000000000E-02
     19 F   6 C     2.612000000000E-01  1.739200000000E-01  1.985400000000E-01
     20 F   6 C    -2.462000000000E-02  6.266000000000E-02 -1.985400000000E-01
     21 T   6 C     1.626000000000E-01 -1.928000000000E-01  1.583600000000E-01
     22 F   6 C    -3.511600000000E-01  4.240000000000E-03 -1.583600000000E-01
     23 F   6 C     1.928000000000E-01  3.511600000000E-01  3.554000000000E-01
     24 F   6 C    -4.240000000000E-03 -1.626000000000E-01 -3.554000000000E-01
     25 T   6 C    -2.133300000000E-01  1.349800000000E-01  1.829700000000E-01
     26 F   6 C    -4.799000000000E-02 -3.963000000000E-01 -1.829700000000E-01
     27 F   6 C    -1.349800000000E-01  4.799000000000E-02 -3.483100000000E-01
     28 F   6 C     3.963000000000E-01  2.133300000000E-01  3.483100000000E-01
     29 T   7 N     3.111000000000E-01 -3.677800000000E-01  3.143600000000E-01
     30 F   7 N     3.178600000000E-01 -3.260000000000E-03 -3.143600000000E-01
     31 F   7 N     3.677800000000E-01 -3.178600000000E-01 -3.211200000000E-01
     32 F   7 N     3.260000000000E-03 -3.111000000000E-01  3.211200000000E-01
     33 T   7 N     4.186400000000E-01 -4.276200000000E-01  3.693800000000E-01
     34 F   7 N     2.030000000000E-01  4.926000000000E-02 -3.693800000000E-01
     35 F   7 N     4.276200000000E-01 -2.030000000000E-01 -1.537400000000E-01
     36 F   7 N    -4.926000000000E-02 -4.186400000000E-01  1.537400000000E-01
     37 T   7 N     4.028700000000E-01 -4.352200000000E-01  1.474900000000E-01
     38 F   7 N     4.172900000000E-01  2.553800000000E-01 -1.474900000000E-01
     39 F   7 N     4.352200000000E-01 -4.172900000000E-01 -1.619100000000E-01
     40 F   7 N    -2.553800000000E-01 -4.028700000000E-01  1.619100000000E-01
     41 T   7 N     4.737800000000E-01 -4.667700000000E-01  2.712700000000E-01
     42 F   7 N     2.619600000000E-01  2.025100000000E-01 -2.712700000000E-01
     43 F   7 N     4.667700000000E-01 -2.619600000000E-01 -5.945000000000E-02
     44 F   7 N    -2.025100000000E-01 -4.737800000000E-01  5.945000000000E-02
     45 T   7 N     4.473000000000E-02 -1.591100000000E-01  8.094000000000E-02
     46 F   7 N    -2.400500000000E-01 -3.621000000000E-02 -8.094000000000E-02
     47 F   7 N     1.591100000000E-01  2.400500000000E-01  2.038400000000E-01
     48 F   7 N     3.621000000000E-02 -4.473000000000E-02 -2.038400000000E-01
     49 T  35 BR    1.162100000000E-01  4.174800000000E-01 -2.137100000000E-01
     50 F  35 BR   -3.688100000000E-01  3.299200000000E-01  2.137100000000E-01
     51 F  35 BR   -4.174800000000E-01  3.688100000000E-01 -3.012700000000E-01
     52 F  35 BR   -3.299200000000E-01 -1.162100000000E-01  3.012700000000E-01
     53 T  35 BR    2.876000000000E-01 -5.732000000000E-02  3.769400000000E-01
     54 F  35 BR   -4.342600000000E-01 -8.934000000000E-02 -3.769400000000E-01
     55 F  35 BR    5.732000000000E-02  4.342600000000E-01  3.449200000000E-01
     56 F  35 BR    8.934000000000E-02 -2.876000000000E-01 -3.449200000000E-01
     57 T  35 BR   -1.893200000000E-01  4.855400000000E-01 -3.987200000000E-01
     58 F  35 BR   -1.157400000000E-01  2.094000000000E-01  3.987200000000E-01
     59 F  35 BR   -4.855400000000E-01  1.157400000000E-01  3.251400000000E-01
     60 F  35 BR   -2.094000000000E-01  1.893200000000E-01 -3.251400000000E-01
     61 T  30 ZN    2.500000000000E-01 -2.500000000000E-01 -5.000000000000E-01
     62 T  30 ZN   -5.000000000000E-01 -5.000000000000E-01 -3.697785493223E-32

 TRANSFORMATION MATRIX PRIMITIVE-CRYSTALLOGRAPHIC CELL
  0.0000  1.0000  1.0000  1.0000  0.0000  1.0000  1.0000  1.0000  0.0000

 *******************************************************************************
 CRYSTALLOGRAPHIC CELL (VOLUME=       1665.56417400)
         A              B              C           ALPHA      BETA       GAMMA 
    11.01000000    11.01000000    13.74000000    90.000000  90.000000  90.000000

 COORDINATES IN THE CRYSTALLOGRAPHIC CELL
     ATOM                 X/A                 Y/B                 Z/C    
 *******************************************************************************
      1 T   1 H    -1.097400000000E-01 -3.788000000000E-02 -1.227100000000E-01
      2 F   1 H     1.097400000000E-01  3.788000000000E-02 -1.227100000000E-01
      3 F   1 H    -3.788000000000E-02  1.097400000000E-01  1.227100000000E-01
      4 F   1 H     3.788000000000E-02 -1.097400000000E-01  1.227100000000E-01
      5 T   6 C    -2.190300000000E-01  2.973200000000E-01 -1.081500000000E-01
      6 F   6 C     2.190300000000E-01 -2.973200000000E-01 -1.081500000000E-01
      7 F   6 C     2.973200000000E-01  2.190300000000E-01  1.081500000000E-01
      8 F   6 C    -2.973200000000E-01 -2.190300000000E-01  1.081500000000E-01
      9 T   6 C    -2.491200000000E-01  4.262500000000E-01 -1.237400000000E-01
     10 F   6 C     2.491200000000E-01 -4.262500000000E-01 -1.237400000000E-01
     11 F   6 C     4.262500000000E-01  2.491200000000E-01  1.237400000000E-01
     12 F   6 C    -4.262500000000E-01 -2.491200000000E-01  1.237400000000E-01
     13 T   6 C    -3.050100000000E-01  2.037100000000E-01 -1.213900000000E-01
     14 F   6 C     3.050100000000E-01 -2.037100000000E-01 -1.213900000000E-01
     15 F   6 C     2.037100000000E-01  3.050100000000E-01  1.213900000000E-01
     16 F   6 C    -2.037100000000E-01 -3.050100000000E-01  1.213900000000E-01
     17 T   6 C    -1.429100000000E-01  5.563000000000E-02 -1.182900000000E-01
     18 F   6 C     1.429100000000E-01 -5.563000000000E-02 -1.182900000000E-01
     19 F   6 C     5.563000000000E-02  1.429100000000E-01  1.182900000000E-01
     20 F   6 C    -5.563000000000E-02 -1.429100000000E-01  1.182900000000E-01
     21 T   6 C    -9.852000000000E-02  2.568800000000E-01 -9.428000000000E-02
     22 F   6 C     9.852000000000E-02 -2.568800000000E-01 -9.428000000000E-02
     23 F   6 C     2.568800000000E-01  9.852000000000E-02  9.428000000000E-02
     24 F   6 C    -2.568800000000E-01 -9.852000000000E-02  9.428000000000E-02
     25 T   6 C     2.656400000000E-01 -8.267000000000E-02 -1.306600000000E-01
     26 F   6 C    -2.656400000000E-01  8.267000000000E-02 -1.306600000000E-01
     27 F   6 C    -8.267000000000E-02 -2.656400000000E-01  1.306600000000E-01
     28 F   6 C     8.267000000000E-02  2.656400000000E-01  1.306600000000E-01
     29 T   7 N     3.177400000000E-01 -3.380000000000E-03  3.144800000000E-01
     30 F   7 N    -3.177400000000E-01  3.380000000000E-03  3.144800000000E-01
     31 F   7 N    -3.380000000000E-03 -3.177400000000E-01 -3.144800000000E-01
     32 F   7 N     3.380000000000E-03  3.177400000000E-01 -3.144800000000E-01
     33 T   7 N     2.615600000000E-01  1.078200000000E-01  3.108200000000E-01
     34 F   7 N    -2.615600000000E-01 -1.078200000000E-01  3.108200000000E-01
     35 F   7 N     1.078200000000E-01 -2.615600000000E-01 -3.108200000000E-01
     36 F   7 N    -1.078200000000E-01  2.615600000000E-01 -3.108200000000E-01
     37 T   7 N     1.547000000000E-01 -7.210000000000E-03  4.100800000000E-01
     38 F   7 N    -1.547000000000E-01  7.210000000000E-03  4.100800000000E-01
     39 F   7 N    -7.210000000000E-03 -1.547000000000E-01 -4.100800000000E-01
     40 F   7 N     7.210000000000E-03  1.547000000000E-01 -4.100800000000E-01
     41 T   7 N     1.653600000000E-01  1.059100000000E-01  3.678700000000E-01
     42 F   7 N    -1.653600000000E-01 -1.059100000000E-01  3.678700000000E-01
     43 F   7 N     1.059100000000E-01 -1.653600000000E-01 -3.678700000000E-01
     44 F   7 N    -1.059100000000E-01  1.653600000000E-01 -3.678700000000E-01
     45 T   7 N    -6.145000000000E-02  1.423900000000E-01 -9.766000000000E-02
     46 F   7 N     6.145000000000E-02 -1.423900000000E-01 -9.766000000000E-02
     47 F   7 N     1.423900000000E-01  6.145000000000E-02  9.766000000000E-02
     48 F   7 N    -1.423900000000E-01 -6.145000000000E-02  9.766000000000E-02
     49 T  35 BR    4.378000000000E-02 -2.574900000000E-01  3.737000000000E-01
     50 F  35 BR   -4.378000000000E-02  2.574900000000E-01  3.737000000000E-01
     51 F  35 BR   -2.574900000000E-01 -4.378000000000E-02 -3.737000000000E-01
     52 F  35 BR    2.574900000000E-01  4.378000000000E-02 -3.737000000000E-01
     53 T  35 BR    1.601000000000E-02  3.609300000000E-01 -7.333000000000E-02
     54 F  35 BR   -1.601000000000E-02 -3.609300000000E-01 -7.333000000000E-02
     55 F  35 BR    3.609300000000E-01 -1.601000000000E-02  7.333000000000E-02
     56 F  35 BR   -3.609300000000E-01  1.601000000000E-02  7.333000000000E-02
     57 T  35 BR   -3.619300000000E-01 -3.679000000000E-02 -1.525300000000E-01
     58 F  35 BR    3.619300000000E-01  3.679000000000E-02 -1.525300000000E-01
     59 F  35 BR   -3.679000000000E-02  3.619300000000E-01  1.525300000000E-01
     60 F  35 BR    3.679000000000E-02 -3.619300000000E-01  1.525300000000E-01
     61 T  30 ZN    5.000000000000E-01  4.268880804807E-17  2.500000000000E-01
     62 T  30 ZN   -1.848892746612E-32 -1.848892746612E-32 -5.000000000000E-01

 T = ATOM BELONGING TO THE ASYMMETRIC UNIT

 ****    4 SYMMOPS - TRANSLATORS IN FRACTIONAL UNITS
 **** MATRICES AND TRANSLATORS IN THE CRYSTALLOGRAPHIC REFERENCE FRAME
   V INV                    ROTATION MATRICES                   TRANSLATORS
   1   1  1.00  0.00  0.00  0.00  1.00  0.00  0.00  0.00  1.00  0.00  0.00  0.00
   2   2  0.00  1.00 -1.00  1.00 -0.00 -1.00  0.00 -0.00 -1.00  0.00  0.00  0.00
   3   4  0.00 -1.00 -0.00  0.00 -1.00  1.00  1.00 -1.00 -0.00  0.00  0.00  0.00
   4   3 -1.00  0.00  1.00 -1.00  0.00 -0.00 -1.00  1.00  0.00  0.00  0.00  0.00

 DIRECT LATTICE VECTORS CARTESIAN COMPONENTS (ANGSTROM)
          X                    Y                    Z
  -0.550500000000E+01   0.550500000000E+01   0.687000000000E+01
   0.550500000000E+01  -0.550500000000E+01   0.687000000000E+01
   0.550500000000E+01   0.550500000000E+01  -0.687000000000E+01


 CARTESIAN COORDINATES - PRIMITIVE CELL
 *******************************************************************************
 *      ATOM          X(ANGSTROM)         Y(ANGSTROM)         Z(ANGSTROM)
 *******************************************************************************
    1     1 H    -1.208237400000E+00 -4.170588000000E-01 -1.686035400000E+00
    2     1 H     1.208237400000E+00  4.170588000000E-01 -1.686035400000E+00
    3     1 H    -4.170588000000E-01  1.208237400000E+00  1.686035400000E+00
    4     1 H     4.170588000000E-01 -1.208237400000E+00  1.686035400000E+00
    5     6 C    -2.411520300000E+00  3.273493200000E+00 -1.485981000000E+00
    6     6 C     2.411520300000E+00 -3.273493200000E+00 -1.485981000000E+00
    7     6 C     3.273493200000E+00  2.411520300000E+00  1.485981000000E+00
    8     6 C    -3.273493200000E+00 -2.411520300000E+00  1.485981000000E+00
    9     6 C    -2.742811200000E+00  4.693012500000E+00 -1.700187600000E+00
   10     6 C     2.742811200000E+00 -4.693012500000E+00 -1.700187600000E+00
   11     6 C     4.693012500000E+00  2.742811200000E+00  1.700187600000E+00
   12     6 C    -4.693012500000E+00 -2.742811200000E+00  1.700187600000E+00
   13     6 C    -3.358160100000E+00  2.242847100000E+00 -1.667898600000E+00
   14     6 C     3.358160100000E+00 -2.242847100000E+00 -1.667898600000E+00
   15     6 C     2.242847100000E+00  3.358160100000E+00  1.667898600000E+00
   16     6 C    -2.242847100000E+00 -3.358160100000E+00  1.667898600000E+00
   17     6 C    -1.573439100000E+00  6.124863000000E-01 -1.625304600000E+00
   18     6 C     1.573439100000E+00 -6.124863000000E-01 -1.625304600000E+00
   19     6 C     6.124863000000E-01  1.573439100000E+00  1.625304600000E+00
   20     6 C    -6.124863000000E-01 -1.573439100000E+00  1.625304600000E+00
   21     6 C    -1.084705200000E+00  2.828248800000E+00 -1.295407200000E+00
   22     6 C     1.084705200000E+00 -2.828248800000E+00 -1.295407200000E+00
   23     6 C     2.828248800000E+00  1.084705200000E+00  1.295407200000E+00
   24     6 C    -2.828248800000E+00 -1.084705200000E+00  1.295407200000E+00
   25     6 C     2.924696400000E+00 -9.101967000000E-01 -1.795268400000E+00
   26     6 C    -2.924696400000E+00  9.101967000000E-01 -1.795268400000E+00
   27     6 C    -9.101967000000E-01 -2.924696400000E+00  1.795268400000E+00
   28     6 C     9.101967000000E-01  2.924696400000E+00  1.795268400000E+00
   29     7 N     3.498317400000E+00 -3.721380000000E-02  4.320955200000E+00
   30     7 N    -3.498317400000E+00  3.721380000000E-02  4.320955200000E+00
   31     7 N    -3.721380000000E-02 -3.498317400000E+00 -4.320955200000E+00
   32     7 N     3.721380000000E-02  3.498317400000E+00 -4.320955200000E+00
   33     7 N     2.879775600000E+00  1.187098200000E+00  4.270666800000E+00
   34     7 N    -2.879775600000E+00 -1.187098200000E+00  4.270666800000E+00
   35     7 N     1.187098200000E+00 -2.879775600000E+00 -4.270666800000E+00
   36     7 N    -1.187098200000E+00  2.879775600000E+00 -4.270666800000E+00
   37     7 N     1.703247000000E+00 -7.938210000000E-02  5.634499200000E+00
   38     7 N    -1.703247000000E+00  7.938210000000E-02  5.634499200000E+00
   39     7 N    -7.938210000000E-02 -1.703247000000E+00 -5.634499200000E+00
   40     7 N     7.938210000000E-02  1.703247000000E+00 -5.634499200000E+00
   41     7 N     1.820613600000E+00  1.166069100000E+00  5.054533800000E+00
   42     7 N    -1.820613600000E+00 -1.166069100000E+00  5.054533800000E+00
   43     7 N     1.166069100000E+00 -1.820613600000E+00 -5.054533800000E+00
   44     7 N    -1.166069100000E+00  1.820613600000E+00 -5.054533800000E+00
   45     7 N    -6.765645000000E-01  1.567713900000E+00 -1.341848400000E+00
   46     7 N     6.765645000000E-01 -1.567713900000E+00 -1.341848400000E+00
   47     7 N     1.567713900000E+00  6.765645000000E-01  1.341848400000E+00
   48     7 N    -1.567713900000E+00 -6.765645000000E-01  1.341848400000E+00
   49    35 BR    4.820178000000E-01 -2.834964900000E+00  5.134638000000E+00
   50    35 BR   -4.820178000000E-01  2.834964900000E+00  5.134638000000E+00
   51    35 BR   -2.834964900000E+00 -4.820178000000E-01 -5.134638000000E+00
   52    35 BR    2.834964900000E+00  4.820178000000E-01 -5.134638000000E+00
   53    35 BR    1.762701000000E-01  3.973839300000E+00 -1.007554200000E+00
   54    35 BR   -1.762701000000E-01 -3.973839300000E+00 -1.007554200000E+00
   55    35 BR    3.973839300000E+00 -1.762701000000E-01  1.007554200000E+00
   56    35 BR   -3.973839300000E+00  1.762701000000E-01  1.007554200000E+00
   57    35 BR   -3.984849300000E+00 -4.050579000000E-01 -2.095762200000E+00
   58    35 BR    3.984849300000E+00  4.050579000000E-01 -2.095762200000E+00
   59    35 BR   -4.050579000000E-01  3.984849300000E+00  2.095762200000E+00
   60    35 BR    4.050579000000E-01 -3.984849300000E+00  2.095762200000E+00
   61    30 ZN    5.505000000000E+00  4.700037766092E-16 -1.030500000000E+01
   62    30 ZN   -2.035630914020E-31 -2.035630914020E-31  6.870000000000E+00

 *******************************************************************************
 STARTING BASIS SET HANDLING 
 *******************************************************************************

 Loading internal basis set: POB-DZVPP           

 Please cite in your publication:
 Peintinger, M. F., Oliveira, D. V. and Bredow, T. (2013), Generally applicable 
 solid-state Gaussian basis sets, in preparation                                
                                                                                
                    

 *******************************************************************************
 LOCAL ATOMIC FUNCTIONS BASIS SET
 *******************************************************************************
   ATOM   X(AU)   Y(AU)   Z(AU)  N. TYPE  EXPONENT  S COEF   P COEF   D/F/G COEF
 *******************************************************************************
   1 H   -2.283  -0.788  -3.186
                                  1 S  
                                         2.263E+01 1.441E-02 0.000E+00 0.000E+00
                                         3.236E+00 1.072E-01 0.000E+00 0.000E+00
                                         7.304E-01 3.846E-01 0.000E+00 0.000E+00
                                  2 S  
                                         1.417E-01 1.000E+00 0.000E+00 0.000E+00
                           3-     5 P  
                                         3.944E-01 0.000E+00 1.000E+00 0.000E+00
                           6-     8 P  
                                         1.006E-01 0.000E+00 1.000E+00 0.000E+00
   2 H    2.283   0.788  -3.186
   3 H   -0.788   2.283   3.186
   4 H    0.788  -2.283   3.186
   5 C   -4.557   6.186  -2.808
                                 33 S  
                                         1.238E+03 5.457E-03 0.000E+00 0.000E+00
                                         1.863E+02 4.064E-02 0.000E+00 0.000E+00
                                         4.225E+01 1.803E-01 0.000E+00 0.000E+00
                                         1.168E+01 4.632E-01 0.000E+00 0.000E+00
                                         3.593E+00 4.409E-01 0.000E+00 0.000E+00
                                 34 S  
                                         5.281E+00 1.000E+00 0.000E+00 0.000E+00
                                 35 S  
                                         4.447E-01 1.000E+00 0.000E+00 0.000E+00
                          36-    38 P  
                                         9.468E+00 0.000E+00 3.839E-02 0.000E+00
                                         2.010E+00 0.000E+00 2.112E-01 0.000E+00
                                         5.477E-01 0.000E+00 5.133E-01 0.000E+00
                          39-    41 P  
                                         1.604E-01 0.000E+00 1.000E+00 0.000E+00
                          42-    46 D  
                                         6.070E-01 0.000E+00 0.000E+00 1.000E+00
                          47-    51 D  
                                         2.939E-01 0.000E+00 0.000E+00 1.000E+00
   6 C    4.557  -6.186  -2.808
   7 C    6.186   4.557   2.808
   8 C   -6.186  -4.557   2.808
   9 C   -5.183   8.869  -3.213
  10 C    5.183  -8.869  -3.213
  11 C    8.869   5.183   3.213
  12 C   -8.869  -5.183   3.213
  13 C   -6.346   4.238  -3.152
  14 C    6.346  -4.238  -3.152
  15 C    4.238   6.346   3.152
  16 C   -4.238  -6.346   3.152
  17 C   -2.973   1.157  -3.071
  18 C    2.973  -1.157  -3.071
  19 C    1.157   2.973   3.071
  20 C   -1.157  -2.973   3.071
  21 C   -2.050   5.345  -2.448
  22 C    2.050  -5.345  -2.448
  23 C    5.345   2.050   2.448
  24 C   -5.345  -2.050   2.448
  25 C    5.527  -1.720  -3.393
  26 C   -5.527   1.720  -3.393
  27 C   -1.720  -5.527   3.393
  28 C    1.720   5.527   3.393
  29 N    6.611  -0.070   8.165
                                489 S  
                                         1.713E+03-5.393E-03 0.000E+00 0.000E+00
                                         2.576E+02-4.022E-02 0.000E+00 0.000E+00
                                         5.846E+01-1.793E-01 0.000E+00 0.000E+00
                                         1.620E+01-4.638E-01 0.000E+00 0.000E+00
                                         5.005E+00-4.417E-01 0.000E+00 0.000E+00
                                490 S  
                                         6.217E-01 1.000E+00 0.000E+00 0.000E+00
                                491 S  
                                         2.921E-01 1.000E+00 0.000E+00 0.000E+00
                         492-   494 P  
                                         1.357E+01 0.000E+00-4.007E-02 0.000E+00
                                         2.926E+00 0.000E+00-2.181E-01 0.000E+00
                                         7.993E-01 0.000E+00-5.129E-01 0.000E+00
                         495-   497 P  
                                         2.244E-01 0.000E+00 1.000E+00 0.000E+00
                         498-   502 D  
                                         3.118E-01 0.000E+00 0.000E+00 1.000E+00
  30 N   -6.611   0.070   8.165
  31 N   -0.070  -6.611  -8.165
  32 N    0.070   6.611  -8.165
  33 N    5.442   2.243   8.070
  34 N   -5.442  -2.243   8.070
  35 N    2.243  -5.442  -8.070
  36 N   -2.243   5.442  -8.070
  37 N    3.219  -0.150  10.648
  38 N   -3.219   0.150  10.648
  39 N   -0.150  -3.219 -10.648
  40 N    0.150   3.219 -10.648
  41 N    3.440   2.204   9.552
  42 N   -3.440  -2.204   9.552
  43 N    2.204  -3.440  -9.552
  44 N   -2.204   3.440  -9.552
  45 N   -1.279   2.963  -2.536
  46 N    1.279  -2.963  -2.536
  47 N    2.963   1.279   2.536
  48 N   -2.963  -1.279   2.536
  49 BR   0.911  -5.357   9.703
                                769 S  
                                         1.133E+05 1.428E-03 0.000E+00 0.000E+00
                                         1.701E+04 1.095E-02 0.000E+00 0.000E+00
                                         3.870E+03 5.442E-02 0.000E+00 0.000E+00
                                         1.093E+03 1.905E-01 0.000E+00 0.000E+00
                                         3.564E+02 3.902E-01 0.000E+00 0.000E+00
                                         1.231E+02 3.081E-01 0.000E+00 0.000E+00
                                770 S  
                                         2.367E+02-1.123E-01 0.000E+00 0.000E+00
                                         2.847E+01 6.478E-01 0.000E+00 0.000E+00
                                         1.188E+01 4.424E-01 0.000E+00 0.000E+00
                                771 S  
                                         2.127E+01-2.264E-01 0.000E+00 0.000E+00
                                         3.613E+00 7.382E-01 0.000E+00 0.000E+00
                                         1.663E+00 4.268E-01 0.000E+00 0.000E+00
                                772 S  
                                         3.641E-01 1.000E+00 0.000E+00 0.000E+00
                                773 S  
                                         1.243E-01 1.000E+00 0.000E+00 0.000E+00
                         774-   776 P  
                                         1.560E+03 0.000E+00 8.717E-03 0.000E+00
                                         3.685E+02 0.000E+00 6.624E-02 0.000E+00
                                         1.172E+02 0.000E+00 2.650E-01 0.000E+00
                                         4.265E+01 0.000E+00 5.384E-01 0.000E+00
                                         1.609E+01 0.000E+00 3.658E-01 0.000E+00
                         777-   779 P  
                                         8.635E+00 0.000E+00 3.425E-01 0.000E+00
                                         3.561E+00 0.000E+00 5.750E-01 0.000E+00
                                         1.529E+00 0.000E+00 2.433E-01 0.000E+00
                         780-   782 P  
                                         6.447E-01 0.000E+00 1.000E+00 0.000E+00
                         783-   785 P  
                                         2.103E-01 0.000E+00 1.000E+00 0.000E+00
                         786-   790 D  
                                         1.049E+02 0.000E+00 0.000E+00 2.265E-02
                                         3.028E+01 0.000E+00 0.000E+00 1.346E-01
                                         1.065E+01 0.000E+00 0.000E+00 3.647E-01
                                         3.870E+00 0.000E+00 0.000E+00 4.904E-01
                         791-   795 D  
                                         1.342E+00 0.000E+00 0.000E+00 1.000E+00
                         796-   800 D  
                                         4.101E-01 0.000E+00 0.000E+00 1.000E+00
                         801-   805 D  
                                         1.985E-01 0.000E+00 0.000E+00 1.000E+00
  50 BR  -0.911   5.357   9.703
  51 BR  -5.357  -0.911  -9.703
  52 BR   5.357   0.911  -9.703
  53 BR   0.333   7.509  -1.904
  54 BR  -0.333  -7.509  -1.904
  55 BR   7.509  -0.333   1.904
  56 BR  -7.509   0.333   1.904
  57 BR  -7.530  -0.765  -3.960
  58 BR   7.530   0.765  -3.960
  59 BR  -0.765   7.530   3.960
  60 BR   0.765  -7.530   3.960
  61 ZN  10.403   0.000 -19.474
                               1213 S  
                                         8.200E+04 1.421E-03 0.000E+00 0.000E+00
                                         1.231E+04 1.089E-02 0.000E+00 0.000E+00
                                         2.801E+03 5.406E-02 0.000E+00 0.000E+00
                                         7.910E+02 1.885E-01 0.000E+00 0.000E+00
                                         2.576E+02 3.835E-01 0.000E+00 0.000E+00
                                         8.881E+01 2.972E-01 0.000E+00 0.000E+00
                               1214 S  
                                         1.719E+02-1.105E-01 0.000E+00 0.000E+00
                                         2.030E+01 6.461E-01 0.000E+00 0.000E+00
                                         8.346E+00 4.422E-01 0.000E+00 0.000E+00
                               1215 S  
                                         1.485E+01-2.271E-01 0.000E+00 0.000E+00
                                         2.450E+00 7.243E-01 0.000E+00 0.000E+00
                                         9.985E-01 4.484E-01 0.000E+00 0.000E+00
                               1216 S  
                                         1.493E+00 1.000E+00 0.000E+00 0.000E+00
                               1217 S  
                                         1.830E-01 1.000E+00 0.000E+00 0.000E+00
                        1218-  1220 P  
                                         1.072E+03 0.000E+00 9.277E-03 0.000E+00
                                         2.527E+02 0.000E+00 6.954E-02 0.000E+00
                                         8.010E+01 0.000E+00 2.716E-01 0.000E+00
                                         2.890E+01 0.000E+00 5.340E-01 0.000E+00
                                         1.077E+01 0.000E+00 3.450E-01 0.000E+00
                        1221-  1223 P  
                                         5.645E+00 0.000E+00 3.413E-01 0.000E+00
                                         2.168E+00 0.000E+00 5.639E-01 0.000E+00
                                         8.054E-01 0.000E+00 2.368E-01 0.000E+00
                        1224-  1226 P  
                                         2.721E-01 0.000E+00 1.000E+00 0.000E+00
                        1227-  1231 D  
                                         5.609E+01 0.000E+00 0.000E+00 2.959E-02
                                         1.575E+01 0.000E+00 0.000E+00 1.587E-01
                                         5.312E+00 0.000E+00 0.000E+00 3.798E-01
                                         1.774E+00 0.000E+00 0.000E+00 4.690E-01
                        1232-  1236 D  
                                         5.073E-01 0.000E+00 0.000E+00 1.000E+00
                        1237-  1243 F  
                                         2.814E+00 0.000E+00 0.000E+00 1.000E+00
                        1244-  1250 F  
                                         1.300E+00 0.000E+00 0.000E+00 1.000E+00
  62 ZN  -0.000  -0.000  12.982

 *******************************************************************************
 FINISHED BASIS SET HANDLING 
 *******************************************************************************

 INFORMATION **** SET_MPP **** PCRYSTAL CALCULATION
 INFORMATION **** READM2 **** NEW DEFAULT: FOCK/KS MATRIX MIXING SET TO 30 %
 INFORMATION **** READM2 **** NEW DEFAULT: FULL DIRECT SCF MODE
 INFORMATION **** READM2 **** NEW DEFAULT: COULOMB BIPOLAR BUFFER SET TO 32 Mb
 INFORMATION **** READM2 **** NEW DEFAULT: EXCHANGE BIPOLAR BUFFER SET TO 32 Mb

 *******************************************************************************
 NEW DEFAULT: DFT INTEGRATION GRID INCREASED TO XLGRID
 NEW DEFAULT: DIIS ACCELERATOR ACTIVE
 USE KEYWORD NODIIS TO TURN IT OFF
 *******************************************************************************

 INFORMATION **** DFTD3_INPUT **** PERFORM DISPERSION CORRECTION DFT-D3(BJ) IN THE BECKE-JOHNSON DAMPING SCHEME

 PLEASE CITE:
 (1) DFT-D3 Reference
  S. Grimme, J. Antony, S. Ehrlich, and H. Krieg, J. Chem. Phys. 132 (2010), 154104
 (2) BJ-Damping Reference
  S. Grimme, S. Ehrlich, and L. Goerigk, J. Comput. Chem. 32 (2011), 1456-1465
 (3) General DFT-D Review
  S. Grimme, A. Hansen, J. G. Brandenburg, and C. Bannwarth,
  Chem. Rev. 116 (2016), 5105-5154

 INFORMATION **** BIPOSIZE **** COULOMB BIPOLAR BUFFER SET TO    30000000
 INFORMATION **** EXCHSIZE **** EXCHANGE BIPOLAR BUFFER SIZE SET TO    30000000
 INFORMATION **** TOLINTEG **** COULOMB AND EXCHANGE SERIES TOLERANCES MODIFIED
 INFORMATION **** MAXCYCLE **** MAX NUMBER OF SCF CYCLES SET TO        1000
 *******************************************************************************
 N. OF ATOMS PER CELL        62  COULOMB OVERLAP TOL         (T1) 10**  -12
 NUMBER OF SHELLS           484  COULOMB PENETRATION TOL     (T2) 10**  -12
 NUMBER OF AO              1288  EXCHANGE OVERLAP TOL        (T3) 10**   20
 N. OF ELECTRONS PER CELL   768  EXCHANGE PSEUDO OVP (F(G))  (T4) 10**   20
 CORE ELECTRONS PER CELL    460  EXCHANGE PSEUDO OVP (P(G))  (T5) 10**   20
 N. OF SYMMETRY OPERATORS     4  POLE ORDER IN MONO ZONE                  4
 *******************************************************************************
 TYPE OF CALCULATION :  RESTRICTED CLOSED SHELL
 KOHN-SHAM HAMILTONIAN

 (EXCHANGE)[CORRELATION] FUNCTIONAL:(PERDEW-BURKE-ERNZERHOF)[PERDEW-BURKE-ERNZERHOF]


 CAPPA:IS1  3;IS2  3;IS3  3; K PTS MONK NET   6; SYMMOPS:K SPACE   8;G SPACE   4

 *******************************************************************************
 MAX NUMBER OF SCF CYCLES    1000  CONVERGENCE ON DELTAP        10**-16
 WEIGHT OF F(I) IN F(I+1)      30% CONVERGENCE ON ENERGY        10**- 7
 SHRINK. FACT.(MONKH.)    3  3  3  NUMBER OF K POINTS IN THE IBZ      6
 SHRINKING FACTOR(GILAT NET)    3  NUMBER OF K POINTS(GILAT NET)      6
 *******************************************************************************
 *** K POINTS COORDINATES (OBLIQUE COORDINATES IN UNITS OF IS =  3)
   1-R(  0  0  0)   2-C(  1  0  0)   3-C(  1  1  0)   4-C(  2  1  0)
   5-C(  2  1  1)   6-C(  2  2  1)

 DIRECT LATTICE VECTORS COMPON. (A.U.)     RECIP. LATTICE VECTORS COMPON. (A.U.) 
        X            Y            Z              X            Y            Z
  -10.4029424   10.4029424   12.9824185      0.0000000    0.3019908    0.2419882
   10.4029424  -10.4029424   12.9824185      0.3019908    0.0000000    0.2419882
   10.4029424   10.4029424  -12.9824185      0.3019908    0.3019908    0.0000000

 DISK SPACE FOR EIGENVECTORS (FTN 10)    18248384 REALS

 SYMMETRY ADAPTION OF THE BLOCH FUNCTIONS ENABLED
 TTTTTTTTTTTTTTTTTTTTTTTTTTTTTT gordsh1     TELAPSE        3.26 TCPU        0.06

 MATRIX SIZE: P(G) 2175868, F(G) 1088738, P(G) IRR  274682, F(G) IRR  274682
 MAX G-VECTOR INDEX FOR 1- AND 2-ELECTRON INTEGRALS  63

 TTTTTTTTTTTTTTTTTTTTTTTTTTTTTT INPUT       TELAPSE        3.30 TCPU        0.11

 NEIGHBORS OF THE NON-EQUIVALENT ATOMS

 N = NUMBER OF NEIGHBORS AT DISTANCE R
    ATOM  N     R/ANG      R/AU   NEIGHBORS (ATOM LABELS AND CELL INDICES)
   1 H    1     1.0941     2.0675   17 C    0 0 0
   1 H    1     2.0834     3.9370   45 N    0 0 0
   1 H    1     2.1725     4.1054   26 C    0 0 0
   1 H    1     2.2349     4.2234   46 N    0 0 0
   1 H    1     2.5564     4.8309    2 H    0 0 0
   1 H    1     2.7892     5.2708   18 C    0 0 0

   5 C    1     1.4112     2.6668   13 C    0 0 0
   5 C    1     1.4124     2.6691   21 C    0 0 0
   5 C    1     1.4733     2.7842    9 C    0 0 0
   5 C    1     2.4373     4.6059   45 N    0 0 0
   5 C    1     2.4381     4.6073   26 C    0 0 0
   5 C    1     2.4716     4.6707   29 N    0-1 0

   9 C    1     1.3648     2.5791   29 N    0-1 0
   9 C    1     1.3689     2.5869   37 N    0-1 0
   9 C    1     1.4733     2.7842    5 C    0 0 0
   9 C    1     2.1938     4.1456   41 N    0-1 0
   9 C    1     2.1951     4.1482   33 N    0-1 0
   9 C    1     2.5265     4.7743   13 C    0 0 0

  13 C    1     1.4071     2.6591   26 C    0 0 0
  13 C    1     1.4112     2.6668    5 C    0 0 0
  13 C    1     1.7201     3.2505   49 BR   0-1 0
  13 C    1     2.3770     4.4918   21 C    0 0 0
  13 C    1     2.4177     4.5687   17 C    0 0 0
  13 C    1     2.5265     4.7743    9 C    0 0 0

  17 C    1     1.0941     2.0675    1 H    0 0 0
  17 C    1     1.3406     2.5334   45 N    0 0 0
  17 C    1     1.3941     2.6344   26 C    0 0 0
  17 C    1     2.2929     4.3329   21 C    0 0 0
  17 C    1     2.4177     4.5687   13 C    0 0 0
  17 C    1     2.6593     5.0253   57 BR   0 0 0

  21 C    1     1.3258     2.5054   45 N    0 0 0
  21 C    1     1.4124     2.6691    5 C    0 0 0
  21 C    1     1.7278     3.2651   53 BR   0 0 0
  21 C    1     2.2929     4.3329   17 C    0 0 0
  21 C    1     2.3770     4.4918   13 C    0 0 0
  21 C    1     2.5279     4.7771    9 C    0 0 0

  25 C    1     1.3941     2.6344   18 C    0 0 0
  25 C    1     1.4071     2.6591   14 C    0 0 0
  25 C    1     1.7158     3.2425   58 BR   0 0 0
  25 C    1     2.1725     4.1054    2 H    0 0 0
  25 C    1     2.3858     4.5085   46 N    0 0 0
  25 C    1     2.4381     4.6073    6 C    0 0 0

  29 N    1     1.3648     2.5791    9 C    0 1 0
  29 N    1     1.3726     2.5939   33 N    0 0 0
  29 N    1     2.1911     4.1405   41 N    0 0 0
  29 N    1     2.1939     4.1458   61 ZN   1 1 0
  29 N    1     2.2247     4.2041   37 N    0 0 0
  29 N    1     2.4716     4.6707    5 C    0 1 0

  33 N    1     1.3178     2.4904   41 N    0 0 0
  33 N    1     1.3726     2.5939   29 N    0 0 0
  33 N    1     2.1951     4.1482    9 C    0 1 0
  33 N    1     2.2019     4.1609   37 N    0 0 0
  33 N    1     2.9410     5.5577   54 BR   1 1 1
  33 N    1     2.9775     5.6266   23 C    0 0 0

  37 N    1     1.3689     2.5869    9 C    0 1 0
  37 N    1     1.3789     2.6057   41 N    0 0 0
  37 N    1     2.1057     3.9791   62 ZN   0 0 0
  37 N    1     2.2019     4.1609   33 N    0 0 0
  37 N    1     2.2247     4.2041   29 N    0 0 0
  37 N    1     2.5743     4.8648    5 C    0 1 0

  41 N    1     1.3178     2.4904   33 N    0 0 0
  41 N    1     1.3789     2.6057   37 N    0 0 0
  41 N    1     2.1911     4.1405   29 N    0 0 0
  41 N    1     2.1938     4.1456    9 C    0 1 0
  41 N    1     2.8232     5.3350   62 ZN   0 0 0
  41 N    1     2.8450     5.3762   50 BR   0 0 0

  45 N    1     1.3258     2.5054   21 C    0 0 0
  45 N    1     1.3406     2.5334   17 C    0 0 0
  45 N    1     2.0834     3.9370    1 H    0 0 0
  45 N    1     2.2349     4.2234    2 H    0 0 0
  45 N    1     2.3858     4.5085   26 C    0 0 0
  45 N    1     2.4373     4.6059    5 C    0 0 0

  49 BR   1     1.7201     3.2505   13 C    0 1 0
  49 BR   1     2.6919     5.0869    5 C    0 1 0
  49 BR   1     2.7392     5.1764   26 C    0 1 0
  49 BR   1     2.8450     5.3762   42 N    0 0 0
  49 BR   1     3.0445     5.7532   58 BR   0 0-1
  49 BR   1     3.0484     5.7607    9 C    0 1 0

  53 BR   1     1.7278     3.2651   21 C    0 0 0
  53 BR   1     2.5746     4.8653   45 N    0 0 0
  53 BR   1     2.7232     5.1462    5 C    0 0 0
  53 BR   1     2.8612     5.4069   30 N    0 0 1
  53 BR   1     2.8754     5.4337   61 ZN   1 0 0
  53 BR   1     2.9410     5.5577   34 N    0 0 1

  57 BR   1     1.7158     3.2425   26 C    0 0 0
  57 BR   1     2.6593     5.0253   17 C    0 0 0
  57 BR   1     2.7545     5.2052   13 C    0 0 0
  57 BR   1     2.8067     5.3039    1 H    0 0 0
  57 BR   1     3.0445     5.7532   50 BR  -1-1-1
  57 BR   1     3.1464     5.9458   58 BR   0-1-1

  61 ZN   4     2.1939     4.1458   29 N   -1-1 0   30 N   -1 0 1   31 N    0 0 1
                                    32 N   -1 0 0
  61 ZN   4     2.8754     5.4337   53 BR  -1 0 0   54 BR   0 0 1   55 BR  -1-1 0
                                    56 BR  -1 0 1
  61 ZN   4     2.9999     5.6690   33 N   -1-1 0   34 N   -1 0 1   35 N    0 0 1
                                    36 N   -1 0 0
  61 ZN   4     3.3454     6.3219    9 C   -1 0 0   10 C    0 0 1   11 C   -1-1 0
                                    12 C   -1 0 1
  61 ZN   4     3.5944     6.7924   21 C   -1 0 0   22 C    0 0 1   23 C   -1-1 0
                                    24 C   -1 0 1
  61 ZN   4     3.8202     7.2191    5 C   -1 0 0    6 C    0 0 1    7 C   -1-1 0
                                     8 C   -1 0 1

  62 ZN   4     2.1057     3.9791   37 N    0 0 0   38 N    0 0 0   39 N    1 1 0
                                    40 N    1 1 0
  62 ZN   4     2.8232     5.3350   41 N    0 0 0   42 N    0 0 0   43 N    1 1 0
                                    44 N    1 1 0
  62 ZN   4     3.3436     6.3185    9 C    0 1 0   10 C    1 0 0   11 C    0 0-1
                                    12 C    1 1 1
  62 ZN   4     3.3587     6.3470   49 BR   0 0 0   50 BR   0 0 0   51 BR   1 1 0
                                    52 BR   1 1 0
  62 ZN   4     4.0569     7.6665   33 N    0 0 0   34 N    0 0 0   35 N    1 1 0
                                    36 N    1 1 0
  62 ZN   4     4.0936     7.7357    5 C    0 1 0    6 C    1 0 0    7 C    0 0-1
                                     8 C    1 1 1


 SYMMETRY ALLOWED ELASTIC DISTORTION 1
  0.5773503  0.0000000  0.0000000
  0.0000000  0.5773503  0.0000000
  0.0000000  0.0000000  0.5773503

 SYMMETRY ALLOWED ELASTIC DISTORTION 2
  0.4082483  0.0000000  0.0000000
  0.0000000  0.4082483  0.0000000
  0.0000000  0.0000000 -0.8164966

 SYMMETRY ALLOWED INTERNAL DEGREE(S) OF FREEDOM:  45
 TTTTTTTTTTTTTTTTTTTTTTTTTTTTTT SYMM        TELAPSE        3.90 TCPU        0.70
 TTTTTTTTTTTTTTTTTTTTTTTTTTTTTT INT_SCREEN  TELAPSE        3.90 TCPU        0.70

 *******************************************************************************
 *                             OPTIMIZATION STARTS                             *
 *******************************************************************************
 RECLASIFICATION OF INDICES FOR INTEGRAL CALC ACCORDING TO DIFFERENT CRITERIA:
           FIXDELTE                  FIXDELTX              FIXDELTN
          0.10000000               0.80000000                 47
 DEFAULT MAX NUM OF POINTS  100
 *******************************************************************************

 *******************************************************************************
 COORDINATE AND CELL OPTIMIZATION - POINT    1
 INFORMATION **** EXCBUF **** EXCH. BIPO BUFFER: WORDS USED =           0

 DFT PARAMETERS

     ATOM       ELECTRONS   NET CHARGE   R(ANGSTROM)
   1   1  H       1.0000      0.0000     1.11000000
   5   6  C       6.0000      0.0000     0.77000000
  29   7  N       7.0000      0.0000     0.74000000
  49  35  BR     35.0000      0.0000     1.14000000
  61  30  ZN     30.0000      0.0000     1.37000000

 SIZE OF GRID=     469350
 TTTTTTTTTTTTTTTTTTTTTTTTTTTTTT MAKE_GRID2  TELAPSE       10.05 TCPU        6.81
 BECKE WEIGHT FUNCTION
 RADSAFE =     2.00
 TOLERANCES - DENSITY:10**- 6; POTENTIAL:10**- 9; GRID WGT:10**-14

 RADIAL INTEGRATION  - INTERVALS (POINTS,UPPER LIMIT):            1( 75,  4.0*R)

 ANGULAR INTEGRATION - INTERVALS (ACCURACY LEVEL [N. POINTS] UPPER LIMIT):
  1(  4[  86]   0.2)  2(  8[ 194]   0.5)  3( 12[ 350]   0.9)  4( 16[ 974]   3.5)
  5( 12[ 350]9999.0)
 TTTTTTTTTTTTTTTTTTTTTTTTTTTTTT INT_CALC    TELAPSE       10.16 TCPU        6.92

 *******************************************************************************
 C:\Users\wilso\AppData\Local\Temp\tmp_p\newconn.mol                             
 CRYSTAL - SCF - TYPE OF CALCULATION :  RESTRICTED CLOSED SHELL
 *******************************************************************************

 CAPPA:IS1  3;IS2  3;IS3  3; K PTS MONK NET   6; SYMMOPS:K SPACE   8;G SPACE   4

 TTTTTTTTTTTTTTTTTTTTTTTTTTTTTT SDIK        TELAPSE       10.35 TCPU        7.11

 AAAAAAAAAAAAAAAAAAAAAAAAAAAAAAAAAAAAAAAAAAAAAAAAAAAAAAAAAAAAAAAAAAAAAAAAAAAAAAA
         ATOMIC WAVEFUNCTION(S)


 NUCLEAR CHARGE  1.0  SYMMETRY SPECIES            S
 N. ELECTRONS    1.0  NUMBER OF PRIMITIVE GTOS    4
                      NUMBER OF CONTRACTED GTOS   2
                      NUMBER OF CLOSED SHELLS     0
                      OPEN SHELL OCCUPATION       1

  ZNUC SCFIT  TOTAL HF ENERGY   KINETIC ENERGY   VIRIAL THEOREM ACCURACY
   1.0   1   -4.946643675E-01  4.917913167E-01 -2.005842012E+00  9.4E-17

 NUCLEAR CHARGE  6.0  SYMMETRY SPECIES            S    P
 N. ELECTRONS    6.0  NUMBER OF PRIMITIVE GTOS    7    4
                      NUMBER OF CONTRACTED GTOS   3    2
                      NUMBER OF CLOSED SHELLS     2    0
                      OPEN SHELL OCCUPATION       0    2

  ZNUC SCFIT  TOTAL HF ENERGY   KINETIC ENERGY   VIRIAL THEOREM ACCURACY
   6.0   6   -3.750912652E+01  3.905246519E+01 -1.960480378E+00  3.7E-06

 NUCLEAR CHARGE  7.0  SYMMETRY SPECIES            S    P
 N. ELECTRONS    7.0  NUMBER OF PRIMITIVE GTOS    7    4
                      NUMBER OF CONTRACTED GTOS   3    2
                      NUMBER OF CLOSED SHELLS     2    0
                      OPEN SHELL OCCUPATION       0    3

  ZNUC SCFIT  TOTAL HF ENERGY   KINETIC ENERGY   VIRIAL THEOREM ACCURACY
   7.0   9   -5.432196661E+01  5.425066284E+01 -2.001314339E+00  1.2E-06

 NUCLEAR CHARGE 35.0  SYMMETRY SPECIES            S    P    D
 N. ELECTRONS   35.0  NUMBER OF PRIMITIVE GTOS   14   10    7
                      NUMBER OF CONTRACTED GTOS   5    4    4
                      NUMBER OF CLOSED SHELLS     4    2    1
                      OPEN SHELL OCCUPATION       0    5    0

  ZNUC SCFIT  TOTAL HF ENERGY   KINETIC ENERGY   VIRIAL THEOREM ACCURACY
  35.0  13   -2.572060514E+03  2.572021521E+03 -2.000015161E+00  3.6E-06

 NUCLEAR CHARGE 30.0  SYMMETRY SPECIES            S    P    D
 N. ELECTRONS   30.0  NUMBER OF PRIMITIVE GTOS   14    9    5
                      NUMBER OF CONTRACTED GTOS   5    3    2
                      NUMBER OF CLOSED SHELLS     4    2    1
                      OPEN SHELL OCCUPATION       0    0    0

  ZNUC SCFIT  TOTAL HF ENERGY   KINETIC ENERGY   VIRIAL THEOREM ACCURACY
  30.0  10   -1.777404290E+03  1.777325716E+03 -2.000044209E+00  2.5E-06

 AAAAAAAAAAAAAAAAAAAAAAAAAAAAAAAAAAAAAAAAAAAAAAAAAAAAAAAAAAAAAAAAAAAAAAAAAAAAAAA

 CHARGE NORMALIZATION FACTOR   1.00000000
 TOTAL ATOMIC CHARGES:
   1.0000000   1.0000000   1.0000000   1.0000000   6.0000000   6.0000000
   6.0000000   6.0000000   6.0000000   6.0000000   6.0000000   6.0000000
   6.0000000   6.0000000   6.0000000   6.0000000   6.0000000   6.0000000
   6.0000000   6.0000000   6.0000000   6.0000000   6.0000000   6.0000000
   6.0000000   6.0000000   6.0000000   6.0000000   7.0000000   7.0000000
   7.0000000   7.0000000   7.0000000   7.0000000   7.0000000   7.0000000
   7.0000000   7.0000000   7.0000000   7.0000000   7.0000000   7.0000000
   7.0000000   7.0000000   7.0000000   7.0000000   7.0000000   7.0000000
  35.0000000  35.0000000  35.0000000  35.0000000  35.0000000  35.0000000
  35.0000000  35.0000000  35.0000000  35.0000000  35.0000000  35.0000000
  30.0000000  30.0000000
 TTTTTTTTTTTTTTTTTTTTTTTTTTTTTT MOQGAD      TELAPSE       11.46 TCPU        8.22
 TTTTTTTTTTTTTTTTTTTTTTTTTTTTTT SHELLXN     TELAPSE       29.36 TCPU       25.78
 TTTTTTTTTTTTTTTTTTTTTTTTTTTTTT MONMO3      TELAPSE       30.63 TCPU       27.04
 NUMERICALLY INTEGRATED DENSITY    767.9997898077
 TTTTTTTTTTTTTTTTTTTTTTTTTTTTTT NUMDFT      TELAPSE       31.14 TCPU       27.55
 CYC   0 ETOT(AU) -3.645388259982E+04 DETOT -3.65E+04 tst  0.00E+00 PX  1.00E+00
 TTTTTTTTTTTTTTTTTTTTTTTTTTTTTT DIIS        TELAPSE       31.20 TCPU       27.61
 TTTTTTTTTTTTTTTTTTTTTTTTTTTTTT FDIK        TELAPSE       50.87 TCPU       46.97
 INSULATING STATE
 TOP OF VALENCE BANDS -    BAND    384; K    4; EIG -1.2717196E-01 AU
 TOP OF VALENCE BANDS -    BAND    384; K    1; EIG -1.2770182E-01 AU
 BOTTOM OF VIRTUAL BANDS - BAND    385; K    6; EIG -9.5621391E-02 AU
 INDIRECT ENERGY BAND GAP:   0.8585 eV
 BOTTOM OF VIRTUAL BANDS - BAND    385; K    1; EIG -9.2329491E-02 AU
 TTTTTTTTTTTTTTTTTTTTTTTTTTTTTT PDIG        TELAPSE       51.72 TCPU       47.80
 CHARGE NORMALIZATION FACTOR   1.00000000
 TOTAL ATOMIC CHARGES:
   1.2427536   1.2427536   1.2427536   1.2427536   6.2314739   6.2314739
   6.2314739   6.2314739   5.4966359   5.4966359   5.4966359   5.4966359
   5.8651696   5.8651696   5.8651696   5.8651696   5.9328728   5.9328728
   5.9328728   5.9328728   5.4795373   5.4795373   5.4795373   5.4795373
   5.7823305   5.7823305   5.7823305   5.7823305   7.4677160   7.4677160
   7.4677160   7.4677160   7.2183881   7.2183881   7.2183881   7.2183881
   7.4498441   7.4498441   7.4498441   7.4498441   7.1249635   7.1249635
   7.1249635   7.1249635   7.5623826   7.5623826   7.5623826   7.5623826
  35.0126009  35.0126009  35.0126009  35.0126009  35.0686947  35.0686947
  35.0686947  35.0686947  35.0645051  35.0645051  35.0645051  35.0645051
  27.9909347  28.0095912
 TTTTTTTTTTTTTTTTTTTTTTTTTTTTTT MOQGAD      TELAPSE       51.73 TCPU       47.82
 TTTTTTTTTTTTTTTTTTTTTTTTTTTTTT SHELLXN     TELAPSE       75.18 TCPU       69.02
 TTTTTTTTTTTTTTTTTTTTTTTTTTTTTT MONMO3      TELAPSE       77.03 TCPU       70.86
 NUMERICALLY INTEGRATED DENSITY    767.9997872893
 TTTTTTTTTTTTTTTTTTTTTTTTTTTTTT NUMDFT      TELAPSE       78.39 TCPU       72.20
 CYC   1 ETOT(AU) -3.644605185051E+04 DETOT  7.83E+00 tst  0.00E+00 PX  1.00E+00
 TTTTTTTTTTTTTTTTTTTTTTTTTTTTTT DIIS        TELAPSE       78.56 TCPU       72.37
 DIIS TEST: 0.90416E+01 AT SCF   CYCLE   1 - MIX   30 %
 TTTTTTTTTTTTTTTTTTTTTTTTTTTTTT FDIK        TELAPSE       86.67 TCPU       78.45
 POSSIBLY CONDUCTING STATE - EFERMI(AU) -1.0974720E-01 (RES. CHARGE  7.87E-11;IT. 10)
 TTTTTTTTTTTTTTTTTTTTTTTTTTTTTT PDIG        TELAPSE       87.51 TCPU       79.29
 CHARGE NORMALIZATION FACTOR   1.00000000
 TOTAL ATOMIC CHARGES:
   1.1965942   1.1965942   1.1965942   1.1965942   6.3004430   6.3004430
   6.3004430   6.3004430   6.4585626   6.4585626   6.4585626   6.4585626
   6.4466797   6.4466797   6.4466797   6.4466797   5.8923873   5.8923873
   5.8923873   5.8923873   6.2715819   6.2715819   6.2715819   6.2715819
   5.9555941   5.9555941   5.9555941   5.9555941   6.9777840   6.9777840
   6.9777840   6.9777840   6.9326078   6.9326078   6.9326078   6.9326078
   7.0203847   7.0203847   7.0203847   7.0203847   6.8843702   6.8843702
   6.8843702   6.8843702   5.5915439   5.5915439   5.5915439   5.5915439
  35.0968201  35.0968201  35.0968201  35.0968201  35.1607092  35.1607092
  35.1607092  35.1607092  35.0176215  35.0176215  35.0176215  35.0176215
  29.7334956  29.4517674
 TTTTTTTTTTTTTTTTTTTTTTTTTTTTTT MOQGAD      TELAPSE       87.53 TCPU       79.31
 TTTTTTTTTTTTTTTTTTTTTTTTTTTTTT SHELLXN     TELAPSE      111.60 TCPU      100.95
 TTTTTTTTTTTTTTTTTTTTTTTTTTTTTT MONMO3      TELAPSE      113.00 TCPU      102.34
 NUMERICALLY INTEGRATED DENSITY    767.9997688322
 TTTTTTTTTTTTTTTTTTTTTTTTTTTTTT NUMDFT      TELAPSE      114.28 TCPU      103.61
 CYC   2 ETOT(AU) -3.644273133401E+04 DETOT  3.32E+00 tst  1.63E-02 PX  1.02E+00
 TTTTTTTTTTTTTTTTTTTTTTTTTTTTTT DIIS        TELAPSE      114.43 TCPU      103.76
 DIIS TEST: 0.35266E+02 AT SCF   CYCLE   2 - DIIS ACTIVE - HISTORY:     2 CYCLES
 TTTTTTTTTTTTTTTTTTTTTTTTTTTTTT FDIK        TELAPSE      122.63 TCPU      109.60
 INSULATING STATE
 TOP OF VALENCE BANDS -    BAND    384; K    3; EIG -2.0013049E-01 AU
 TOP OF VALENCE BANDS -    BAND    384; K    1; EIG -2.0582643E-01 AU
 BOTTOM OF VIRTUAL BANDS - BAND    385; K    6; EIG -1.1640428E-01 AU
 INDIRECT ENERGY BAND GAP:   2.2783 eV
 BOTTOM OF VIRTUAL BANDS - BAND    385; K    1; EIG -1.1457079E-01 AU
 TTTTTTTTTTTTTTTTTTTTTTTTTTTTTT PDIG        TELAPSE      123.48 TCPU      110.45
 CHARGE NORMALIZATION FACTOR   1.00000000
 TOTAL ATOMIC CHARGES:
   1.1689771   1.1689771   1.1689771   1.1689771   5.8872637   5.8872637
   5.8872637   5.8872637   6.0870807   6.0870807   6.0870807   6.0870807
   5.9886213   5.9886213   5.9886213   5.9886213   6.1974578   6.1974578
   6.1974578   6.1974578   6.0025869   6.0025869   6.0025869   6.0025869
   5.8923012   5.8923012   5.8923012   5.8923012   6.9097915   6.9097915
   6.9097915   6.9097915   7.1188273   7.1188273   7.1188273   7.1188273
   6.9406660   6.9406660   6.9406660   6.9406660   7.0109104   7.0109104
   7.0109104   7.0109104   7.3435940   7.3435940   7.3435940   7.3435940
  34.9656077  34.9656077  34.9656077  34.9656077  34.9448446  34.9448446
  34.9448446  34.9448446  34.9037550  34.9037550  34.9037550  34.9037550
  29.2532508  29.2976078
 TTTTTTTTTTTTTTTTTTTTTTTTTTTTTT MOQGAD      TELAPSE      123.50 TCPU      110.46
 TTTTTTTTTTTTTTTTTTTTTTTTTTTTTT SHELLXN     TELAPSE      147.28 TCPU      131.79
 TTTTTTTTTTTTTTTTTTTTTTTTTTTTTT MONMO3      TELAPSE      149.03 TCPU      133.54
 NUMERICALLY INTEGRATED DENSITY    767.9997810536
 TTTTTTTTTTTTTTTTTTTTTTTTTTTTTT NUMDFT      TELAPSE      150.35 TCPU      134.85
 CYC   3 ETOT(AU) -3.644676768887E+04 DETOT -4.04E+00 tst  2.20E-01 PX  5.81E-01
 TTTTTTTTTTTTTTTTTTTTTTTTTTTTTT DIIS        TELAPSE      150.51 TCPU      135.00
 DIIS TEST: 0.49149E+01 AT SCF   CYCLE   3 - DIIS ACTIVE - HISTORY:     3 CYCLES
 TTTTTTTTTTTTTTTTTTTTTTTTTTTTTT FDIK        TELAPSE      156.78 TCPU      141.03
 INSULATING STATE
 TOP OF VALENCE BANDS -    BAND    384; K    1; EIG -1.9979149E-01 AU
 BOTTOM OF VIRTUAL BANDS - BAND    385; K    6; EIG -1.1481348E-01 AU
 INDIRECT ENERGY BAND GAP:   2.3124 eV
 BOTTOM OF VIRTUAL BANDS - BAND    385; K    1; EIG -1.1103435E-01 AU
 TTTTTTTTTTTTTTTTTTTTTTTTTTTTTT PDIG        TELAPSE      157.62 TCPU      141.87
 CHARGE NORMALIZATION FACTOR   1.00000000
 TOTAL ATOMIC CHARGES:
   1.1983744   1.1983744   1.1983744   1.1983744   6.2393807   6.2393807
   6.2393807   6.2393807   5.8043749   5.8043749   5.8043749   5.8043749
   6.0688822   6.0688822   6.0688822   6.0688822   5.8447308   5.8447308
   5.8447308   5.8447308   5.7362999   5.7362999   5.7362999   5.7362999
   5.8729995   5.8729995   5.8729995   5.8729995   7.2970342   7.2970342
   7.2970342   7.2970342   7.0805494   7.0805494   7.0805494   7.0805494
   7.2784120   7.2784120   7.2784120   7.2784120   7.0074614   7.0074614
   7.0074614   7.0074614   7.0091582   7.0091582   7.0091582   7.0091582
  35.0615007  35.0615007  35.0615007  35.0615007  35.0544276  35.0544276
  35.0544276  35.0544276  35.0560004  35.0560004  35.0560004  35.0560004
  28.7732987  28.7883557
 TTTTTTTTTTTTTTTTTTTTTTTTTTTTTT MOQGAD      TELAPSE      157.64 TCPU      141.88
 TTTTTTTTTTTTTTTTTTTTTTTTTTTTTT SHELLXN     TELAPSE      181.24 TCPU      163.10
 TTTTTTTTTTTTTTTTTTTTTTTTTTTTTT MONMO3      TELAPSE      183.10 TCPU      164.95
 NUMERICALLY INTEGRATED DENSITY    767.9997864996
 TTTTTTTTTTTTTTTTTTTTTTTTTTTTTT NUMDFT      TELAPSE      184.38 TCPU      166.22
 CYC   4 ETOT(AU) -3.644756766056E+04 DETOT -8.00E-01 tst  3.92E-03 PX  3.28E-01
 TTTTTTTTTTTTTTTTTTTTTTTTTTTTTT DIIS        TELAPSE      184.53 TCPU      166.37
 DIIS TEST: 0.76391E+00 AT SCF   CYCLE   4 - DIIS ACTIVE - HISTORY:     4 CYCLES
 TTTTTTTTTTTTTTTTTTTTTTTTTTTTTT FDIK        TELAPSE      190.86 TCPU      172.52
 INSULATING STATE
 TOP OF VALENCE BANDS -    BAND    384; K    3; EIG -1.9982256E-01 AU
 TOP OF VALENCE BANDS -    BAND    384; K    1; EIG -2.0094119E-01 AU
 BOTTOM OF VIRTUAL BANDS - BAND    385; K    6; EIG -1.1822785E-01 AU
 INDIRECT ENERGY BAND GAP:   2.2203 eV
 BOTTOM OF VIRTUAL BANDS - BAND    385; K    1; EIG -1.1599605E-01 AU
 TTTTTTTTTTTTTTTTTTTTTTTTTTTTTT PDIG        TELAPSE      191.72 TCPU      173.37
 CHARGE NORMALIZATION FACTOR   1.00000000
 TOTAL ATOMIC CHARGES:
   1.1917913   1.1917913   1.1917913   1.1917913   6.1774944   6.1774944
   6.1774944   6.1774944   5.8987693   5.8987693   5.8987693   5.8987693
   6.0642019   6.0642019   6.0642019   6.0642019   6.0097944   6.0097944
   6.0097944   6.0097944   5.8828258   5.8828258   5.8828258   5.8828258
   5.8741845   5.8741845   5.8741845   5.8741845   7.1801544   7.1801544
   7.1801544   7.1801544   7.1663289   7.1663289   7.1663289   7.1663289
   7.1481459   7.1481459   7.1481459   7.1481459   7.0332004   7.0332004
   7.0332004   7.0332004   7.0039819   7.0039819   7.0039819   7.0039819
  34.9910995  34.9910995  34.9910995  34.9910995  35.0214935  35.0214935
  35.0214935  35.0214935  34.9738034  34.9738034  34.9738034  34.9738034
  28.7781216  28.7528004
 TTTTTTTTTTTTTTTTTTTTTTTTTTTTTT MOQGAD      TELAPSE      191.74 TCPU      173.39
 TTTTTTTTTTTTTTTTTTTTTTTTTTTTTT SHELLXN     TELAPSE      215.16 TCPU      194.49
 TTTTTTTTTTTTTTTTTTTTTTTTTTTTTT MONMO3      TELAPSE      217.26 TCPU      196.58
 NUMERICALLY INTEGRATED DENSITY    767.9997847725
 TTTTTTTTTTTTTTTTTTTTTTTTTTTTTT NUMDFT      TELAPSE      218.58 TCPU      197.89
 CYC   5 ETOT(AU) -3.644765678924E+04 DETOT -8.91E-02 tst  4.14E-04 PX  5.19E-02
 TTTTTTTTTTTTTTTTTTTTTTTTTTTTTT DIIS        TELAPSE      218.74 TCPU      198.05
 DIIS TEST: 0.16288E+00 AT SCF   CYCLE   5 - DIIS ACTIVE - HISTORY:     5 CYCLES
 TTTTTTTTTTTTTTTTTTTTTTTTTTTTTT FDIK        TELAPSE      226.36 TCPU      205.49
 INSULATING STATE
 TOP OF VALENCE BANDS -    BAND    384; K    3; EIG -2.0166814E-01 AU
 TOP OF VALENCE BANDS -    BAND    384; K    1; EIG -2.0240668E-01 AU
 BOTTOM OF VIRTUAL BANDS - BAND    385; K    6; EIG -1.1554711E-01 AU
 INDIRECT ENERGY BAND GAP:   2.3435 eV
 BOTTOM OF VIRTUAL BANDS - BAND    385; K    1; EIG -1.1281141E-01 AU
 TTTTTTTTTTTTTTTTTTTTTTTTTTTTTT PDIG        TELAPSE      227.20 TCPU      206.33
 CHARGE NORMALIZATION FACTOR   1.00000000
 TOTAL ATOMIC CHARGES:
   1.1904471   1.1904471   1.1904471   1.1904471   6.1415147   6.1415147
   6.1415147   6.1415147   5.8777213   5.8777213   5.8777213   5.8777213
   6.0543515   6.0543515   6.0543515   6.0543515   5.9631225   5.9631225
   5.9631225   5.9631225   5.8081508   5.8081508   5.8081508   5.8081508
   5.8738249   5.8738249   5.8738249   5.8738249   7.1877208   7.1877208
   7.1877208   7.1877208   7.0848309   7.0848309   7.0848309   7.0848309
   7.2240017   7.2240017   7.2240017   7.2240017   7.0404211   7.0404211
   7.0404211   7.0404211   7.0738158   7.0738158   7.0738158   7.0738158
  35.0323468  35.0323468  35.0323468  35.0323468  35.0315417  35.0315417
  35.0315417  35.0315417  35.0143809  35.0143809  35.0143809  35.0143809
  28.8054002  28.8018299
 TTTTTTTTTTTTTTTTTTTTTTTTTTTTTT MOQGAD      TELAPSE      227.22 TCPU      206.34
 TTTTTTTTTTTTTTTTTTTTTTTTTTTTTT SHELLXN     TELAPSE      250.71 TCPU      227.46
 TTTTTTTTTTTTTTTTTTTTTTTTTTTTTT MONMO3      TELAPSE      252.54 TCPU      229.28
 NUMERICALLY INTEGRATED DENSITY    767.9997842322
 TTTTTTTTTTTTTTTTTTTTTTTTTTTTTT NUMDFT      TELAPSE      253.85 TCPU      230.58
 CYC   6 ETOT(AU) -3.644767734572E+04 DETOT -2.06E-02 tst  5.04E-05 PX  4.09E-02
 TTTTTTTTTTTTTTTTTTTTTTTTTTTTTT DIIS        TELAPSE      254.02 TCPU      230.74
 DIIS TEST: 0.33769E-01 AT SCF   CYCLE   6 - DIIS ACTIVE - HISTORY:     6 CYCLES
 TTTTTTTTTTTTTTTTTTTTTTTTTTTTTT FDIK        TELAPSE      260.48 TCPU      235.94
 INSULATING STATE
[...]
  45 N    1     2.4467     4.6237    5 C    0 0 0

  49 BR   1     1.8813     3.5552   13 C    0 1 0
  49 BR   1     2.8279     5.3439    5 C    0 1 0
  49 BR   1     2.8924     5.4658   26 C    0 1 0
  49 BR   1     2.9800     5.6314   42 N    0 0 0
  49 BR   1     3.0359     5.7371   37 N    0 0 0
  49 BR   1     3.0990     5.8563    9 C    0 1 0

  53 BR   1     1.8817     3.5558   21 C    0 0 0
  53 BR   1     2.6722     5.0497   45 N    0 0 0
  53 BR   1     2.8437     5.3739   61 ZN   1 0 0
  53 BR   1     2.8882     5.4579   30 N    0 0 1
  53 BR   1     2.9003     5.4807    5 C    0 0 0
  53 BR   1     2.9559     5.5858   34 N    0 0 1

  57 BR   1     1.8706     3.5349   26 C    0 0 0
  57 BR   1     2.7791     5.2518   17 C    0 0 0
  57 BR   1     2.8819     5.4460    1 H    0 0 0
  57 BR   1     2.9090     5.4973   13 C    0 0 0
  57 BR   1     3.0999     5.8580   50 BR  -1-1-1
  57 BR   1     3.3337     6.2999   58 BR   0-1-1

  61 ZN   4     2.3421     4.4258   29 N   -1-1 0   30 N   -1 0 1   31 N    0 0 1
                                    32 N   -1 0 0
  61 ZN   4     2.8437     5.3739   53 BR  -1 0 0   54 BR   0 0 1   55 BR  -1-1 0
                                    56 BR  -1 0 1
  61 ZN   4     3.1148     5.8861   33 N   -1-1 0   34 N   -1 0 1   35 N    0 0 1
                                    36 N   -1 0 0
  61 ZN   4     3.4920     6.5988    9 C   -1 0 0   10 C    0 0 1   11 C   -1-1 0
                                    12 C   -1 0 1
  61 ZN   4     3.7158     7.0218   21 C   -1 0 0   22 C    0 0 1   23 C   -1-1 0
                                    24 C   -1 0 1
  61 ZN   4     3.9553     7.4744    5 C   -1 0 0    6 C    0 0 1    7 C   -1-1 0
                                     8 C   -1 0 1

  62 ZN   4     2.1742     4.1087   37 N    0 0 0   38 N    0 0 0   39 N    1 1 0
                                    40 N    1 1 0
  62 ZN   4     2.8150     5.3196   41 N    0 0 0   42 N    0 0 0   43 N    1 1 0
                                    44 N    1 1 0
  62 ZN   4     3.4287     6.4793   49 BR   0 0 0   50 BR   0 0 0   51 BR   1 1 0
                                    52 BR   1 1 0
  62 ZN   4     3.4532     6.5256    9 C    0 1 0   10 C    1 0 0   11 C    0 0-1
                                    12 C    1 1 1
  62 ZN   4     4.0744     7.6994   33 N    0 0 0   34 N    0 0 0   35 N    1 1 0
                                    36 N    1 1 0
  62 ZN   4     4.2617     8.0535    5 C    0 1 0    6 C    1 0 0    7 C    0 0-1
                                     8 C    1 1 1


 FINAL OPTIMIZED GEOMETRY - DIMENSIONALITY OF THE SYSTEM      3
 (NON PERIODIC DIRECTION: LATTICE PARAMETER FORMALLY SET TO 500)
 *******************************************************************************
 LATTICE PARAMETERS (ANGSTROMS AND DEGREES) - BOHR = 0.5291772083 ANGSTROM
 PRIMITIVE CELL - CENTRING CODE 6/0 VOLUME=   913.118350 - DENSITY  2.995 g/cm^3
         A              B              C           ALPHA      BETA       GAMMA 
    10.69890275    10.69890275    10.69890275   115.741173 115.741173  97.549750
 *******************************************************************************
 ATOMS IN THE ASYMMETRIC UNIT   17 - ATOMS IN THE UNIT CELL:   62
     ATOM                 X/A                 Y/B                 Z/C    
 *******************************************************************************
      1 T   1 H    -1.464082341530E-01 -2.246737881587E-01 -1.421733282661E-01
      2 F   1 H    -8.250045989262E-02 -4.234905886886E-03  1.421733282661E-01
      3 F   1 H     2.246737881587E-01  8.250045989262E-02  7.826555400573E-02
      4 F   1 H     4.234905886886E-03  1.464082341530E-01 -7.826555400573E-02
      5 T   6 C     1.877259220583E-01 -3.227514901889E-01  7.786064038217E-02
      6 F   6 C    -4.006121305710E-01  1.098652816761E-01 -7.786064038217E-02
      7 F   6 C     3.227514901889E-01  4.006121305710E-01 -4.895225877528E-01
      8 F   6 C    -1.098652816761E-01 -1.877259220583E-01  4.895225877528E-01
      9 T   6 C     2.974008633706E-01 -3.705933127181E-01  1.694718641540E-01
     10 F   6 C     4.599348231280E-01  1.279289992167E-01 -1.694718641540E-01
     11 F   6 C     3.705933127181E-01 -4.599348231280E-01 -3.320058239113E-01
     12 F   6 C    -1.279289992167E-01 -2.974008633706E-01  3.320058239113E-01
     13 T   6 C     8.420651425260E-02 -4.175245674990E-01 -9.658225615595E-02
     14 F   6 C    -3.209423113431E-01  1.807887704085E-01  9.658225615595E-02
     15 F   6 C     4.175245674990E-01  3.209423113431E-01 -4.982689182484E-01
     16 F   6 C    -1.807887704085E-01 -8.420651425260E-02  4.982689182484E-01
     17 T   6 C    -5.352708850124E-02 -2.545439350843E-01 -8.350834703491E-02
     18 F   6 C    -1.710355880494E-01  2.998125853366E-02  8.350834703491E-02
     19 F   6 C     2.545439350843E-01  1.710355880494E-01  2.010168465831E-01
     20 F   6 C    -2.998125853366E-02  5.352708850124E-02 -2.010168465831E-01
     21 T   6 C     1.593902486422E-01 -1.943818747064E-01  1.558308653258E-01
     22 F   6 C    -3.502127400321E-01  3.559383316447E-03 -1.558308653258E-01
     23 F   6 C     1.943818747064E-01  3.502127400321E-01  3.537721233486E-01
     24 F   6 C    -3.559383316447E-03 -1.593902486422E-01 -3.537721233486E-01
     25 T   6 C    -2.106521815369E-01  1.355592164581E-01  1.756849134542E-01
     26 F   6 C    -4.012569699613E-02 -3.863370949911E-01 -1.756849134542E-01
     27 F   6 C    -1.355592164581E-01  4.012569699613E-02 -3.462113979950E-01
     28 F   6 C     3.863370949911E-01  2.106521815369E-01  3.462113979950E-01
     29 T   7 N     3.024052666644E-01 -3.725808403260E-01  2.980921448898E-01
     30 F   7 N     3.293270147842E-01  4.313121774523E-03 -2.980921448898E-01
     31 F   7 N     3.725808403260E-01 -3.293270147842E-01 -3.250138930097E-01
     32 F   7 N    -4.313121774523E-03 -3.024052666644E-01  3.250138930097E-01
     33 T   7 N     4.005169211287E-01 -4.383363920675E-01  3.441070419705E-01
     34 F   7 N     2.175565659620E-01  5.640987915819E-02 -3.441070419705E-01
     35 F   7 N     4.383363920675E-01 -2.175565659620E-01 -1.611466868039E-01
     36 F   7 N    -5.640987915819E-02 -4.005169211287E-01  1.611466868039E-01
     37 T   7 N     3.931507913528E-01 -4.333177223657E-01  1.370426186327E-01
     38 F   7 N     4.296396590015E-01  2.561081727201E-01 -1.370426186327E-01
     39 F   7 N     4.333177223657E-01 -4.296396590015E-01 -1.735314862815E-01
     40 F   7 N    -2.561081727201E-01 -3.931507913528E-01  1.735314862815E-01
     41 T   7 N     4.552302626203E-01 -4.728760417055E-01  2.496822210746E-01
     42 F   7 N     2.774417372199E-01  2.055480415458E-01 -2.496822210746E-01
     43 F   7 N     4.728760417055E-01 -2.774417372199E-01 -7.189369567418E-02
     44 F   7 N    -2.055480415458E-01 -4.552302626203E-01  7.189369567418E-02
     45 T   7 N     4.788586161129E-02 -1.591300932623E-01  8.001911529940E-02
     46 F   7 N    -2.391492085617E-01 -3.213325368811E-02 -8.001911529940E-02
     47 F   7 N     1.591300932623E-01  2.391492085617E-01  2.070159548735E-01
     48 F   7 N     3.213325368811E-02 -4.788586161129E-02 -2.070159548735E-01
     49 T  35 BR    1.199009494285E-01  4.162927911936E-01 -2.139455017650E-01
     50 F  35 BR   -3.697617070414E-01  3.338464511935E-01  2.139455017650E-01
     51 F  35 BR   -4.162927911936E-01  3.697617070414E-01 -2.963918417651E-01
     52 F  35 BR   -3.338464511935E-01 -1.199009494285E-01  2.963918417651E-01
     53 T  35 BR    2.739726812098E-01 -5.637326371217E-02  3.877871599145E-01
     54 F  35 BR   -4.441604236267E-01 -1.138144787048E-01 -3.877871599145E-01
     55 F  35 BR    5.637326371217E-02  4.441604236267E-01  3.303459449219E-01
     56 F  35 BR    1.138144787048E-01 -2.739726812098E-01 -3.303459449219E-01
     57 T  35 BR   -1.898620469005E-01  4.933001322161E-01 -4.032521409815E-01
     58 F  35 BR   -1.034477268024E-01  2.133900940810E-01  4.032521409815E-01
     59 F  35 BR   -4.933001322161E-01  1.034477268024E-01  3.168378208834E-01
     60 F  35 BR   -2.133900940810E-01  1.898620469005E-01 -3.168378208834E-01
     61 T  30 ZN    2.500000000000E-01 -2.500000000000E-01 -5.000000000000E-01
     62 T  30 ZN   -5.000000000000E-01  5.000000000000E-01  2.752283423307E-19

 TRANSFORMATION MATRIX PRIMITIVE-CRYSTALLOGRAPHIC CELL
  0.0000  1.0000  1.0000  1.0000  0.0000  1.0000  1.0000  1.0000  0.0000

 *******************************************************************************
 CRYSTALLOGRAPHIC CELL (VOLUME=       1826.23670007)
         A              B              C           ALPHA      BETA       GAMMA 
    11.38006740    11.38006740    14.10156772    90.000000  90.000000  90.000000

 COORDINATES IN THE CRYSTALLOGRAPHIC CELL
     ATOM                 X/A                 Y/B                 Z/C    
 *******************************************************************************
      1 T   1 H    -1.102194411359E-01 -3.195388713017E-02 -1.144543470228E-01
      2 F   1 H     1.102194411359E-01  3.195388713017E-02 -1.144543470228E-01
      3 F   1 H    -3.195388713017E-02  1.102194411359E-01  1.144543470228E-01
      4 F   1 H     3.195388713017E-02 -1.102194411359E-01  1.144543470228E-01
      5 T   6 C    -2.163083859325E-01  2.941690263147E-01 -1.064431042564E-01
      6 F   6 C     2.163083859325E-01 -2.941690263147E-01 -1.064431042564E-01
      7 F   6 C     2.941690263147E-01  2.163083859325E-01  1.064431042564E-01
      8 F   6 C    -2.941690263147E-01 -2.163083859325E-01  1.064431042564E-01
      9 T   6 C    -2.492611559674E-01  4.187330201213E-01 -1.213321567507E-01
     10 F   6 C     2.492611559674E-01 -4.187330201213E-01 -1.213321567507E-01
     11 F   6 C     4.187330201213E-01  2.492611559674E-01  1.213321567507E-01
     12 F   6 C    -4.187330201213E-01 -2.492611559674E-01  1.213321567507E-01
     13 T   6 C    -2.991566689538E-01  2.025744127978E-01 -1.183678985452E-01
     14 F   6 C     2.991566689538E-01 -2.025744127978E-01 -1.183678985452E-01
     15 F   6 C     2.025744127978E-01  2.991566689538E-01  1.183678985452E-01
     16 F   6 C    -2.025744127978E-01 -2.991566689538E-01  1.183678985452E-01
     17 T   6 C    -1.422625968090E-01  5.875424977407E-02 -1.122813382753E-01
     18 F   6 C     1.422625968090E-01 -5.875424977407E-02 -1.122813382753E-01
     19 F   6 C     5.875424977407E-02  1.422625968090E-01  1.122813382753E-01
     20 F   6 C    -5.875424977407E-02 -1.422625968090E-01  1.122813382753E-01
     21 T   6 C    -9.897062901141E-02  2.548014943372E-01 -9.541124569496E-02
     22 F   6 C     9.897062901141E-02 -2.548014943372E-01 -9.541124569496E-02
     23 F   6 C     2.548014943372E-01  9.897062901141E-02  9.541124569496E-02
     24 F   6 C    -2.548014943372E-01 -9.897062901141E-02  9.541124569496E-02
     25 T   6 C     2.609481557246E-01 -8.526324227039E-02 -1.253889392665E-01
     26 F   6 C    -2.609481557246E-01  8.526324227039E-02 -1.253889392665E-01
     27 F   6 C    -8.526324227039E-02 -2.609481557246E-01  1.253889392665E-01
     28 F   6 C     8.526324227039E-02  2.609481557246E-01  1.253889392665E-01
     29 T   7 N     3.115530189497E-01 -1.346087405992E-02  3.158661407243E-01
     30 F   7 N    -3.115530189497E-01  1.346087405992E-02  3.158661407243E-01
     31 F   7 N    -1.346087405992E-02 -3.115530189497E-01 -3.158661407243E-01
     32 F   7 N     1.346087405992E-02  3.115530189497E-01 -3.158661407243E-01
     33 T   7 N     2.526268643872E-01  9.148017758331E-02  3.090367435454E-01
     34 F   7 N    -2.526268643872E-01 -9.148017758331E-02  3.090367435454E-01
     35 F   7 N     9.148017758331E-02 -2.526268643872E-01 -3.090367435454E-01
     36 F   7 N    -9.148017758331E-02  2.526268643872E-01 -3.090367435454E-01
     37 T   7 N     1.552870524571E-01 -1.824443382438E-02  4.113952251772E-01
     38 F   7 N    -1.552870524571E-01  1.824443382438E-02  4.113952251772E-01
     39 F   7 N    -1.824443382438E-02 -1.552870524571E-01 -4.113952251772E-01
     40 F   7 N     1.824443382438E-02  1.552870524571E-01 -4.113952251772E-01
     41 T   7 N     1.607879583744E-01  8.889426270018E-02  3.663359999201E-01
     42 F   7 N    -1.607879583744E-01 -8.889426270018E-02  3.663359999201E-01
     43 F   7 N     8.889426270018E-02 -1.607879583744E-01 -3.663359999201E-01
     44 F   7 N    -8.889426270018E-02  1.607879583744E-01 -3.663359999201E-01
     45 T   7 N    -6.349841978707E-02  1.435175350865E-01 -9.563167347518E-02
     46 F   7 N     6.349841978707E-02 -1.435175350865E-01 -9.563167347518E-02
     47 F   7 N     1.435175350865E-01  6.349841978707E-02  9.563167347518E-02
     48 F   7 N    -1.435175350865E-01 -6.349841978707E-02  9.563167347518E-02
     49 T  35 BR    4.122317000008E-02 -2.551686717651E-01  3.750696211935E-01
     50 F  35 BR   -4.122317000008E-02  2.551686717651E-01  3.750696211935E-01
     51 F  35 BR   -2.551686717651E-01 -4.122317000008E-02 -3.750696211935E-01
     52 F  35 BR    2.551686717651E-01  4.122317000008E-02 -3.750696211935E-01
     53 T  35 BR    2.872060749630E-02  3.590665524182E-01 -8.509387120847E-02
     54 F  35 BR   -2.872060749630E-02 -3.590665524182E-01 -8.509387120847E-02
     55 F  35 BR    3.590665524182E-01 -2.872060749630E-02  8.509387120847E-02
     56 F  35 BR   -3.590665524182E-01  2.872060749630E-02  8.509387120847E-02
     57 T  35 BR   -3.600449809324E-01 -4.320716004908E-02 -1.466548868515E-01
     58 F  35 BR    3.600449809324E-01  4.320716004908E-02 -1.466548868515E-01
     59 F  35 BR   -4.320716004908E-02  3.600449809324E-01  1.466548868515E-01
     60 F  35 BR    4.320716004908E-02 -3.600449809324E-01  1.466548868515E-01
     61 T  30 ZN    5.000000000000E-01  4.296403639040E-17  2.500000000000E-01
     62 T  30 ZN   -1.848892746612E-32  2.752283423307E-19  5.000000000000E-01

 T = ATOM BELONGING TO THE ASYMMETRIC UNIT
 INFORMATION **** fort.34 **** GEOMETRY OUTPUT FILE

 DIRECT LATTICE VECTORS CARTESIAN COMPONENTS (ANGSTROM)
          X                    Y                    Z
  -0.569003370234E+01   0.569003370234E+01   0.705078385895E+01
   0.569003370234E+01  -0.569003370234E+01   0.705078385895E+01
   0.569003370234E+01   0.569003370234E+01  -0.705078385895E+01


 CARTESIAN COORDINATES - PRIMITIVE CELL
 *******************************************************************************
 *      ATOM          X(ANGSTROM)         Y(ANGSTROM)         Z(ANGSTROM)
 *******************************************************************************
    1     1 H    -1.254304669432E+00 -3.636373893826E-01 -1.613985725149E+00
    2     1 H     1.254304669432E+00  3.636373893826E-01 -1.613985725149E+00
    3     1 H    -3.636373893826E-01  1.254304669432E+00  1.613985725149E+00
    4     1 H     3.636373893826E-01 -1.254304669432E+00  1.613985725149E+00
    5     6 C    -2.461604012107E+00  3.347663347827E+00 -1.501014642774E+00
    6     6 C     2.461604012107E+00 -3.347663347827E+00 -1.501014642774E+00
    7     6 C     3.347663347827E+00  2.461604012107E+00  1.501014642774E+00
    8     6 C    -3.347663347827E+00 -2.461604012107E+00  1.501014642774E+00
    9     6 C    -2.836608756275E+00  4.765209993542E+00 -1.710973624778E+00
   10     6 C     2.836608756275E+00 -4.765209993542E+00 -1.710973624778E+00
   11     6 C     4.765209993542E+00  2.836608756275E+00  1.710973624778E+00
   12     6 C    -4.765209993542E+00 -2.836608756275E+00  1.710973624778E+00
   13     6 C    -3.404423057251E+00  2.305310472101E+00 -1.669172936961E+00
   14     6 C     3.404423057251E+00 -2.305310472101E+00 -1.669172936961E+00
   15     6 C     2.305310472101E+00  3.404423057251E+00  1.669172936961E+00
   16     6 C    -2.305310472101E+00 -3.404423057251E+00  1.669172936961E+00
   17     6 C    -1.618957940850E+00  6.686273227398E-01 -1.583342895145E+00
   18     6 C     1.618957940850E+00 -6.686273227398E-01 -1.583342895145E+00
   19     6 C     6.686273227398E-01  1.618957940850E+00  1.583342895145E+00
   20     6 C    -6.686273227398E-01 -1.618957940850E+00  1.583342895145E+00
   21     6 C    -1.126292429233E+00  2.899658180368E+00 -1.345448142216E+00
   22     6 C     1.126292429233E+00 -2.899658180368E+00 -1.345448142216E+00
   23     6 C     2.899658180368E+00  1.126292429233E+00  1.345448142216E+00
   24     6 C    -2.899658180368E+00 -1.126292429233E+00  1.345448142216E+00
   25     6 C     2.969607601271E+00 -9.703014441778E-01 -1.768180618142E+00
   26     6 C    -2.969607601271E+00  9.703014441778E-01 -1.768180618142E+00
   27     6 C    -9.703014441778E-01 -2.969607601271E+00  1.768180618142E+00
   28     6 C     9.703014441778E-01  2.969607601271E+00  1.768180618142E+00
   29     7 N     3.545494355777E+00 -1.531856541276E-01  4.454207773213E+00
   30     7 N    -3.545494355777E+00  1.531856541276E-01  4.454207773213E+00
   31     7 N    -1.531856541276E-01 -3.545494355777E+00 -4.454207773213E+00
   32     7 N     1.531856541276E-01  3.545494355777E+00 -4.454207773213E+00
   33     7 N     2.874910744957E+00  1.041050587089E+00  4.357902566423E+00
   34     7 N    -2.874910744957E+00 -1.041050587089E+00  4.357902566423E+00
   35     7 N     1.041050587089E+00 -2.874910744957E+00 -4.357902566423E+00
   36     7 N    -1.041050587089E+00  2.874910744957E+00 -4.357902566423E+00
   37     7 N     1.767177124035E+00 -2.076228866815E-01  5.801317626655E+00
   38     7 N    -1.767177124035E+00  2.076228866815E-01  5.801317626655E+00
   39     7 N    -2.076228866815E-01 -1.767177124035E+00 -5.801317626655E+00
   40     7 N     2.076228866815E-01  1.767177124035E+00 -5.801317626655E+00
   41     7 N     1.829777804160E+00  1.011622701417E+00  5.165911910377E+00
   42     7 N    -1.829777804160E+00 -1.011622701417E+00  5.165911910377E+00
   43     7 N     1.011622701417E+00 -1.829777804160E+00 -5.165911910377E+00
   44     7 N    -1.011622701417E+00  1.829777804160E+00 -5.165911910377E+00
   45     7 N    -7.226162972670E-01  1.633239223036E+00 -1.348556519486E+00
   46     7 N     7.226162972670E-01 -1.633239223036E+00 -1.348556519486E+00
   47     7 N     1.633239223036E+00  7.226162972670E-01  1.348556519486E+00
   48     7 N    -1.633239223036E+00 -7.226162972670E-01  1.348556519486E+00
   49    35 BR    4.691224532351E-01 -2.903836684247E+00  5.289069662186E+00
   50    35 BR   -4.691224532351E-01  2.903836684247E+00  5.289069662186E+00
   51    35 BR   -2.903836684247E+00 -4.691224532351E-01 -5.289069662186E+00
   52    35 BR    2.903836684247E+00  4.691224532351E-01 -5.289069662186E+00
   53    35 BR    3.268424492110E-01  4.086201569283E+00 -1.199956987224E+00
   54    35 BR   -3.268424492110E-01 -4.086201569283E+00 -1.199956987224E+00
   55    35 BR    4.086201569283E+00 -3.268424492110E-01  1.199956987224E+00
   56    35 BR   -4.086201569283E+00  3.268424492110E-01  1.199956987224E+00
   57    35 BR   -4.097336151725E+00 -4.917003937229E-01 -2.068063818096E+00
   58    35 BR    4.097336151725E+00  4.917003937229E-01 -2.068063818096E+00
   59    35 BR   -4.917003937230E-01  4.097336151725E+00  2.068063818096E+00
   60    35 BR    4.917003937229E-01 -4.097336151725E+00  2.068063818096E+00
   61    30 ZN    5.690033702336E+00  4.889336300995E-16 -1.057617578842E+01
   62    30 ZN   -2.104052408045E-31  3.132117087399E-18  7.050783858948E+00

 ****    4 SYMMOPS - TRANSLATORS IN FRACTIONAL UNITS
 **** MATRICES AND TRANSLATORS IN THE CRYSTALLOGRAPHIC REFERENCE FRAME
   V INV                    ROTATION MATRICES                   TRANSLATORS
   1   1  1.00  0.00  0.00  0.00  1.00  0.00  0.00  0.00  1.00  0.00  0.00  0.00
   2   2  0.00  1.00 -1.00  1.00 -0.00 -1.00  0.00 -0.00 -1.00  0.00  0.00  0.00
   3   4  0.00 -1.00  0.00  0.00 -1.00  1.00  1.00 -1.00 -0.00  0.00  0.00  0.00
   4   3 -1.00  0.00  1.00 -1.00  0.00 -0.00 -1.00  1.00  0.00  0.00  0.00  0.00
 TTTTTTTTTTTTTTTTTTTTTTTTTTTTTT END         TELAPSE    13575.18 TCPU    12660.70
 EEEEEEEEEE TERMINATION  DATE 06 03 2024 TIME 07:08:16.1
NODE    0 CPU TIME =     12660.697
    TOTAL CPU TIME =    817901.548
