Loading crystal17/1.0.2/intel/19.0
  Loading requirement: intel/19.0 ompi/4.0.1/intel/19.0
 PROCESS            3  OF           24  WORKING
 PROCESS            7  OF           24  WORKING
 PROCESS            9  OF           24  WORKING
 PROCESS           15  OF           24  WORKING
 PROCESS           17  OF           24  WORKING
 PROCESS            0  OF           24  WORKING
 PROCESS            1  OF           24  WORKING
 PROCESS            4  OF           24  WORKING
 PROCESS           16  OF           24  WORKING
 PROCESS           21  OF           24  WORKING
 PROCESS            2  OF           24  WORKING
 PROCESS           23  OF           24  WORKING
 PROCESS            6  OF           24  WORKING
 PROCESS            8  OF           24  WORKING
 PROCESS           10  OF           24  WORKING
 PROCESS           11  OF           24  WORKING
 PROCESS           12  OF           24  WORKING
 PROCESS           13  OF           24  WORKING
 PROCESS           14  OF           24  WORKING
 PROCESS           18  OF           24  WORKING
 PROCESS           20  OF           24  WORKING
 PROCESS           22  OF           24  WORKING
 PROCESS            5  OF           24  WORKING

         
 *******************************************************************************
 *                                                                             *
 *                               CRYSTAL17                                     *
 *                      public : 1.0.2 - March 1st, 2018                       *
 *                       HTTP://WWW.CRYSTAL.UNITO.IT                           *
 *                                                                             *
 *                              MAIN AUTHORS                                   *
 *                                                                             *
 *  R. DOVESI(1,11), V.R. SAUNDERS(2), C. ROETTI(1,11), R. ORLANDO(1,11),      *
 *  C.M. ZICOVICH-WILSON(1,3), F. PASCALE(4), B. CIVALLERI(1,11),              *
 *  K. DOLL(5), N.M. HARRISON(2,6), I.J. BUSH(7), Ph. D'ARCO(8),               *
 *  M. LLUNELL(9), M. CAUSA'(10), Y. NOEL(8), L. MASCHIO(1,11), A. ERBA(1,11)  *
 *  M. RE'RAT(14), S. CASASSA(1,11)                                            *
 *                                                                             *
 *        CONTRIBUTIONS TO THE CODE HAVE ALSO BEEN GIVEN BY                    *
 *                                                                             *
 *  M. FERRABONE(1,11), M. DE LA PIERRE(1,11), M. FERRERO(1,11),               *
 *  J. BAIMA(1,11), E. ALBANESE(1,11), M.F. PEINTINGER(12), R. BAST(13),       *
 *  B. KIRTMAN(15), V. LACIVITA(1,11), R. DEMICHELIS(1,16)                     *
 *  G. BRANDEBURG(17), S. SALUSTRO(1,11), G. SANSONE(1,11)                     *
 *  M.T. RUGGIERO(18)                                                          *
 *                                                                             *
 * (1) THEORETICAL CHEMISTRY GROUP - UNIVERSITA' DI TORINO - TORINO (ITALY)    *
 * (2) COMPUTATIONAL SCIENCE & ENGINEERING DEPARTMENT - STFC DARESBURY (UK)    *
 * (3) UNIVERSIDAD AUTONOMA DEL ESTADO DE MORELOS - CUERNAVACA (MEXICO)        *
 * (4) UNIVERSITE' DE LORRAINE - NANCY (FRANCE)                                *
 * (5) UNIVERSITAET STUTTGART- STUTTGART (GERMANY)                             *
 * (6) IMPERIAL COLLEGE - LONDON (UK)                                          *
 * (7) OXFORD E-RESEARCH CENTRE - OXFORD (UK)                                  *
 * (8) UPMC - SORBONNE UNIVERSITES - PARIS (FRANCE)                            *
 * (9) UNIVERSIDAD DE BARCELONA - BARCELONA (SPAIN)                            *
 *(10) UNIVERSITA' DI NAPOLI "FEDERICO II" - NAPOLI (ITALY)                    *
 *(11) NIS - NANOSTRUCTURED INTERFACES AND SURFACES - TORINO (ITALY)           *
 *(12) MPI FUER CHEMISCHE ENERGIEKONVERSION - MUELHEIM AN DER RUHR (GERMANY)   *
 *(13) UNIVERSITY OF TROMSO - TROMSO (NORWAY)                                  *
 *(14) UNIVERSITE' DE PAU ET DES PAYS DE L'ADOUR - PAU (FRANCE)                *
 *(15) UNIVERSITY OF CALIFORNIA SANTA BARBARA - SANTA BARBARA (USA)            *
 *(16) CURTIN UNIVERSITY - PERTH (AUSTRALIA)                                   *
 *(17) UNIVERSITY COLLEGE LONDON - LONDON (UK)                                 *
 *(18) CAMBRIDGE UNIVERSITY - CAMBRIDGE (UK)                                   *
 *                                                                             *
 *******************************************************************************
 EEEEEEEEEE STARTING  DATE 20 11 2023 TIME 11:07:45.6
 C:\Users\wilso\AppData\Local\Temp\tmp_p\newconn.mol                             

 CRYSTAL CALCULATION
 (INPUT ACCORDING TO THE INTERNATIONAL TABLES FOR X-RAY CRYSTALLOGRAPHY)
 CRYSTAL FAMILY                       :  TETRAGONAL  
 CRYSTAL CLASS  (GROTH - 1921)        :  TETRAGONAL DISPHENOIDAL              

 SPACE GROUP (NONCENTROSYMMETRIC)     :  I -4            

 LATTICE PARAMETERS  (ANGSTROMS AND DEGREES) - CONVENTIONAL CELL
        A           B           C        ALPHA        BETA       GAMMA
    10.15800    10.15800    13.29400    90.00000    90.00000    90.00000


 NUMBER OF IRREDUCIBLE ATOMS IN THE CONVENTIONAL CELL:  124

 INPUT COORDINATES

 ATOM AT. N.              COORDINATES
   1   1     5.576100000000E-01  7.373700000000E-01  1.366700000000E-01
   2   1     4.423900000000E-01  2.626300000000E-01  1.366700000000E-01
   3   1     7.373700000000E-01  4.423900000000E-01  8.633300000000E-01
   4   1     2.626300000000E-01  5.576100000000E-01  8.633300000000E-01
   5   1     5.761000000000E-02  2.373700000000E-01  6.366700000000E-01
   6   1     9.423900000000E-01  7.626300000000E-01  6.366700000000E-01
   7   1     2.373700000000E-01  9.423900000000E-01  3.633300000000E-01
   8   1     7.626300000000E-01  5.761000000000E-02  3.633300000000E-01
   9  35     9.759200000000E-01  6.751900000000E-01  9.083000000000E-02
  10  35     2.408000000000E-02  3.248100000000E-01  9.083000000000E-02
  11  35     6.751900000000E-01  2.408000000000E-02  9.091700000000E-01
  12  35     3.248100000000E-01  9.759200000000E-01  9.091700000000E-01
  13  35     4.759200000000E-01  1.751900000000E-01  5.908300000000E-01
  14  35     5.240800000000E-01  8.248100000000E-01  5.908300000000E-01
  15  35     1.751900000000E-01  5.240800000000E-01  4.091700000000E-01
  16  35     8.248100000000E-01  4.759200000000E-01  4.091700000000E-01
  17   1     6.058200000000E-01  9.805800000000E-01  1.369900000000E-01
  18   1     3.941800000000E-01  1.942000000000E-02  1.369900000000E-01
  19   1     9.805800000000E-01  3.941800000000E-01  8.630100000000E-01
  20   1     1.942000000000E-02  6.058200000000E-01  8.630100000000E-01
  21   1     1.058200000000E-01  4.805800000000E-01  6.369900000000E-01
  22   1     8.941800000000E-01  5.194200000000E-01  6.369900000000E-01
  23   1     4.805800000000E-01  8.941800000000E-01  3.630100000000E-01
  24   1     5.194200000000E-01  1.058200000000E-01  3.630100000000E-01
  25   1     8.420800000000E-01  5.709000000000E-02  1.240200000000E-01
  26   1     1.579200000000E-01  9.429100000000E-01  1.240200000000E-01
  27   1     5.709000000000E-02  1.579200000000E-01  8.759800000000E-01
  28   1     9.429100000000E-01  8.420800000000E-01  8.759800000000E-01
  29   1     3.420800000000E-01  5.570900000000E-01  6.240200000000E-01
  30   1     6.579200000000E-01  4.429100000000E-01  6.240200000000E-01
  31   1     5.570900000000E-01  6.579200000000E-01  3.759800000000E-01
  32   1     4.429100000000E-01  3.420800000000E-01  3.759800000000E-01
  33   6     2.646500000000E-01  1.859800000000E-01  6.165500000000E-01
  34   6     7.353500000000E-01  8.140200000000E-01  6.165500000000E-01
  35   6     1.859800000000E-01  7.353500000000E-01  3.834500000000E-01
  36   6     8.140200000000E-01  2.646500000000E-01  3.834500000000E-01
  37   6     7.646500000000E-01  6.859800000000E-01  1.165500000000E-01
  38   6     2.353500000000E-01  3.140200000000E-01  1.165500000000E-01
  39   6     6.859800000000E-01  2.353500000000E-01  8.834500000000E-01
  40   6     3.140200000000E-01  7.646500000000E-01  8.834500000000E-01
  41   6     2.514000000000E-01  4.317000000000E-02  6.230000000000E-01
  42   6     7.486000000000E-01  9.568300000000E-01  6.230000000000E-01
  43   6     4.317000000000E-02  7.486000000000E-01  3.770000000000E-01
  44   6     9.568300000000E-01  2.514000000000E-01  3.770000000000E-01
  45   6     7.514000000000E-01  5.431700000000E-01  1.230000000000E-01
  46   6     2.486000000000E-01  4.568300000000E-01  1.230000000000E-01
  47   6     5.431700000000E-01  2.486000000000E-01  8.770000000000E-01
  48   6     4.568300000000E-01  7.514000000000E-01  8.770000000000E-01
  49   6     6.583700000000E-01  7.736700000000E-01  1.273400000000E-01
  50   6     3.416300000000E-01  2.263300000000E-01  1.273400000000E-01
  51   6     7.736700000000E-01  3.416300000000E-01  8.726600000000E-01
  52   6     2.263300000000E-01  6.583700000000E-01  8.726600000000E-01
  53   6     1.583700000000E-01  2.736700000000E-01  6.273400000000E-01
  54   6     8.416300000000E-01  7.263300000000E-01  6.273400000000E-01
  55   6     2.736700000000E-01  8.416300000000E-01  3.726600000000E-01
  56   6     7.263300000000E-01  1.583700000000E-01  3.726600000000E-01
  57   6     8.156900000000E-01  9.525900000000E-01  1.204300000000E-01
  58   6     1.843100000000E-01  4.741000000000E-02  1.204300000000E-01
  59   6     9.525900000000E-01  1.843100000000E-01  8.795700000000E-01
  60   6     4.741000000000E-02  8.156900000000E-01  8.795700000000E-01
  61   6     3.156900000000E-01  4.525900000000E-01  6.204300000000E-01
  62   6     6.843100000000E-01  5.474100000000E-01  6.204300000000E-01
  63   6     4.525900000000E-01  6.843100000000E-01  3.795700000000E-01
  64   6     5.474100000000E-01  3.156900000000E-01  3.795700000000E-01
  65   6     3.914300000000E-01  2.396500000000E-01  6.044300000000E-01
  66   6     6.085700000000E-01  7.603500000000E-01  6.044300000000E-01
  67   6     2.396500000000E-01  6.085700000000E-01  3.955700000000E-01
  68   6     7.603500000000E-01  3.914300000000E-01  3.955700000000E-01
  69   6     8.914300000000E-01  7.396500000000E-01  1.044300000000E-01
  70   6     1.085700000000E-01  2.603500000000E-01  1.044300000000E-01
  71   6     7.396500000000E-01  1.085700000000E-01  8.955700000000E-01
  72   6     2.603500000000E-01  8.914300000000E-01  8.955700000000E-01
  73   6     3.150000000000E-01  9.141000000000E-02  1.282200000000E-01
  74   6     6.850000000000E-01  9.085900000000E-01  1.282200000000E-01
  75   6     9.141000000000E-02  6.850000000000E-01  8.717800000000E-01
  76   6     9.085900000000E-01  3.150000000000E-01  8.717800000000E-01
  77   6     8.150000000000E-01  5.914100000000E-01  6.282200000000E-01
  78   6     1.850000000000E-01  4.085900000000E-01  6.282200000000E-01
  79   6     5.914100000000E-01  1.850000000000E-01  3.717800000000E-01
  80   6     4.085900000000E-01  8.150000000000E-01  3.717800000000E-01
  81   7     8.407700000000E-01  4.628300000000E-01  1.672900000000E-01
  82   7     1.592300000000E-01  5.371700000000E-01  1.672900000000E-01
  83   7     4.628300000000E-01  1.592300000000E-01  8.327100000000E-01
  84   7     5.371700000000E-01  8.407700000000E-01  8.327100000000E-01
  85   7     3.407700000000E-01  9.628300000000E-01  6.672900000000E-01
  86   7     6.592300000000E-01  3.717000000000E-02  6.672900000000E-01
  87   7     9.628300000000E-01  6.592300000000E-01  3.327100000000E-01
  88   7     3.717000000000E-02  3.407700000000E-01  3.327100000000E-01
  89   7     2.940400000000E-01  8.358500000000E-01  6.597700000000E-01
  90   7     7.059600000000E-01  1.641500000000E-01  6.597700000000E-01
  91   7     8.358500000000E-01  7.059600000000E-01  3.402300000000E-01
  92   7     1.641500000000E-01  2.940400000000E-01  3.402300000000E-01
  93   7     7.940400000000E-01  3.358500000000E-01  1.597700000000E-01
  94   7     2.059600000000E-01  6.641500000000E-01  1.597700000000E-01
  95   7     3.358500000000E-01  2.059600000000E-01  8.402300000000E-01
  96   7     6.641500000000E-01  7.940400000000E-01  8.402300000000E-01
  97   7     1.518600000000E-01  9.677900000000E-01  5.884000000000E-01
  98   7     8.481400000000E-01  3.221000000000E-02  5.884000000000E-01
  99   7     9.677900000000E-01  8.481400000000E-01  4.116000000000E-01
 100   7     3.221000000000E-02  1.518600000000E-01  4.116000000000E-01
 101   7     6.518600000000E-01  4.677900000000E-01  8.840000000000E-02
 102   7     3.481400000000E-01  5.322100000000E-01  8.840000000000E-02
 103   7     4.677900000000E-01  3.481400000000E-01  9.116000000000E-01
 104   7     5.322100000000E-01  6.518600000000E-01  9.116000000000E-01
 105   7     1.800200000000E-01  8.388700000000E-01  6.128200000000E-01
 106   7     8.199800000000E-01  1.611300000000E-01  6.128200000000E-01
 107   7     8.388700000000E-01  8.199800000000E-01  3.871800000000E-01
 108   7     1.611300000000E-01  1.800200000000E-01  3.871800000000E-01
 109   7     6.800200000000E-01  3.388700000000E-01  1.128200000000E-01
 110   7     3.199800000000E-01  6.611300000000E-01  1.128200000000E-01
 111   7     3.388700000000E-01  3.199800000000E-01  8.871800000000E-01
 112   7     6.611300000000E-01  6.800200000000E-01  8.871800000000E-01
 113   7     9.174200000000E-01  8.687700000000E-01  1.079100000000E-01
 114   7     8.258000000000E-02  1.312300000000E-01  1.079100000000E-01
 115   7     8.687700000000E-01  8.258000000000E-02  8.920900000000E-01
 116   7     1.312300000000E-01  9.174200000000E-01  8.920900000000E-01
 117   7     4.174200000000E-01  3.687700000000E-01  6.079100000000E-01
 118   7     5.825800000000E-01  6.312300000000E-01  6.079100000000E-01
 119   7     3.687700000000E-01  5.825800000000E-01  3.920900000000E-01
 120   7     6.312300000000E-01  4.174200000000E-01  3.920900000000E-01
 121  30     0.000000000000E+00  5.000000000000E-01  2.500000000000E-01
 122  30     5.000000000000E-01  0.000000000000E+00  7.500000000000E-01
 123  30     0.000000000000E+00  0.000000000000E+00  5.000000000000E-01
 124  30     5.000000000000E-01  5.000000000000E-01  0.000000000000E+00

 *******************************************************************************

 << INFORMATION >>: FROM NOW ON, ALL COORDINATES REFER TO THE PRIMITIVE CELL

 *******************************************************************************

 LATTICE PARAMETERS  (ANGSTROMS AND DEGREES) - PRIMITIVE CELL
       A          B          C        ALPHA      BETA     GAMMA        VOLUME
    9.78647    9.78647    9.78647   117.47208 117.47208  94.43726    685.870456

 INPUT LIST - ATOM N.   2 NOT IRREDUCIBLE

 INPUT LIST - ATOM N.   3 NOT IRREDUCIBLE

 INPUT LIST - ATOM N.   4 NOT IRREDUCIBLE

 INPUT LIST - ATOM N.   1 NOT IRREDUCIBLE

 INPUT LIST - ATOM N.   2 NOT IRREDUCIBLE

 INPUT LIST - ATOM N.   3 NOT IRREDUCIBLE

 INPUT LIST - ATOM N.   4 NOT IRREDUCIBLE

 INPUT LIST - ATOM N.   6 NOT IRREDUCIBLE

 INPUT LIST - ATOM N.   7 NOT IRREDUCIBLE

 INPUT LIST - ATOM N.   8 NOT IRREDUCIBLE

 INPUT LIST - ATOM N.   5 NOT IRREDUCIBLE

 INPUT LIST - ATOM N.   6 NOT IRREDUCIBLE

 INPUT LIST - ATOM N.   7 NOT IRREDUCIBLE

 INPUT LIST - ATOM N.   8 NOT IRREDUCIBLE

 INPUT LIST - ATOM N.  10 NOT IRREDUCIBLE

 INPUT LIST - ATOM N.  11 NOT IRREDUCIBLE

 INPUT LIST - ATOM N.  12 NOT IRREDUCIBLE

 INPUT LIST - ATOM N.   9 NOT IRREDUCIBLE

 INPUT LIST - ATOM N.  10 NOT IRREDUCIBLE

 INPUT LIST - ATOM N.  11 NOT IRREDUCIBLE

 INPUT LIST - ATOM N.  12 NOT IRREDUCIBLE

 INPUT LIST - ATOM N.  14 NOT IRREDUCIBLE

 INPUT LIST - ATOM N.  15 NOT IRREDUCIBLE

 INPUT LIST - ATOM N.  16 NOT IRREDUCIBLE

 INPUT LIST - ATOM N.  13 NOT IRREDUCIBLE

 INPUT LIST - ATOM N.  14 NOT IRREDUCIBLE

 INPUT LIST - ATOM N.  15 NOT IRREDUCIBLE

 INPUT LIST - ATOM N.  16 NOT IRREDUCIBLE

 INPUT LIST - ATOM N.  18 NOT IRREDUCIBLE

 INPUT LIST - ATOM N.  19 NOT IRREDUCIBLE

 INPUT LIST - ATOM N.  20 NOT IRREDUCIBLE

 INPUT LIST - ATOM N.  17 NOT IRREDUCIBLE

 INPUT LIST - ATOM N.  18 NOT IRREDUCIBLE

 INPUT LIST - ATOM N.  19 NOT IRREDUCIBLE

 INPUT LIST - ATOM N.  20 NOT IRREDUCIBLE

 INPUT LIST - ATOM N.  22 NOT IRREDUCIBLE

 INPUT LIST - ATOM N.  23 NOT IRREDUCIBLE

 INPUT LIST - ATOM N.  24 NOT IRREDUCIBLE

 INPUT LIST - ATOM N.  21 NOT IRREDUCIBLE

 INPUT LIST - ATOM N.  22 NOT IRREDUCIBLE

 INPUT LIST - ATOM N.  23 NOT IRREDUCIBLE

 INPUT LIST - ATOM N.  24 NOT IRREDUCIBLE

 INPUT LIST - ATOM N.  26 NOT IRREDUCIBLE

 INPUT LIST - ATOM N.  27 NOT IRREDUCIBLE

 INPUT LIST - ATOM N.  28 NOT IRREDUCIBLE

 INPUT LIST - ATOM N.  25 NOT IRREDUCIBLE

 INPUT LIST - ATOM N.  26 NOT IRREDUCIBLE

 INPUT LIST - ATOM N.  27 NOT IRREDUCIBLE

 INPUT LIST - ATOM N.  28 NOT IRREDUCIBLE

 INPUT LIST - ATOM N.  30 NOT IRREDUCIBLE

 INPUT LIST - ATOM N.  31 NOT IRREDUCIBLE

 INPUT LIST - ATOM N.  32 NOT IRREDUCIBLE

 INPUT LIST - ATOM N.  29 NOT IRREDUCIBLE

 INPUT LIST - ATOM N.  30 NOT IRREDUCIBLE

 INPUT LIST - ATOM N.  31 NOT IRREDUCIBLE

 INPUT LIST - ATOM N.  32 NOT IRREDUCIBLE

 INPUT LIST - ATOM N.  34 NOT IRREDUCIBLE

 INPUT LIST - ATOM N.  35 NOT IRREDUCIBLE

 INPUT LIST - ATOM N.  36 NOT IRREDUCIBLE

 INPUT LIST - ATOM N.  33 NOT IRREDUCIBLE

 INPUT LIST - ATOM N.  34 NOT IRREDUCIBLE

 INPUT LIST - ATOM N.  35 NOT IRREDUCIBLE

 INPUT LIST - ATOM N.  36 NOT IRREDUCIBLE

 INPUT LIST - ATOM N.  38 NOT IRREDUCIBLE

 INPUT LIST - ATOM N.  39 NOT IRREDUCIBLE

 INPUT LIST - ATOM N.  40 NOT IRREDUCIBLE

 INPUT LIST - ATOM N.  37 NOT IRREDUCIBLE

 INPUT LIST - ATOM N.  38 NOT IRREDUCIBLE

 INPUT LIST - ATOM N.  39 NOT IRREDUCIBLE

 INPUT LIST - ATOM N.  40 NOT IRREDUCIBLE

 INPUT LIST - ATOM N.  42 NOT IRREDUCIBLE

 INPUT LIST - ATOM N.  43 NOT IRREDUCIBLE

 INPUT LIST - ATOM N.  44 NOT IRREDUCIBLE

 INPUT LIST - ATOM N.  41 NOT IRREDUCIBLE

 INPUT LIST - ATOM N.  42 NOT IRREDUCIBLE

 INPUT LIST - ATOM N.  43 NOT IRREDUCIBLE

 INPUT LIST - ATOM N.  44 NOT IRREDUCIBLE

 INPUT LIST - ATOM N.  46 NOT IRREDUCIBLE

 INPUT LIST - ATOM N.  47 NOT IRREDUCIBLE

 INPUT LIST - ATOM N.  48 NOT IRREDUCIBLE

 INPUT LIST - ATOM N.  45 NOT IRREDUCIBLE

 INPUT LIST - ATOM N.  46 NOT IRREDUCIBLE

 INPUT LIST - ATOM N.  47 NOT IRREDUCIBLE

 INPUT LIST - ATOM N.  48 NOT IRREDUCIBLE

 INPUT LIST - ATOM N.  50 NOT IRREDUCIBLE

 INPUT LIST - ATOM N.  51 NOT IRREDUCIBLE

 INPUT LIST - ATOM N.  52 NOT IRREDUCIBLE

 INPUT LIST - ATOM N.  49 NOT IRREDUCIBLE

 INPUT LIST - ATOM N.  50 NOT IRREDUCIBLE

 INPUT LIST - ATOM N.  51 NOT IRREDUCIBLE

 INPUT LIST - ATOM N.  52 NOT IRREDUCIBLE

 INPUT LIST - ATOM N.  54 NOT IRREDUCIBLE

 INPUT LIST - ATOM N.  55 NOT IRREDUCIBLE

 INPUT LIST - ATOM N.  56 NOT IRREDUCIBLE

 INPUT LIST - ATOM N.  53 NOT IRREDUCIBLE

 INPUT LIST - ATOM N.  54 NOT IRREDUCIBLE

 INPUT LIST - ATOM N.  55 NOT IRREDUCIBLE

 INPUT LIST - ATOM N.  56 NOT IRREDUCIBLE

 INPUT LIST - ATOM N.  58 NOT IRREDUCIBLE

 INPUT LIST - ATOM N.  59 NOT IRREDUCIBLE

 INPUT LIST - ATOM N.  60 NOT IRREDUCIBLE

 INPUT LIST - ATOM N.  57 NOT IRREDUCIBLE

 INPUT LIST - ATOM N.  58 NOT IRREDUCIBLE

 INPUT LIST - ATOM N.  59 NOT IRREDUCIBLE

 INPUT LIST - ATOM N.  60 NOT IRREDUCIBLE

 INPUT LIST - ATOM N.  61 NOT IRREDUCIBLE

 INPUT LIST - ATOM N.  62 NOT IRREDUCIBLE

 COORDINATES OF THE EQUIVALENT ATOMS (FRACTIONAL UNITS)

 N. ATOM EQUIV AT. N.          X                  Y                  Z

   1   1   1    1 H    -1.25960000000E-01 -3.05720000000E-01  2.94980000000E-01
   2   1   2    1 H     3.99300000000E-01 -4.20940000000E-01 -2.94980000000E-01
   3   1   3    1 H     3.05720000000E-01 -3.99300000000E-01  1.79760000000E-01
   4   1   4    1 H     4.20940000000E-01  1.25960000000E-01 -1.79760000000E-01








   5   9   1   35 BR   -2.33980000000E-01  6.67500000000E-02 -3.48890000000E-01
   6   9   2   35 BR    4.15640000000E-01  1.14910000000E-01  3.48890000000E-01
   7   9   3   35 BR   -6.67500000000E-02 -4.15640000000E-01 -3.00730000000E-01
   8   9   4   35 BR   -1.14910000000E-01  2.33980000000E-01  3.00730000000E-01








   9  17   1    1 H     1.17570000000E-01 -2.57190000000E-01 -4.13600000000E-01
  10  17   2    1 H     1.56410000000E-01 -4.68830000000E-01  4.13600000000E-01
  11  17   3    1 H     2.57190000000E-01 -1.56410000000E-01  3.74760000000E-01
  12  17   4    1 H     4.68830000000E-01 -1.17570000000E-01 -3.74760000000E-01

 NUMBER OF SYMMETRY OPERATORS         :    4
 *******************************************************************************
 * GEOMETRY EDITING - INPUT COORDINATES ARE GIVEN IN ANGSTROM         
 *******************************************************************************

 GEOMETRY NOW FULLY CONSISTENT WITH THE GROUP
 *******************************************************************************
 *  GEOMETRY EDITING
 *  THE SYMMETRY OF THE CRYSTAL IS KEPT AND APPLIED TO THE PERTURBATION
 *******************************************************************************
 INFORMATION **** NEW DEFAULT **** FINALRUN 4 FOR GEOMETRY OPTIMIZATIONS
 INFORMATION **** NEW DEFAULT **** OPTGEOM OPTIMIZES BOTH ATOMIC COORDINATES AND CELL PARAMETERS
 INFORMATION **** NEW DEFAULT **** TOL. ON ATOMIC DISP TO REDEFINE REF. GEOMETRY: 0.8 Angs
 INFORMATION **** NEW DEFAULT **** N POINTS TO REDEFINE REF. GEOMETRY: N OF OPT DEGS OF FREEDOM
 INFORMATION **** NEW DEFAULT **** TOL. ON ENERGY TO REDEFINE REF. GEOMETRY: 10**-3*(5*N. ATOMS)

 IMPORTANT INFORMATION:
 THE COORDINATE SYSTEM ADOPTED IN THE OPTIMIZATION IS NOT IN
 GENERAL HOMOGENEOUS UNITS. FOR THIS REASON THE GRADIENT AND 
 HESSIAN MATRIX IN TERMS OF THIS SYSTEM ARE GIVEN WITHOUT
 UNITS. FOR MORE DETAILS SEE THE MANUAL.

 *******************************************************************************
 COMBINED CELL/ATOM OPTIMIZATION CONTROL

 INITIAL TRUST RADIUS         0.50000 MAXIMUM TRUST RADIUS               4.00000
 MAXIMUM GRADIENT COMPONENT   0.00045 MAXIMUM DISPLACEMENT COMPONENT     0.00180
 R.M.S. OF GRADIENT COMPONENT 0.00030 R.M.S. OF DISPLACEMENT COMPONENTS  0.00120
 THRESHOLD ON ENERGY CHANGE 0.100E-06 EXTRAPOLATING POLYNOMIAL ORDER           2
 MAXIMUM ALLOWED NUMBER OF STEPS   -1 SORTING OF ENERGY POINTS:               NO
 ANALYTICAL  GRADIENT                 HESSIAN UPDATING                      BFGS
 STEP SIZE NUMERICAL GRADIENT 0.00100
 INITIAL HESSIAN MATRIX: SCHLEGEL MODEL 2
 *******************************************************************************


 GCALCO - MAX INDICES DIRECT LATTICE VECTOR    14    14    16
 NO.OF VECTORS CREATED 6999 STARS  481 RMAX   197.96270 BOHR

 GEOMETRY FOR WAVE FUNCTION - DIMENSIONALITY OF THE SYSTEM    3
 (NON PERIODIC DIRECTION: LATTICE PARAMETER FORMALLY SET TO 500)
 *******************************************************************************
 LATTICE PARAMETERS (ANGSTROMS AND DEGREES) - BOHR = 0.5291772083 ANGSTROM
 PRIMITIVE CELL - CENTRING CODE 6/0 VOLUME=   685.870456 - DENSITY  2.478 g/cm^3
         A              B              C           ALPHA      BETA       GAMMA 
     9.78647490     9.78647490     9.78647490   117.472078 117.472078  94.437262
 *******************************************************************************
 ATOMS IN THE ASYMMETRIC UNIT   17 - ATOMS IN THE UNIT CELL:   62
     ATOM                 X/A                 Y/B                 Z/C    
 *******************************************************************************
      1 T   1 H    -1.259600000000E-01 -3.057200000000E-01  2.949800000000E-01
      2 F   1 H     3.993000000000E-01 -4.209400000000E-01 -2.949800000000E-01
      3 F   1 H     3.057200000000E-01 -3.993000000000E-01  1.797600000000E-01
      4 F   1 H     4.209400000000E-01  1.259600000000E-01 -1.797600000000E-01
      5 T  35 BR   -2.339800000000E-01  6.675000000000E-02 -3.488900000000E-01
      6 F  35 BR    4.156400000000E-01  1.149100000000E-01  3.488900000000E-01
      7 F  35 BR   -6.675000000000E-02 -4.156400000000E-01 -3.007300000000E-01
      8 F  35 BR   -1.149100000000E-01  2.339800000000E-01  3.007300000000E-01
      9 T   1 H     1.175700000000E-01 -2.571900000000E-01 -4.136000000000E-01
     10 F   1 H     1.564100000000E-01 -4.688300000000E-01  4.136000000000E-01
     11 F   1 H     2.571900000000E-01 -1.564100000000E-01  3.747600000000E-01
     12 F   1 H     4.688300000000E-01 -1.175700000000E-01 -3.747600000000E-01
     13 T   1 H     1.811100000000E-01 -3.390000000000E-02 -1.008300000000E-01
     14 F   1 H     6.693000000000E-02  2.819400000000E-01  1.008300000000E-01
     15 F   1 H     3.390000000000E-02 -6.693000000000E-02  2.150100000000E-01
     16 F   1 H    -2.819400000000E-01 -1.811100000000E-01 -2.150100000000E-01
     17 T   6 C    -1.974700000000E-01 -1.188000000000E-01  4.506300000000E-01
     18 F   6 C     4.305700000000E-01  3.519000000000E-01 -4.506300000000E-01
     19 F   6 C     1.188000000000E-01 -4.305700000000E-01 -7.867000000000E-02
     20 F   6 C    -3.519000000000E-01  1.974700000000E-01  7.867000000000E-02
     21 T   6 C    -3.338300000000E-01 -1.256000000000E-01  2.945700000000E-01
     22 F   6 C    -4.201700000000E-01  3.716000000000E-01 -2.945700000000E-01
     23 F   6 C     1.256000000000E-01  4.201700000000E-01 -2.082300000000E-01
     24 F   6 C    -3.716000000000E-01  3.338300000000E-01  2.082300000000E-01
     25 T   6 C    -9.899000000000E-02 -2.142900000000E-01  4.320400000000E-01
     26 F   6 C     3.536700000000E-01  4.689700000000E-01 -4.320400000000E-01
     27 F   6 C     2.142900000000E-01 -3.536700000000E-01  1.153000000000E-01
     28 F   6 C    -4.689700000000E-01  9.899000000000E-02 -1.153000000000E-01
     29 T   6 C     7.302000000000E-02 -6.388000000000E-02 -2.317200000000E-01
     30 F   6 C     1.678400000000E-01  3.047400000000E-01  2.317200000000E-01
     31 F   6 C     6.388000000000E-02 -1.678400000000E-01  1.369000000000E-01
     32 F   6 C    -3.047400000000E-01 -7.302000000000E-02 -1.369000000000E-01
     33 T   6 C    -1.559200000000E-01 -4.140000000000E-03 -3.689200000000E-01
     34 F   6 C     3.647800000000E-01  2.130000000000E-01  3.689200000000E-01
     35 F   6 C     4.140000000000E-03 -3.647800000000E-01 -1.517800000000E-01
     36 F   6 C    -2.130000000000E-01  1.559200000000E-01  1.517800000000E-01
     37 T   6 C     2.196300000000E-01  4.432200000000E-01  4.064100000000E-01
     38 F   6 C     3.681000000000E-02 -1.867800000000E-01 -4.064100000000E-01
     39 F   6 C    -4.432200000000E-01 -3.681000000000E-02 -2.235900000000E-01
     40 F   6 C     1.867800000000E-01 -2.196300000000E-01  2.235900000000E-01
     41 T   7 N    -3.698800000000E-01  8.060000000000E-03  3.036000000000E-01
     42 F   7 N    -2.955400000000E-01  3.265200000000E-01 -3.036000000000E-01
     43 F   7 N    -8.060000000000E-03  2.955400000000E-01 -3.779400000000E-01
     44 F   7 N    -3.265200000000E-01  3.698800000000E-01  3.779400000000E-01
     45 T   7 N     4.956200000000E-01 -4.619000000000E-02  1.298900000000E-01
     46 F   7 N    -1.760800000000E-01  3.657300000000E-01 -1.298900000000E-01
     47 F   7 N     4.619000000000E-02  1.760800000000E-01 -4.581900000000E-01
     48 F   7 N    -3.657300000000E-01 -4.956200000000E-01  4.581900000000E-01
     49 T   7 N    -4.438100000000E-01 -2.597400000000E-01  1.196500000000E-01
     50 F   7 N    -3.793900000000E-01  4.365400000000E-01 -1.196500000000E-01
     51 F   7 N     2.597400000000E-01  3.793900000000E-01 -1.840700000000E-01
     52 F   7 N    -4.365400000000E-01  4.438100000000E-01  1.840700000000E-01
     53 T   7 N     4.516900000000E-01 -2.071600000000E-01  1.889000000000E-02
     54 F   7 N    -2.260500000000E-01  4.328000000000E-01 -1.889000000000E-02
     55 F   7 N     2.071600000000E-01  2.260500000000E-01 -3.411500000000E-01
     56 F   7 N    -4.328000000000E-01 -4.516900000000E-01  3.411500000000E-01
     57 T   7 N    -2.332000000000E-02  2.533000000000E-02 -2.138100000000E-01
     58 F   7 N     2.391400000000E-01  1.904900000000E-01  2.138100000000E-01
     59 F   7 N    -2.533000000000E-02 -2.391400000000E-01 -4.865000000000E-02
     60 F   7 N    -1.904900000000E-01  2.332000000000E-02  4.865000000000E-02
     61 T  30 ZN   -2.500000000000E-01  2.500000000000E-01  5.000000000000E-01
     62 T  30 ZN   -5.000000000000E-01  5.000000000000E-01  0.000000000000E+00

 TRANSFORMATION MATRIX PRIMITIVE-CRYSTALLOGRAPHIC CELL
  0.0000  1.0000  1.0000  1.0000  0.0000  1.0000  1.0000  1.0000  0.0000

 *******************************************************************************
 CRYSTALLOGRAPHIC CELL (VOLUME=       1371.74091142)
         A              B              C           ALPHA      BETA       GAMMA 
    10.15800000    10.15800000    13.29400000    90.000000  90.000000  90.000000

 COORDINATES IN THE CRYSTALLOGRAPHIC CELL
     ATOM                 X/A                 Y/B                 Z/C    
 *******************************************************************************
      1 T   1 H     5.761000000000E-02  2.373700000000E-01 -3.633300000000E-01
      2 F   1 H    -5.761000000000E-02 -2.373700000000E-01 -3.633300000000E-01
      3 F   1 H     2.373700000000E-01 -5.761000000000E-02  3.633300000000E-01
      4 F   1 H    -2.373700000000E-01  5.761000000000E-02  3.633300000000E-01
      5 T  35 BR   -2.408000000000E-02 -3.248100000000E-01  9.083000000000E-02
      6 F  35 BR    2.408000000000E-02  3.248100000000E-01  9.083000000000E-02
      7 F  35 BR   -3.248100000000E-01  2.408000000000E-02 -9.083000000000E-02
      8 F  35 BR    3.248100000000E-01 -2.408000000000E-02 -9.083000000000E-02
      9 T   1 H    -3.941800000000E-01 -1.942000000000E-02  1.369900000000E-01
     10 F   1 H     3.941800000000E-01  1.942000000000E-02  1.369900000000E-01
     11 F   1 H    -1.942000000000E-02  3.941800000000E-01 -1.369900000000E-01
     12 F   1 H     1.942000000000E-02 -3.941800000000E-01 -1.369900000000E-01
     13 T   1 H    -1.579200000000E-01  5.709000000000E-02  1.240200000000E-01
     14 F   1 H     1.579200000000E-01 -5.709000000000E-02  1.240200000000E-01
     15 F   1 H     5.709000000000E-02  1.579200000000E-01 -1.240200000000E-01
     16 F   1 H    -5.709000000000E-02 -1.579200000000E-01 -1.240200000000E-01
     17 T   6 C    -2.353500000000E-01 -3.140200000000E-01  1.165500000000E-01
     18 F   6 C     2.353500000000E-01  3.140200000000E-01  1.165500000000E-01
     19 F   6 C    -3.140200000000E-01  2.353500000000E-01 -1.165500000000E-01
     20 F   6 C     3.140200000000E-01 -2.353500000000E-01 -1.165500000000E-01
     21 T   6 C    -2.486000000000E-01 -4.568300000000E-01  1.230000000000E-01
     22 F   6 C     2.486000000000E-01  4.568300000000E-01  1.230000000000E-01
     23 F   6 C    -4.568300000000E-01  2.486000000000E-01 -1.230000000000E-01
     24 F   6 C     4.568300000000E-01 -2.486000000000E-01 -1.230000000000E-01
     25 T   6 C    -3.416300000000E-01 -2.263300000000E-01  1.273400000000E-01
     26 F   6 C     3.416300000000E-01  2.263300000000E-01  1.273400000000E-01
     27 F   6 C    -2.263300000000E-01  3.416300000000E-01 -1.273400000000E-01
     28 F   6 C     2.263300000000E-01 -3.416300000000E-01 -1.273400000000E-01
     29 T   6 C    -1.843100000000E-01 -4.741000000000E-02  1.204300000000E-01
     30 F   6 C     1.843100000000E-01  4.741000000000E-02  1.204300000000E-01
     31 F   6 C    -4.741000000000E-02  1.843100000000E-01 -1.204300000000E-01
     32 F   6 C     4.741000000000E-02 -1.843100000000E-01 -1.204300000000E-01
     33 T   6 C    -1.085700000000E-01 -2.603500000000E-01  1.044300000000E-01
     34 F   6 C     1.085700000000E-01  2.603500000000E-01  1.044300000000E-01
     35 F   6 C    -2.603500000000E-01  1.085700000000E-01 -1.044300000000E-01
     36 F   6 C     2.603500000000E-01 -1.085700000000E-01 -1.044300000000E-01
     37 T   6 C     3.150000000000E-01  9.141000000000E-02  1.282200000000E-01
     38 F   6 C    -3.150000000000E-01 -9.141000000000E-02  1.282200000000E-01
     39 F   6 C     9.141000000000E-02 -3.150000000000E-01 -1.282200000000E-01
     40 F   6 C    -9.141000000000E-02  3.150000000000E-01 -1.282200000000E-01
     41 T   7 N    -1.592300000000E-01  4.628300000000E-01  1.672900000000E-01
     42 F   7 N     1.592300000000E-01 -4.628300000000E-01  1.672900000000E-01
     43 F   7 N     4.628300000000E-01  1.592300000000E-01 -1.672900000000E-01
     44 F   7 N    -4.628300000000E-01 -1.592300000000E-01 -1.672900000000E-01
     45 T   7 N    -2.059600000000E-01  3.358500000000E-01  1.597700000000E-01
     46 F   7 N     2.059600000000E-01 -3.358500000000E-01  1.597700000000E-01
     47 F   7 N     3.358500000000E-01  2.059600000000E-01 -1.597700000000E-01
     48 F   7 N    -3.358500000000E-01 -2.059600000000E-01 -1.597700000000E-01
     49 T   7 N     1.518600000000E-01 -3.221000000000E-02 -4.116000000000E-01
     50 F   7 N    -1.518600000000E-01  3.221000000000E-02 -4.116000000000E-01
     51 F   7 N    -3.221000000000E-02 -1.518600000000E-01  4.116000000000E-01
     52 F   7 N     3.221000000000E-02  1.518600000000E-01  4.116000000000E-01
     53 T   7 N    -3.199800000000E-01  3.388700000000E-01  1.128200000000E-01
     54 F   7 N     3.199800000000E-01 -3.388700000000E-01  1.128200000000E-01
     55 F   7 N     3.388700000000E-01  3.199800000000E-01 -1.128200000000E-01
     56 F   7 N    -3.388700000000E-01 -3.199800000000E-01 -1.128200000000E-01
     57 T   7 N    -8.258000000000E-02 -1.312300000000E-01  1.079100000000E-01
     58 F   7 N     8.258000000000E-02  1.312300000000E-01  1.079100000000E-01
     59 F   7 N    -1.312300000000E-01  8.258000000000E-02 -1.079100000000E-01
     60 F   7 N     1.312300000000E-01 -8.258000000000E-02 -1.079100000000E-01
     61 T  30 ZN    4.626932236752E-17  5.000000000000E-01  2.500000000000E-01
     62 T  30 ZN    0.000000000000E+00  0.000000000000E+00  5.000000000000E-01

 T = ATOM BELONGING TO THE ASYMMETRIC UNIT
 PROCESS           19  OF           24  WORKING

 ****    4 SYMMOPS - TRANSLATORS IN FRACTIONAL UNITS
 **** MATRICES AND TRANSLATORS IN THE CRYSTALLOGRAPHIC REFERENCE FRAME
   V INV                    ROTATION MATRICES                   TRANSLATORS
   1   1  1.00  0.00  0.00  0.00  1.00  0.00  0.00  0.00  1.00  0.00  0.00  0.00
   2   2  0.00  1.00 -1.00  1.00 -0.00 -1.00 -0.00  0.00 -1.00  0.00  0.00  0.00
   3   4 -0.00 -1.00  0.00  0.00 -1.00  1.00  1.00 -1.00  0.00  0.00  0.00  0.00
   4   3 -1.00 -0.00  1.00 -1.00  0.00 -0.00 -1.00  1.00 -0.00  0.00  0.00  0.00

 DIRECT LATTICE VECTORS CARTESIAN COMPONENTS (ANGSTROM)
          X                    Y                    Z
  -0.507900000000E+01   0.507900000000E+01   0.664700000000E+01
   0.507900000000E+01  -0.507900000000E+01   0.664700000000E+01
   0.507900000000E+01   0.507900000000E+01  -0.664700000000E+01


 CARTESIAN COORDINATES - PRIMITIVE CELL
 *******************************************************************************
 *      ATOM          X(ANGSTROM)         Y(ANGSTROM)         Z(ANGSTROM)
 *******************************************************************************
    1     1 H     5.852023800000E-01  2.411204460000E+00 -4.830109020000E+00
    2     1 H    -5.852023800000E-01 -2.411204460000E+00 -4.830109020000E+00
    3     1 H     2.411204460000E+00 -5.852023800000E-01  4.830109020000E+00
    4     1 H    -2.411204460000E+00  5.852023800000E-01  4.830109020000E+00
    5    35 BR   -2.446046400000E-01 -3.299419980000E+00  1.207494020000E+00
    6    35 BR    2.446046400000E-01  3.299419980000E+00  1.207494020000E+00
    7    35 BR   -3.299419980000E+00  2.446046400000E-01 -1.207494020000E+00
    8    35 BR    3.299419980000E+00 -2.446046400000E-01 -1.207494020000E+00
    9     1 H    -4.004080440000E+00 -1.972683600000E-01  1.821145060000E+00
   10     1 H     4.004080440000E+00  1.972683600000E-01  1.821145060000E+00
   11     1 H    -1.972683600000E-01  4.004080440000E+00 -1.821145060000E+00
   12     1 H     1.972683600000E-01 -4.004080440000E+00 -1.821145060000E+00
   13     1 H    -1.604151360000E+00  5.799202200000E-01  1.648721880000E+00
   14     1 H     1.604151360000E+00 -5.799202200000E-01  1.648721880000E+00
   15     1 H     5.799202200000E-01  1.604151360000E+00 -1.648721880000E+00
   16     1 H    -5.799202200000E-01 -1.604151360000E+00 -1.648721880000E+00
   17     6 C    -2.390685300000E+00 -3.189815160000E+00  1.549415700000E+00
   18     6 C     2.390685300000E+00  3.189815160000E+00  1.549415700000E+00
   19     6 C    -3.189815160000E+00  2.390685300000E+00 -1.549415700000E+00
   20     6 C     3.189815160000E+00 -2.390685300000E+00 -1.549415700000E+00
   21     6 C    -2.525278800000E+00 -4.640479140000E+00  1.635162000000E+00
   22     6 C     2.525278800000E+00  4.640479140000E+00  1.635162000000E+00
   23     6 C    -4.640479140000E+00  2.525278800000E+00 -1.635162000000E+00
   24     6 C     4.640479140000E+00 -2.525278800000E+00 -1.635162000000E+00
   25     6 C    -3.470277540000E+00 -2.299060140000E+00  1.692857960000E+00
   26     6 C     3.470277540000E+00  2.299060140000E+00  1.692857960000E+00
   27     6 C    -2.299060140000E+00  3.470277540000E+00 -1.692857960000E+00
   28     6 C     2.299060140000E+00 -3.470277540000E+00 -1.692857960000E+00
   29     6 C    -1.872220980000E+00 -4.815907800000E-01  1.600996420000E+00
   30     6 C     1.872220980000E+00  4.815907800000E-01  1.600996420000E+00
   31     6 C    -4.815907800000E-01  1.872220980000E+00 -1.600996420000E+00
   32     6 C     4.815907800000E-01 -1.872220980000E+00 -1.600996420000E+00
   33     6 C    -1.102854060000E+00 -2.644635300000E+00  1.388292420000E+00
   34     6 C     1.102854060000E+00  2.644635300000E+00  1.388292420000E+00
   35     6 C    -2.644635300000E+00  1.102854060000E+00 -1.388292420000E+00
   36     6 C     2.644635300000E+00 -1.102854060000E+00 -1.388292420000E+00
   37     6 C     3.199770000000E+00  9.285427800000E-01  1.704556680000E+00
   38     6 C    -3.199770000000E+00 -9.285427800000E-01  1.704556680000E+00
   39     6 C     9.285427800000E-01 -3.199770000000E+00 -1.704556680000E+00
   40     6 C    -9.285427800000E-01  3.199770000000E+00 -1.704556680000E+00
   41     7 N    -1.617458340000E+00  4.701427140000E+00  2.223953260000E+00
   42     7 N     1.617458340000E+00 -4.701427140000E+00  2.223953260000E+00
   43     7 N     4.701427140000E+00  1.617458340000E+00 -2.223953260000E+00
   44     7 N    -4.701427140000E+00 -1.617458340000E+00 -2.223953260000E+00
   45     7 N    -2.092141680000E+00  3.411564300000E+00  2.123982380000E+00
   46     7 N     2.092141680000E+00 -3.411564300000E+00  2.123982380000E+00
   47     7 N     3.411564300000E+00  2.092141680000E+00 -2.123982380000E+00
   48     7 N    -3.411564300000E+00 -2.092141680000E+00 -2.123982380000E+00
   49     7 N     1.542593880000E+00 -3.271891800000E-01 -5.471810400000E+00
   50     7 N    -1.542593880000E+00  3.271891800000E-01 -5.471810400000E+00
   51     7 N    -3.271891800000E-01 -1.542593880000E+00  5.471810400000E+00
   52     7 N     3.271891800000E-01  1.542593880000E+00  5.471810400000E+00
   53     7 N    -3.250356840000E+00  3.442241460000E+00  1.499829080000E+00
   54     7 N     3.250356840000E+00 -3.442241460000E+00  1.499829080000E+00
   55     7 N     3.442241460000E+00  3.250356840000E+00 -1.499829080000E+00
   56     7 N    -3.442241460000E+00 -3.250356840000E+00 -1.499829080000E+00
   57     7 N    -8.388476400000E-01 -1.333034340000E+00  1.434555540000E+00
   58     7 N     8.388476400000E-01  1.333034340000E+00  1.434555540000E+00
   59     7 N    -1.333034340000E+00  8.388476400000E-01 -1.434555540000E+00
   60     7 N     1.333034340000E+00 -8.388476400000E-01 -1.434555540000E+00
   61    30 ZN    4.700037766092E-16  5.079000000000E+00 -9.970500000000E+00
   62    30 ZN    0.000000000000E+00  0.000000000000E+00  6.647000000000E+00

 *******************************************************************************
 STARTING BASIS SET HANDLING 
 *******************************************************************************

 Loading internal basis set: POB-DZVPP           

 Please cite in your publication:
 Peintinger, M. F., Oliveira, D. V. and Bredow, T. (2013), Generally applicable 
 solid-state Gaussian basis sets, in preparation                                
                                                                                
                    

 *******************************************************************************
 LOCAL ATOMIC FUNCTIONS BASIS SET
 *******************************************************************************
   ATOM   X(AU)   Y(AU)   Z(AU)  N. TYPE  EXPONENT  S COEF   P COEF   D/F/G COEF
 *******************************************************************************
   1 H    1.106   4.557  -9.128
                                  1 S  
                                         2.263E+01 1.441E-02 0.000E+00 0.000E+00
                                         3.236E+00 1.072E-01 0.000E+00 0.000E+00
                                         7.304E-01 3.846E-01 0.000E+00 0.000E+00
                                  2 S  
                                         1.417E-01 1.000E+00 0.000E+00 0.000E+00
                           3-     5 P  
                                         3.944E-01 0.000E+00 1.000E+00 0.000E+00
                           6-     8 P  
                                         1.006E-01 0.000E+00 1.000E+00 0.000E+00
   2 H   -1.106  -4.557  -9.128
   3 H    4.557  -1.106   9.128
   4 H   -4.557   1.106   9.128
   5 BR  -0.462  -6.235   2.282
                                 33 S  
                                         1.133E+05 1.428E-03 0.000E+00 0.000E+00
                                         1.701E+04 1.095E-02 0.000E+00 0.000E+00
                                         3.870E+03 5.442E-02 0.000E+00 0.000E+00
                                         1.093E+03 1.905E-01 0.000E+00 0.000E+00
                                         3.564E+02 3.902E-01 0.000E+00 0.000E+00
                                         1.231E+02 3.081E-01 0.000E+00 0.000E+00
                                 34 S  
                                         2.367E+02-1.123E-01 0.000E+00 0.000E+00
                                         2.847E+01 6.478E-01 0.000E+00 0.000E+00
                                         1.188E+01 4.424E-01 0.000E+00 0.000E+00
                                 35 S  
                                         2.127E+01-2.264E-01 0.000E+00 0.000E+00
                                         3.613E+00 7.382E-01 0.000E+00 0.000E+00
                                         1.663E+00 4.268E-01 0.000E+00 0.000E+00
                                 36 S  
                                         3.641E-01 1.000E+00 0.000E+00 0.000E+00
                                 37 S  
                                         1.243E-01 1.000E+00 0.000E+00 0.000E+00
                          38-    40 P  
                                         1.560E+03 0.000E+00 8.717E-03 0.000E+00
                                         3.685E+02 0.000E+00 6.624E-02 0.000E+00
                                         1.172E+02 0.000E+00 2.650E-01 0.000E+00
                                         4.265E+01 0.000E+00 5.384E-01 0.000E+00
                                         1.609E+01 0.000E+00 3.658E-01 0.000E+00
                          41-    43 P  
                                         8.635E+00 0.000E+00 3.425E-01 0.000E+00
                                         3.561E+00 0.000E+00 5.750E-01 0.000E+00
                                         1.529E+00 0.000E+00 2.433E-01 0.000E+00
                          44-    46 P  
                                         6.447E-01 0.000E+00 1.000E+00 0.000E+00
                          47-    49 P  
                                         2.103E-01 0.000E+00 1.000E+00 0.000E+00
                          50-    54 D  
                                         1.049E+02 0.000E+00 0.000E+00 2.265E-02
                                         3.028E+01 0.000E+00 0.000E+00 1.346E-01
                                         1.065E+01 0.000E+00 0.000E+00 3.647E-01
                                         3.870E+00 0.000E+00 0.000E+00 4.904E-01
                          55-    59 D  
                                         1.342E+00 0.000E+00 0.000E+00 1.000E+00
                          60-    64 D  
                                         4.101E-01 0.000E+00 0.000E+00 1.000E+00
                          65-    69 D  
                                         1.985E-01 0.000E+00 0.000E+00 1.000E+00
   6 BR   0.462   6.235   2.282
   7 BR  -6.235   0.462  -2.282
   8 BR   6.235  -0.462  -2.282
   9 H   -7.567  -0.373   3.441
  10 H    7.567   0.373   3.441
  11 H   -0.373   7.567  -3.441
  12 H    0.373  -7.567  -3.441
  13 H   -3.031   1.096   3.116
  14 H    3.031  -1.096   3.116
  15 H    1.096   3.031  -3.116
  16 H   -1.096  -3.031  -3.116
  17 C   -4.518  -6.028   2.928
                                245 S  
                                         1.238E+03 5.457E-03 0.000E+00 0.000E+00
                                         1.863E+02 4.064E-02 0.000E+00 0.000E+00
                                         4.225E+01 1.803E-01 0.000E+00 0.000E+00
                                         1.168E+01 4.632E-01 0.000E+00 0.000E+00
                                         3.593E+00 4.409E-01 0.000E+00 0.000E+00
                                246 S  
                                         5.281E+00 1.000E+00 0.000E+00 0.000E+00
                                247 S  
                                         4.447E-01 1.000E+00 0.000E+00 0.000E+00
                         248-   250 P  
                                         9.468E+00 0.000E+00 3.839E-02 0.000E+00
                                         2.010E+00 0.000E+00 2.112E-01 0.000E+00
                                         5.477E-01 0.000E+00 5.133E-01 0.000E+00
                         251-   253 P  
                                         1.604E-01 0.000E+00 1.000E+00 0.000E+00
                         254-   258 D  
                                         6.070E-01 0.000E+00 0.000E+00 1.000E+00
                         259-   263 D  
                                         2.939E-01 0.000E+00 0.000E+00 1.000E+00
  18 C    4.518   6.028   2.928
  19 C   -6.028   4.518  -2.928
  20 C    6.028  -4.518  -2.928
  21 C   -4.772  -8.769   3.090
  22 C    4.772   8.769   3.090
  23 C   -8.769   4.772  -3.090
  24 C    8.769  -4.772  -3.090
  25 C   -6.558  -4.345   3.199
  26 C    6.558   4.345   3.199
  27 C   -4.345   6.558  -3.199
  28 C    4.345  -6.558  -3.199
  29 C   -3.538  -0.910   3.025
  30 C    3.538   0.910   3.025
  31 C   -0.910   3.538  -3.025
  32 C    0.910  -3.538  -3.025
  33 C   -2.084  -4.998   2.623
  34 C    2.084   4.998   2.623
  35 C   -4.998   2.084  -2.623
  36 C    4.998  -2.084  -2.623
  37 C    6.047   1.755   3.221
  38 C   -6.047  -1.755   3.221
  39 C    1.755  -6.047  -3.221
  40 C   -1.755   6.047  -3.221
  41 N   -3.057   8.884   4.203
                                701 S  
                                         1.713E+03-5.393E-03 0.000E+00 0.000E+00
                                         2.576E+02-4.022E-02 0.000E+00 0.000E+00
                                         5.846E+01-1.793E-01 0.000E+00 0.000E+00
                                         1.620E+01-4.638E-01 0.000E+00 0.000E+00
                                         5.005E+00-4.417E-01 0.000E+00 0.000E+00
                                702 S  
                                         6.217E-01 1.000E+00 0.000E+00 0.000E+00
                                703 S  
                                         2.921E-01 1.000E+00 0.000E+00 0.000E+00
                         704-   706 P  
                                         1.357E+01 0.000E+00-4.007E-02 0.000E+00
                                         2.926E+00 0.000E+00-2.181E-01 0.000E+00
                                         7.993E-01 0.000E+00-5.129E-01 0.000E+00
                         707-   709 P  
                                         2.244E-01 0.000E+00 1.000E+00 0.000E+00
                         710-   714 D  
                                         3.118E-01 0.000E+00 0.000E+00 1.000E+00
  42 N    3.057  -8.884   4.203
  43 N    8.884   3.057  -4.203
  44 N   -8.884  -3.057  -4.203
  45 N   -3.954   6.447   4.014
  46 N    3.954  -6.447   4.014
  47 N    6.447   3.954  -4.014
  48 N   -6.447  -3.954  -4.014
  49 N    2.915  -0.618 -10.340
  50 N   -2.915   0.618 -10.340
  51 N   -0.618  -2.915  10.340
  52 N    0.618   2.915  10.340
  53 N   -6.142   6.505   2.834
  54 N    6.142  -6.505   2.834
  55 N    6.505   6.142  -2.834
  56 N   -6.505  -6.142  -2.834
  57 N   -1.585  -2.519   2.711
  58 N    1.585   2.519   2.711
  59 N   -2.519   1.585  -2.711
  60 N    2.519  -1.585  -2.711
  61 ZN   0.000   9.598 -18.842
                                981 S  
                                         8.200E+04 1.421E-03 0.000E+00 0.000E+00
                                         1.231E+04 1.089E-02 0.000E+00 0.000E+00
                                         2.801E+03 5.406E-02 0.000E+00 0.000E+00
                                         7.910E+02 1.885E-01 0.000E+00 0.000E+00
                                         2.576E+02 3.835E-01 0.000E+00 0.000E+00
                                         8.881E+01 2.972E-01 0.000E+00 0.000E+00
                                982 S  
                                         1.719E+02-1.105E-01 0.000E+00 0.000E+00
                                         2.030E+01 6.461E-01 0.000E+00 0.000E+00
                                         8.346E+00 4.422E-01 0.000E+00 0.000E+00
                                983 S  
                                         1.485E+01-2.271E-01 0.000E+00 0.000E+00
                                         2.450E+00 7.243E-01 0.000E+00 0.000E+00
                                         9.985E-01 4.484E-01 0.000E+00 0.000E+00
                                984 S  
                                         1.493E+00 1.000E+00 0.000E+00 0.000E+00
                                985 S  
                                         1.830E-01 1.000E+00 0.000E+00 0.000E+00
                         986-   988 P  
                                         1.072E+03 0.000E+00 9.277E-03 0.000E+00
                                         2.527E+02 0.000E+00 6.954E-02 0.000E+00
                                         8.010E+01 0.000E+00 2.716E-01 0.000E+00
                                         2.890E+01 0.000E+00 5.340E-01 0.000E+00
                                         1.077E+01 0.000E+00 3.450E-01 0.000E+00
                         989-   991 P  
                                         5.645E+00 0.000E+00 3.413E-01 0.000E+00
                                         2.168E+00 0.000E+00 5.639E-01 0.000E+00
                                         8.054E-01 0.000E+00 2.368E-01 0.000E+00
                         992-   994 P  
                                         2.721E-01 0.000E+00 1.000E+00 0.000E+00
                         995-   999 D  
                                         5.609E+01 0.000E+00 0.000E+00 2.959E-02
                                         1.575E+01 0.000E+00 0.000E+00 1.587E-01
                                         5.312E+00 0.000E+00 0.000E+00 3.798E-01
                                         1.774E+00 0.000E+00 0.000E+00 4.690E-01
                        1000-  1004 D  
                                         5.073E-01 0.000E+00 0.000E+00 1.000E+00
                        1005-  1011 F  
                                         2.814E+00 0.000E+00 0.000E+00 1.000E+00
                        1012-  1018 F  
                                         1.300E+00 0.000E+00 0.000E+00 1.000E+00
  62 ZN   0.000   0.000  12.561

 *******************************************************************************
 FINISHED BASIS SET HANDLING 
 *******************************************************************************

 INFORMATION **** SET_MPP **** PCRYSTAL CALCULATION
 INFORMATION **** READM2 **** NEW DEFAULT: FOCK/KS MATRIX MIXING SET TO 30 %
 INFORMATION **** READM2 **** NEW DEFAULT: FULL DIRECT SCF MODE
 INFORMATION **** READM2 **** NEW DEFAULT: COULOMB BIPOLAR BUFFER SET TO 32 Mb
 INFORMATION **** READM2 **** NEW DEFAULT: EXCHANGE BIPOLAR BUFFER SET TO 32 Mb

 *******************************************************************************
 NEW DEFAULT: DFT INTEGRATION GRID INCREASED TO XLGRID
 NEW DEFAULT: DIIS ACCELERATOR ACTIVE
 USE KEYWORD NODIIS TO TURN IT OFF
 *******************************************************************************

 INFORMATION **** DFTD3_INPUT **** PERFORM DISPERSION CORRECTION DFT-D3(BJ) IN THE BECKE-JOHNSON DAMPING SCHEME

 PLEASE CITE:
 (1) DFT-D3 Reference
  S. Grimme, J. Antony, S. Ehrlich, and H. Krieg, J. Chem. Phys. 132 (2010), 154104
 (2) BJ-Damping Reference
  S. Grimme, S. Ehrlich, and L. Goerigk, J. Comput. Chem. 32 (2011), 1456-1465
 (3) General DFT-D Review
  S. Grimme, A. Hansen, J. G. Brandenburg, and C. Bannwarth,
  Chem. Rev. 116 (2016), 5105-5154

 INFORMATION **** BIPOSIZE **** COULOMB BIPOLAR BUFFER SET TO    30000000
 INFORMATION **** EXCHSIZE **** EXCHANGE BIPOLAR BUFFER SIZE SET TO    30000000
 INFORMATION **** TOLINTEG **** COULOMB AND EXCHANGE SERIES TOLERANCES MODIFIED
 INFORMATION **** MAXCYCLE **** MAX NUMBER OF SCF CYCLES SET TO          50
 *******************************************************************************
 N. OF ATOMS PER CELL        62  COULOMB OVERLAP TOL         (T1) 10**  -12
 NUMBER OF SHELLS           412  COULOMB PENETRATION TOL     (T2) 10**  -12
 NUMBER OF AO              1056  EXCHANGE OVERLAP TOL        (T3) 10**   20
 N. OF ELECTRONS PER CELL   496  EXCHANGE PSEUDO OVP (F(G))  (T4) 10**   20
 CORE ELECTRONS PER CELL    236  EXCHANGE PSEUDO OVP (P(G))  (T5) 10**   20
 N. OF SYMMETRY OPERATORS     4  POLE ORDER IN MONO ZONE                  4
 *******************************************************************************
 TYPE OF CALCULATION :  RESTRICTED CLOSED SHELL
 KOHN-SHAM HAMILTONIAN

 (EXCHANGE)[CORRELATION] FUNCTIONAL:(PERDEW-BURKE-ERNZERHOF)[PERDEW-BURKE-ERNZERHOF]


 CAPPA:IS1  3;IS2  3;IS3  3; K PTS MONK NET   6; SYMMOPS:K SPACE   8;G SPACE   4

 *******************************************************************************
 MAX NUMBER OF SCF CYCLES      50  CONVERGENCE ON DELTAP        10**-16
 WEIGHT OF F(I) IN F(I+1)      30% CONVERGENCE ON ENERGY        10**- 7
 SHRINK. FACT.(MONKH.)    3  3  3  NUMBER OF K POINTS IN THE IBZ      6
 SHRINKING FACTOR(GILAT NET)    3  NUMBER OF K POINTS(GILAT NET)      6
 *******************************************************************************
 *** K POINTS COORDINATES (OBLIQUE COORDINATES IN UNITS OF IS =  3)
   1-R(  0  0  0)   2-C(  1  0  0)   3-C(  1  1  0)   4-C(  2  1  0)
   5-C(  2  1  1)   6-C(  2  2  1)

 DIRECT LATTICE VECTORS COMPON. (A.U.)     RECIP. LATTICE VECTORS COMPON. (A.U.) 
        X            Y            Z              X            Y            Z
   -9.5979190    9.5979190   12.5610096      0.0000000    0.3273202    0.2501067
    9.5979190   -9.5979190   12.5610096      0.3273202    0.0000000    0.2501067
    9.5979190    9.5979190  -12.5610096      0.3273202    0.3273202    0.0000000

 DISK SPACE FOR EIGENVECTORS (FTN 10)    12266496 REALS

 SYMMETRY ADAPTION OF THE BLOCH FUNCTIONS ENABLED
 TTTTTTTTTTTTTTTTTTTTTTTTTTTTTT gordsh1     TELAPSE        1.32 TCPU        0.04

 MATRIX SIZE: P(G) 2113832, F(G) 1058044, P(G) IRR  267320, F(G) IRR  267320
 MAX G-VECTOR INDEX FOR 1- AND 2-ELECTRON INTEGRALS  63

 TTTTTTTTTTTTTTTTTTTTTTTTTTTTTT INPUT       TELAPSE        1.41 TCPU        0.13

 NEIGHBORS OF THE NON-EQUIVALENT ATOMS

 N = NUMBER OF NEIGHBORS AT DISTANCE R
    ATOM  N     R/ANG      R/AU   NEIGHBORS (ATOM LABELS AND CELL INDICES)
   1 H    1     1.0950     2.0692   25 C    0 0 1
   1 H    1     2.1707     4.1021   38 C    0 0 1
   1 H    1     2.1834     4.1260   17 C    0 0 1
   1 H    1     2.5186     4.7595    9 H    0 0 1
   1 H    1     2.5548     4.8279   54 N    0-1 0
   1 H    1     2.7928     5.2776   21 C    0 0 1

   5 BR   1     1.0945     2.0684   33 C    0 0 0
   5 BR   1     2.0667     3.9055   57 N    0 0 0
   5 BR   1     2.1759     4.1119   17 C    0 0 0
   5 BR   1     2.5126     4.7480   46 N    0 0 0
   5 BR   1     2.5429     4.8053   42 N    0 0 0
   5 BR   1     2.6801     5.0646   21 C    0 0 0

   9 H    1     1.0933     2.0660   38 C    0 0 0
   9 H    1     2.1620     4.0855   29 C    0 0 0
   9 H    1     2.1723     4.1051   25 C    0 0 0
   9 H    1     2.1857     4.1305   10 H    0-1-1
   9 H    1     2.5186     4.7595    1 H    0 0-1
   9 H    1     2.5285     4.7782   13 H    0 0 0

  13 H    1     1.0959     2.0709   29 C    0 0 0
  13 H    1     2.0715     3.9145   57 N    0 0 0
  13 H    1     2.1965     4.1508   38 C    0 0 0
  13 H    1     2.5285     4.7782    9 H    0 0 0
  13 H    1     2.5654     4.8479   58 N    0 0 0
  13 H    1     2.9124     5.5037   45 N    0 0 0

  17 C    1     1.4070     2.6588   25 C    0 0 0
  17 C    1     1.4077     2.6602   33 C    0 0 0
  17 C    1     1.4594     2.7579   21 C    0 0 0
  17 C    1     2.1759     4.1119    5 BR   0 0 0
  17 C    1     2.1834     4.1260    1 H    0 0-1
  17 C    1     2.4067     4.5479   38 C    0 0 0

  21 C    1     1.3492     2.5496   49 N    0 0-1
  21 C    1     1.3553     2.5611   41 N   -1 0-1
  21 C    1     1.4594     2.7579   17 C    0 0 0
  21 C    1     2.2025     4.1620   53 N   -1 0-1
  21 C    1     2.2049     4.1667   45 N   -1 0-1
  21 C    1     2.4633     4.6549   33 C    0 0 0

  25 C    1     1.0950     2.0692    1 H    0 0-1
  25 C    1     1.3970     2.6400   38 C    0 0 0
  25 C    1     1.4070     2.6588   17 C    0 0 0
  25 C    1     2.1723     4.1051    9 H    0 0 0
  25 C    1     2.4118     4.5577   33 C    0 0 0
  25 C    1     2.4219     4.5767   29 C    0 0 0

  29 C    1     1.0959     2.0709   13 H    0 0 0
  29 C    1     1.3493     2.5497   57 N    0 0 0
  29 C    1     1.4046     2.6543   38 C    0 0 0
  29 C    1     2.1620     4.0855    9 H    0 0 0
  29 C    1     2.3056     4.3570   33 C    0 0 0
  29 C    1     2.4219     4.5767   25 C    0 0 0

  33 C    1     1.0945     2.0684    5 BR   0 0 0
  33 C    1     1.3387     2.5298   57 N    0 0 0
  33 C    1     1.4077     2.6602   17 C    0 0 0
  33 C    1     2.3056     4.3570   29 C    0 0 0
  33 C    1     2.4118     4.5577   25 C    0 0 0
  33 C    1     2.4633     4.6549   21 C    0 0 0

  37 C    1     1.0933     2.0660   10 H    0 0 0
  37 C    1     1.3970     2.6400   26 C    0 0 0
  37 C    1     1.4046     2.6543   30 C    0 0 0
  37 C    1     2.1707     4.1021    2 H    1 1 1
  37 C    1     2.1965     4.1508   14 H    0 0 0
  37 C    1     2.4067     4.5479   18 C    0 0 0

  41 N    1     1.3553     2.5611   21 C    1 0 1
  41 N    1     1.3781     2.6042   45 N    0 0 0
  41 N    1     1.9919     3.7642   61 ZN   1 1 0
  41 N    1     2.1855     4.1299   53 N    0 0 0
  41 N    1     2.1874     4.1336   49 N    1 0 0
  41 N    1     2.4882     4.7020   17 C    1 0 1

  45 N    1     1.3160     2.4870   53 N    0 0 0
  45 N    1     1.3781     2.6042   41 N    0 0 0
  45 N    1     2.1869     4.1326   49 N    1 0 0
  45 N    1     2.2049     4.1667   21 C    1 0 1
  45 N    1     2.5126     4.7480    6 BR   0 0 0
  45 N    1     2.9124     5.5037   13 H    0 0 0

  49 N    1     1.3492     2.5496   21 C    0 0 1
  49 N    1     1.3792     2.6063   53 N   -1 0 0
  49 N    1     1.9667     3.7164   62 ZN  -1-1 0
  49 N    1     2.1869     4.1326   45 N   -1 0 0
  49 N    1     2.1874     4.1336   41 N   -1 0 0
  49 N    1     2.5229     4.7676   17 C    0 0 1

  53 N    1     1.3160     2.4870   45 N    0 0 0
  53 N    1     1.3792     2.6063   49 N    1 0 0
  53 N    1     2.1855     4.1299   41 N    0 0 0
  53 N    1     2.2025     4.1620   21 C    1 0 1
  53 N    1     2.5548     4.8279    2 H    1 0 0
  53 N    1     2.8762     5.4352   62 ZN   0-1 0

  57 N    1     1.3387     2.5298   33 C    0 0 0
  57 N    1     1.3493     2.5497   29 C    0 0 0
  57 N    1     2.0667     3.9055    5 BR   0 0 0
  57 N    1     2.0715     3.9145   13 H    0 0 0
  57 N    1     2.4105     4.5552   38 C    0 0 0
  57 N    1     2.4226     4.5781   17 C    0 0 0

  61 ZN   4     1.9919     3.7642   41 N   -1-1 0   42 N    0-1 1   43 N    0-1 0
                                    44 N    0 0 1
  61 ZN   4     2.7756     5.2452    5 BR   0-1 1    6 BR  -1-1 0    7 BR   0 0 1
                                     8 BR   0-1 0
  61 ZN   4     2.9319     5.5406   45 N   -1-1 0   46 N    0-1 1   47 N    0-1 0
                                    48 N    0 0 1
  61 ZN   4     3.0692     5.7999   21 C    0-1 1   22 C   -1-1 0   23 C    0 0 1
                                    24 C    0-1 0
  61 ZN   4     3.2996     6.2354   33 C    0-1 1   34 C   -1-1 0   35 C    0 0 1
                                    36 C    0-1 0
  61 ZN   4     3.5259     6.6629   17 C    0-1 1   18 C   -1-1 0   19 C    0 0 1
                                    20 C    0-1 0

  62 ZN   4     1.9667     3.7164   49 N    1 1 0   50 N    1 1 0   51 N    0 0 0
                                    52 N    0 0 0
  62 ZN   4     2.8762     5.4352   53 N    0 1 0   54 N    1 0 0   55 N    0 0-1
                                    56 N    1 1 1
  62 ZN   4     3.0639     5.7900   21 C    1 1 1   22 C    0 0-1   23 C    0 1 0
                                    24 C    1 0 0
  62 ZN   4     3.0753     5.8115    1 H    1 1 0    2 H    1 1 0    3 H    0 0 0
                                     4 H    0 0 0
  62 ZN   4     3.6307     6.8610   25 C    1 1 1   26 C    0 0-1   27 C    0 1 0
                                    28 C    1 0 0
  62 ZN   4     3.6327     6.8649   17 C    1 1 1   18 C    0 0-1   19 C    0 1 0
                                    20 C    1 0 0


 SYMMETRY ALLOWED ELASTIC DISTORTION 1
  0.5773503  0.0000000  0.0000000
  0.0000000  0.5773503  0.0000000
  0.0000000  0.0000000  0.5773503

 SYMMETRY ALLOWED ELASTIC DISTORTION 2
  0.4082483  0.0000000  0.0000000
  0.0000000  0.4082483  0.0000000
  0.0000000  0.0000000 -0.8164966

 SYMMETRY ALLOWED INTERNAL DEGREE(S) OF FREEDOM:  45
 TTTTTTTTTTTTTTTTTTTTTTTTTTTTTT SYMM        TELAPSE        3.42 TCPU        2.11
 TTTTTTTTTTTTTTTTTTTTTTTTTTTTTT INT_SCREEN  TELAPSE        3.42 TCPU        2.12

 *******************************************************************************
 *                             OPTIMIZATION STARTS                             *
 *******************************************************************************
 RECLASIFICATION OF INDICES FOR INTEGRAL CALC ACCORDING TO DIFFERENT CRITERIA:
           FIXDELTE                  FIXDELTX              FIXDELTN
          0.10000000               0.80000000                 47
 DEFAULT MAX NUM OF POINTS  100
 *******************************************************************************

 *******************************************************************************
 COORDINATE AND CELL OPTIMIZATION - POINT    1
 INFORMATION **** EXCBUF **** EXCH. BIPO BUFFER: WORDS USED =           0

 DFT PARAMETERS

     ATOM       ELECTRONS   NET CHARGE   R(ANGSTROM)
   1   1  H       1.0000      0.0000     1.11000000
   5  35  BR     35.0000      0.0000     1.14000000
  17   6  C       6.0000      0.0000     0.77000000
  41   7  N       7.0000      0.0000     0.74000000
  61  30  ZN     30.0000      0.0000     1.37000000

 SIZE OF GRID=     441100
 TTTTTTTTTTTTTTTTTTTTTTTTTTTTTT MAKE_GRID2  TELAPSE        5.13 TCPU        3.82
 BECKE WEIGHT FUNCTION
 RADSAFE =     2.00
 TOLERANCES - DENSITY:10**- 6; POTENTIAL:10**- 9; GRID WGT:10**-14

 RADIAL INTEGRATION  - INTERVALS (POINTS,UPPER LIMIT):            1( 75,  4.0*R)

 ANGULAR INTEGRATION - INTERVALS (ACCURACY LEVEL [N. POINTS] UPPER LIMIT):
  1(  4[  86]   0.2)  2(  8[ 194]   0.5)  3( 12[ 350]   0.9)  4( 16[ 974]   3.5)
  5( 12[ 350]9999.0)
 TTTTTTTTTTTTTTTTTTTTTTTTTTTTTT INT_CALC    TELAPSE        5.19 TCPU        3.88

 *******************************************************************************
 C:\Users\wilso\AppData\Local\Temp\tmp_p\newconn.mol                             
 CRYSTAL - SCF - TYPE OF CALCULATION :  RESTRICTED CLOSED SHELL
 *******************************************************************************

 CAPPA:IS1  3;IS2  3;IS3  3; K PTS MONK NET   6; SYMMOPS:K SPACE   8;G SPACE   4

 TTTTTTTTTTTTTTTTTTTTTTTTTTTTTT SDIK        TELAPSE        5.41 TCPU        4.09

 AAAAAAAAAAAAAAAAAAAAAAAAAAAAAAAAAAAAAAAAAAAAAAAAAAAAAAAAAAAAAAAAAAAAAAAAAAAAAAA
         ATOMIC WAVEFUNCTION(S)


 NUCLEAR CHARGE  1.0  SYMMETRY SPECIES            S
 N. ELECTRONS    1.0  NUMBER OF PRIMITIVE GTOS    4
                      NUMBER OF CONTRACTED GTOS   2
                      NUMBER OF CLOSED SHELLS     0
                      OPEN SHELL OCCUPATION       1

  ZNUC SCFIT  TOTAL HF ENERGY   KINETIC ENERGY   VIRIAL THEOREM ACCURACY
   1.0   1   -4.946643675E-01  4.917913167E-01 -2.005842012E+00  9.4E-17

 NUCLEAR CHARGE 35.0  SYMMETRY SPECIES            S    P    D
 N. ELECTRONS   35.0  NUMBER OF PRIMITIVE GTOS   14   10    7
                      NUMBER OF CONTRACTED GTOS   5    4    4
                      NUMBER OF CLOSED SHELLS     4    2    1
                      OPEN SHELL OCCUPATION       0    5    0

  ZNUC SCFIT  TOTAL HF ENERGY   KINETIC ENERGY   VIRIAL THEOREM ACCURACY
  35.0  13   -2.572060514E+03  2.572021521E+03 -2.000015161E+00  3.6E-06

 NUCLEAR CHARGE  6.0  SYMMETRY SPECIES            S    P
 N. ELECTRONS    6.0  NUMBER OF PRIMITIVE GTOS    7    4
                      NUMBER OF CONTRACTED GTOS   3    2
                      NUMBER OF CLOSED SHELLS     2    0
                      OPEN SHELL OCCUPATION       0    2

  ZNUC SCFIT  TOTAL HF ENERGY   KINETIC ENERGY   VIRIAL THEOREM ACCURACY
   6.0   6   -3.750912652E+01  3.905246519E+01 -1.960480378E+00  3.7E-06

 NUCLEAR CHARGE  7.0  SYMMETRY SPECIES            S    P
 N. ELECTRONS    7.0  NUMBER OF PRIMITIVE GTOS    7    4
                      NUMBER OF CONTRACTED GTOS   3    2
                      NUMBER OF CLOSED SHELLS     2    0
                      OPEN SHELL OCCUPATION       0    3

  ZNUC SCFIT  TOTAL HF ENERGY   KINETIC ENERGY   VIRIAL THEOREM ACCURACY
   7.0   9   -5.432196661E+01  5.425066284E+01 -2.001314339E+00  1.2E-06

 NUCLEAR CHARGE 30.0  SYMMETRY SPECIES            S    P    D
 N. ELECTRONS   30.0  NUMBER OF PRIMITIVE GTOS   14    9    5
                      NUMBER OF CONTRACTED GTOS   5    3    2
                      NUMBER OF CLOSED SHELLS     4    2    1
                      OPEN SHELL OCCUPATION       0    0    0

  ZNUC SCFIT  TOTAL HF ENERGY   KINETIC ENERGY   VIRIAL THEOREM ACCURACY
  30.0  10   -1.777404290E+03  1.777325716E+03 -2.000044209E+00  2.5E-06

 AAAAAAAAAAAAAAAAAAAAAAAAAAAAAAAAAAAAAAAAAAAAAAAAAAAAAAAAAAAAAAAAAAAAAAAAAAAAAAA

 CHARGE NORMALIZATION FACTOR   1.00000000
 TOTAL ATOMIC CHARGES:
   1.0000000   1.0000000   1.0000000   1.0000000  35.0000000  35.0000000
  35.0000000  35.0000000   1.0000000   1.0000000   1.0000000   1.0000000
   1.0000000   1.0000000   1.0000000   1.0000000   6.0000000   6.0000000
   6.0000000   6.0000000   6.0000000   6.0000000   6.0000000   6.0000000
   6.0000000   6.0000000   6.0000000   6.0000000   6.0000000   6.0000000
   6.0000000   6.0000000   6.0000000   6.0000000   6.0000000   6.0000000
   6.0000000   6.0000000   6.0000000   6.0000000   7.0000000   7.0000000
   7.0000000   7.0000000   7.0000000   7.0000000   7.0000000   7.0000000
   7.0000000   7.0000000   7.0000000   7.0000000   7.0000000   7.0000000
   7.0000000   7.0000000   7.0000000   7.0000000   7.0000000   7.0000000
  30.0000000  30.0000000
 TTTTTTTTTTTTTTTTTTTTTTTTTTTTTT MOQGAD      TELAPSE        7.14 TCPU        5.81
 TTTTTTTTTTTTTTTTTTTTTTTTTTTTTT SHELLXN     TELAPSE      121.26 TCPU      113.36
 TTTTTTTTTTTTTTTTTTTTTTTTTTTTTT MONMO3      TELAPSE      123.78 TCPU      115.87
 NUMERICALLY INTEGRATED DENSITY    496.0000278933
 TTTTTTTTTTTTTTTTTTTTTTTTTTTTTT NUMDFT      TELAPSE      126.50 TCPU      118.58
 CYC   0 ETOT(AU) -1.587516422925E+04 DETOT -1.59E+04 tst  0.00E+00 PX  1.00E+00
 TTTTTTTTTTTTTTTTTTTTTTTTTTTTTT DIIS        TELAPSE      126.60 TCPU      118.67
 TTTTTTTTTTTTTTTTTTTTTTTTTTTTTT FDIK        TELAPSE      169.29 TCPU      154.94
 INSULATING STATE
 TOP OF VALENCE BANDS -    BAND    248; K    4; EIG -1.3238128E-01 AU
 TOP OF VALENCE BANDS -    BAND    248; K    1; EIG -1.3255935E-01 AU
 BOTTOM OF VIRTUAL BANDS - BAND    249; K    2; EIG -1.1380191E-01 AU
 INDIRECT ENERGY BAND GAP:   0.5056 eV
 BOTTOM OF VIRTUAL BANDS - BAND    249; K    1; EIG -1.1258438E-01 AU
 TTTTTTTTTTTTTTTTTTTTTTTTTTTTTT PDIG        TELAPSE      170.07 TCPU      155.73
 CHARGE NORMALIZATION FACTOR   1.00000000
 TOTAL ATOMIC CHARGES:
   1.1623263   1.1623263   1.1623263   1.1623263  34.1491030  34.1491030
  34.1491030  34.1491030   1.0850783   1.0850783   1.0850783   1.0850783
   1.2465622   1.2465622   1.2465622   1.2465622   5.9766100   5.9766100
   5.9766100   5.9766100   5.5003954   5.5003954   5.5003954   5.5003954
   6.0780476   6.0780476   6.0780476   6.0780476   5.6952257   5.6952257
   5.6952257   5.6952257   6.6532951   6.6532951   6.6532951   6.6532951
   6.1117097   6.1117097   6.1117097   6.1117097   7.3649512   7.3649512
   7.3649512   7.3649512   7.1690718   7.1690718   7.1690718   7.1690718
   7.3628040   7.3628040   7.3628040   7.3628040   7.1689347   7.1689347
   7.1689347   7.1689347   7.5240331   7.5240331   7.5240331   7.5240331
  27.2877919  27.7196152
 TTTTTTTTTTTTTTTTTTTTTTTTTTTTTT MOQGAD      TELAPSE      170.13 TCPU      155.78
 TTTTTTTTTTTTTTTTTTTTTTTTTTTTTT SHELLXN     TELAPSE      294.34 TCPU      279.56
 TTTTTTTTTTTTTTTTTTTTTTTTTTTTTT MONMO3      TELAPSE      299.86 TCPU      285.06
 NUMERICALLY INTEGRATED DENSITY    496.0000084176
 TTTTTTTTTTTTTTTTTTTTTTTTTTTTTT NUMDFT      TELAPSE      307.98 TCPU      293.15
 CYC   1 ETOT(AU) -1.585718833145E+04 DETOT  1.80E+01 tst  0.00E+00 PX  1.00E+00
 TTTTTTTTTTTTTTTTTTTTTTTTTTTTTT DIIS        TELAPSE      308.15 TCPU      293.33
 DIIS TEST: 0.23961E+02 AT SCF   CYCLE   1 - MIX   30 %
 TTTTTTTTTTTTTTTTTTTTTTTTTTTTTT FDIK        TELAPSE      322.26 TCPU      305.01
 POSSIBLY CONDUCTING STATE - EFERMI(AU) -1.2940649E-01 (RES. CHARGE  7.25E-10;IT. 16)
 TTTTTTTTTTTTTTTTTTTTTTTTTTTTTT PDIG        TELAPSE      323.03 TCPU      305.77
 CHARGE NORMALIZATION FACTOR   1.00000000
 TOTAL ATOMIC CHARGES:
   1.1699125   1.1699125   1.1699125   1.1699125  35.1676973  35.1676973
  35.1676973  35.1676973   1.1225826   1.1225826   1.1225826   1.1225826
   1.1128722   1.1128722   1.1128722   1.1128722   6.3242150   6.3242150
   6.3242150   6.3242150   6.4876147   6.4876147   6.4876147   6.4876147
   6.1665588   6.1665588   6.1665588   6.1665588   5.9776382   5.9776382
   5.9776382   5.9776382   6.2020648   6.2020648   6.2020648   6.2020648
   5.6271952   5.6271952   5.6271952   5.6271952   7.7500964   7.7500964
   7.7500964   7.7500964   7.0572529   7.0572529   7.0572529   7.0572529
   7.0639303   7.0639303   7.0639303   7.0639303   6.7123937   6.7123937
   6.7123937   6.7123937   4.4034493   4.4034493   4.4034493   4.4034493
  32.6823741  29.9357306
 TTTTTTTTTTTTTTTTTTTTTTTTTTTTTT MOQGAD      TELAPSE      323.08 TCPU      305.83
 TTTTTTTTTTTTTTTTTTTTTTTTTTTTTT SHELLXN     TELAPSE      448.74 TCPU      430.22
 TTTTTTTTTTTTTTTTTTTTTTTTTTTTTT MONMO3      TELAPSE      453.82 TCPU      435.28
 NUMERICALLY INTEGRATED DENSITY    496.0000036010
 TTTTTTTTTTTTTTTTTTTTTTTTTTTTTT NUMDFT      TELAPSE      461.85 TCPU      443.29
 CYC   2 ETOT(AU) -1.584034779038E+04 DETOT  1.68E+01 tst  3.18E-01 PX  4.59E+00
 TTTTTTTTTTTTTTTTTTTTTTTTTTTTTT DIIS        TELAPSE      462.03 TCPU      443.47
 DIIS TEST: 0.12957E+03 AT SCF   CYCLE   2 - DIIS ACTIVE - HISTORY:     2 CYCLES
 TTTTTTTTTTTTTTTTTTTTTTTTTTTTTT FDIK        TELAPSE      474.87 TCPU      456.19
 INSULATING STATE
 TOP OF VALENCE BANDS -    BAND    248; K    6; EIG -1.7120293E-01 AU
 TOP OF VALENCE BANDS -    BAND    248; K    1; EIG -1.7260727E-01 AU
 BOTTOM OF VIRTUAL BANDS - BAND    249; K    2; EIG -1.1286666E-01 AU
 INDIRECT ENERGY BAND GAP:   1.5874 eV
 BOTTOM OF VIRTUAL BANDS - BAND    249; K    1; EIG -1.1196987E-01 AU
 TTTTTTTTTTTTTTTTTTTTTTTTTTTTTT PDIG        TELAPSE      475.63 TCPU      456.94
 CHARGE NORMALIZATION FACTOR   1.00000000
 TOTAL ATOMIC CHARGES:
   1.1291446   1.1291446   1.1291446   1.1291446  34.5961317  34.5961317
  34.5961317  34.5961317   0.9923470   0.9923470   0.9923470   0.9923470
   1.1949441   1.1949441   1.1949441   1.1949441   5.8922843   5.8922843
   5.8922843   5.8922843   6.0854626   6.0854626   6.0854626   6.0854626
   5.9409539   5.9409539   5.9409539   5.9409539   6.4733953   6.4733953
   6.4733953   6.4733953   5.9724085   5.9724085   5.9724085   5.9724085
   5.7526500   5.7526500   5.7526500   5.7526500   6.2613993   6.2613993
   6.2613993   6.2613993   6.9908270   6.9908270   6.9908270   6.9908270
   6.7940983   6.7940983   6.7940983   6.7940983   7.0984941   7.0984941
   7.0984941   7.0984941   7.8284372   7.8284372   7.8284372   7.8284372
  30.0484834  29.9396054
 TTTTTTTTTTTTTTTTTTTTTTTTTTTTTT MOQGAD      TELAPSE      475.69 TCPU      457.00
 TTTTTTTTTTTTTTTTTTTTTTTTTTTTTT SHELLXN     TELAPSE      600.46 TCPU      581.21
 TTTTTTTTTTTTTTTTTTTTTTTTTTTTTT MONMO3      TELAPSE      605.55 TCPU      586.28
 NUMERICALLY INTEGRATED DENSITY    496.0000325895
 TTTTTTTTTTTTTTTTTTTTTTTTTTTTTT NUMDFT      TELAPSE      613.83 TCPU      594.52
 CYC   3 ETOT(AU) -1.585644992208E+04 DETOT -1.61E+01 tst  1.47E-01 PX  3.74E+00
 TTTTTTTTTTTTTTTTTTTTTTTTTTTTTT DIIS        TELAPSE      614.01 TCPU      594.71
 DIIS TEST: 0.23544E+02 AT SCF   CYCLE   3 - DIIS ACTIVE - HISTORY:     3 CYCLES
 TTTTTTTTTTTTTTTTTTTTTTTTTTTTTT FDIK        TELAPSE      630.51 TCPU      607.53
 INSULATING STATE
 TOP OF VALENCE BANDS -    BAND    248; K    1; EIG -1.8037379E-01 AU
 BOTTOM OF VIRTUAL BANDS - BAND    249; K    1; EIG -1.1314853E-01 AU
 DIRECT ENERGY BAND GAP:   1.8293 eV
 TTTTTTTTTTTTTTTTTTTTTTTTTTTTTT PDIG        TELAPSE      631.28 TCPU      608.29
 CHARGE NORMALIZATION FACTOR   1.00000000
 TOTAL ATOMIC CHARGES:
   1.0654546   1.0654546   1.0654546   1.0654546  34.6309383  34.6309383
  34.6309383  34.6309383   1.0419526   1.0419526   1.0419526   1.0419526
   1.2292168   1.2292168   1.2292168   1.2292168   6.2349024   6.2349024
   6.2349024   6.2349024   5.6651133   5.6651133   5.6651133   5.6651133
   6.0988300   6.0988300   6.0988300   6.0988300   5.5914723   5.5914723
   5.5914723   5.5914723   6.2799695   6.2799695   6.2799695   6.2799695
   6.1623267   6.1623267   6.1623267   6.1623267   7.4904121   7.4904121
   7.4904121   7.4904121   7.1641358   7.1641358   7.1641358   7.1641358
   7.1019024   7.1019024   7.1019024   7.1019024   6.9635255   6.9635255
   6.9635255   6.9635255   6.9654654   6.9654654   6.9654654   6.9654654
  28.5678623  28.6896666
 TTTTTTTTTTTTTTTTTTTTTTTTTTTTTT MOQGAD      TELAPSE      631.33 TCPU      608.34
 TTTTTTTTTTTTTTTTTTTTTTTTTTTTTT SHELLXN     TELAPSE      758.77 TCPU      733.10
 TTTTTTTTTTTTTTTTTTTTTTTTTTTTTT MONMO3      TELAPSE      762.75 TCPU      737.06
 NUMERICALLY INTEGRATED DENSITY    495.9999922876
 TTTTTTTTTTTTTTTTTTTTTTTTTTTTTT NUMDFT      TELAPSE      771.06 TCPU      745.34
 CYC   4 ETOT(AU) -1.585983069266E+04 DETOT -3.38E+00 tst  4.32E-02 PX  8.94E-01
 TTTTTTTTTTTTTTTTTTTTTTTTTTTTTT DIIS        TELAPSE      771.24 TCPU      745.51
 DIIS TEST: 0.41585E+01 AT SCF   CYCLE   4 - DIIS ACTIVE - HISTORY:     4 CYCLES
 TTTTTTTTTTTTTTTTTTTTTTTTTTTTTT FDIK        TELAPSE      786.03 TCPU      758.14
 INSULATING STATE
 TOP OF VALENCE BANDS -    BAND    248; K    1; EIG -1.6664520E-01 AU
 BOTTOM OF VIRTUAL BANDS - BAND    249; K    1; EIG -1.2099641E-01 AU
 DIRECT ENERGY BAND GAP:   1.2422 eV
 TTTTTTTTTTTTTTTTTTTTTTTTTTTTTT PDIG        TELAPSE      786.79 TCPU      758.89
 CHARGE NORMALIZATION FACTOR   1.00000000
 TOTAL ATOMIC CHARGES:
   1.1059073   1.1059073   1.1059073   1.1059073  34.4598156  34.4598156
  34.4598156  34.4598156   1.0514082   1.0514082   1.0514082   1.0514082
   1.1946093   1.1946093   1.1946093   1.1946093   5.9676320   5.9676320
   5.9676320   5.9676320   5.7725828   5.7725828   5.7725828   5.7725828
   6.1313532   6.1313532   6.1313532   6.1313532   6.0170433   6.0170433
   6.0170433   6.0170433   6.3538907   6.3538907   6.3538907   6.3538907
   5.9230809   5.9230809   5.9230809   5.9230809   7.1451667   7.1451667
   7.1451667   7.1451667   6.9583960   6.9583960   6.9583960   6.9583960
   7.3418050   7.3418050   7.3418050   7.3418050   7.2024819   7.2024819
   7.2024819   7.2024819   6.9474421   6.9474421   6.9474421   6.9474421
  28.9091489  28.8003914
 TTTTTTTTTTTTTTTTTTTTTTTTTTTTTT MOQGAD      TELAPSE      786.84 TCPU      758.94
 TTTTTTTTTTTTTTTTTTTTTTTTTTTTTT SHELLXN     TELAPSE      911.71 TCPU      883.17
 TTTTTTTTTTTTTTTTTTTTTTTTTTTTTT MONMO3      TELAPSE      919.14 TCPU      890.57
 NUMERICALLY INTEGRATED DENSITY    495.9999977381
 TTTTTTTTTTTTTTTTTTTTTTTTTTTTTT NUMDFT      TELAPSE      927.29 TCPU      898.70
 CYC   5 ETOT(AU) -1.586025343581E+04 DETOT -4.23E-01 tst  1.24E-03 PX  2.11E-01
 TTTTTTTTTTTTTTTTTTTTTTTTTTTTTT DIIS        TELAPSE      927.46 TCPU      898.88
 DIIS TEST: 0.14250E+01 AT SCF   CYCLE   5 - DIIS ACTIVE - HISTORY:     5 CYCLES
 TTTTTTTTTTTTTTTTTTTTTTTTTTTTTT FDIK        TELAPSE      938.00 TCPU      909.27
 INSULATING STATE
 TOP OF VALENCE BANDS -    BAND    248; K    1; EIG -1.7822752E-01 AU
 BOTTOM OF VIRTUAL BANDS - BAND    249; K    1; EIG -1.2165795E-01 AU
 DIRECT ENERGY BAND GAP:   1.5393 eV
 TTTTTTTTTTTTTTTTTTTTTTTTTTTTTT PDIG        TELAPSE      938.76 TCPU      910.02
 CHARGE NORMALIZATION FACTOR   1.00000000
 TOTAL ATOMIC CHARGES:
   1.0902767   1.0902767   1.0902767   1.0902767  34.5658123  34.5658123
  34.5658123  34.5658123   1.0313977   1.0313977   1.0313977   1.0313977
   1.1924729   1.1924729   1.1924729   1.1924729   6.0585472   6.0585472
   6.0585472   6.0585472   5.8355251   5.8355251   5.8355251   5.8355251
   6.0500187   6.0500187   6.0500187   6.0500187   5.9056802   5.9056802
   5.9056802   5.9056802   6.3298525   6.3298525   6.3298525   6.3298525
   5.9605658   5.9605658   5.9605658   5.9605658   7.2721252   7.2721252
   7.2721252   7.2721252   7.2005209   7.2005209   7.2005209   7.2005209
   6.9734853   6.9734853   6.9734853   6.9734853   6.9408968   6.9408968
   6.9408968   6.9408968   7.1341952   7.1341952   7.1341952   7.1341952
  28.9608097  28.8736998
 TTTTTTTTTTTTTTTTTTTTTTTTTTTTTT MOQGAD      TELAPSE      938.82 TCPU      910.08
 TTTTTTTTTTTTTTTTTTTTTTTTTTTTTT SHELLXN     TELAPSE     1063.45 TCPU     1034.26
 TTTTTTTTTTTTTTTTTTTTTTTTTTTTTT MONMO3      TELAPSE     1068.67 TCPU     1039.46
 NUMERICALLY INTEGRATED DENSITY    495.9999997797
 TTTTTTTTTTTTTTTTTTTTTTTTTTTTTT NUMDFT      TELAPSE     1076.87 TCPU     1047.63
 CYC   6 ETOT(AU) -1.586037800369E+04 DETOT -1.25E-01 tst  1.69E-03 PX  1.09E-01
 TTTTTTTTTTTTTTTTTTTTTTTTTTTTTT DIIS        TELAPSE     1077.07 TCPU     1047.83
 DIIS TEST: 0.69063E+00 AT SCF   CYCLE   6 - DIIS ACTIVE - HISTORY:     6 CYCLES
 TTTTTTTTTTTTTTTTTTTTTTTTTTTTTT FDIK        TELAPSE     1087.52 TCPU     1058.14
 INSULATING STATE
 TOP OF VALENCE BANDS -    BAND    248; K    1; EIG -1.7601369E-01 AU
 BOTTOM OF VIRTUAL BANDS - BAND    249; K    1; EIG -1.1592764E-01 AU
 DIRECT ENERGY BAND GAP:   1.6350 eV
 TTTTTTTTTTTTTTTTTTTTTTTTTTTTTT PDIG        TELAPSE     1088.28 TCPU     1058.90
 CHARGE NORMALIZATION FACTOR   1.00000000
 TOTAL ATOMIC CHARGES:
   1.0843754   1.0843754   1.0843754   1.0843754  34.5634748  34.5634748
  34.5634748  34.5634748   1.0297599   1.0297599   1.0297599   1.0297599
   1.2035157   1.2035157   1.2035157   1.2035157   6.1427619   6.1427619
[...]
  61 ZN   4     2.9497     5.5742   45 N   -1-1 0   46 N    0-1 1   47 N    0-1 0
                                    48 N    0 0 1
  61 ZN   4     3.1701     5.9907   21 C    0-1 1   22 C   -1-1 0   23 C    0 0 1
                                    24 C    0-1 0
  61 ZN   4     3.6047     6.8118   33 C    0-1 1   34 C   -1-1 0   35 C    0 0 1
                                    36 C    0-1 0
  61 ZN   4     3.6463     6.8906   17 C    0-1 1   18 C   -1-1 0   19 C    0 0 1
                                    20 C    0-1 0
  61 ZN   4     3.7058     7.0029    5 BR   0-1 1    6 BR  -1-1 0    7 BR   0 0 1
                                     8 BR   0-1 0

  62 ZN   4     2.0173     3.8121   49 N    1 1 0   50 N    1 1 0   51 N    0 0 0
                                    52 N    0 0 0
  62 ZN   4     2.9084     5.4962   53 N    0 1 0   54 N    1 0 0   55 N    0 0-1
                                    56 N    1 1 1
  62 ZN   4     3.1424     5.9382   21 C    1 1 1   22 C    0 0-1   23 C    0 1 0
                                    24 C    1 0 0
  62 ZN   4     3.4877     6.5908    1 H    1 1 0    2 H    1 1 0    3 H    0 0 0
                                     4 H    0 0 0
  62 ZN   4     3.7328     7.0539   17 C    1 1 1   18 C    0 0-1   19 C    0 1 0
                                    20 C    1 0 0
  62 ZN   4     3.9541     7.4722   25 C    1 1 1   26 C    0 0-1   27 C    0 1 0
                                    28 C    1 0 0


 FINAL OPTIMIZED GEOMETRY - DIMENSIONALITY OF THE SYSTEM      3
 (NON PERIODIC DIRECTION: LATTICE PARAMETER FORMALLY SET TO 500)
 *******************************************************************************
 LATTICE PARAMETERS (ANGSTROMS AND DEGREES) - BOHR = 0.5291772083 ANGSTROM
 PRIMITIVE CELL - CENTRING CODE 6/0 VOLUME=   740.377017 - DENSITY  2.296 g/cm^3
         A              B              C           ALPHA      BETA       GAMMA 
    10.26977815    10.26977815    10.26977815   122.070477 122.070477  86.449744
 *******************************************************************************
 ATOMS IN THE ASYMMETRIC UNIT   17 - ATOMS IN THE UNIT CELL:   62
     ATOM                 X/A                 Y/B                 Z/C    
 *******************************************************************************
      1 T   1 H    -9.201332575991E-02 -2.864442048135E-01  2.926576017820E-01
      2 F   1 H     4.208981934044E-01 -3.846709275419E-01 -2.926576017820E-01
      3 F   1 H     2.864442048135E-01 -4.208981934044E-01  1.944308790536E-01
      4 F   1 H     3.846709275419E-01  9.201332575991E-02 -1.944308790536E-01
      5 T  35 BR   -2.987756515123E-01  2.975786398491E-02 -3.291619495569E-01
      6 F  35 BR    3.589198135418E-01  3.038629804457E-02  3.291619495569E-01
      7 F  35 BR   -2.975786398491E-02 -3.589198135418E-01 -3.285335154973E-01
      8 F  35 BR   -3.038629804457E-02  2.987756515123E-01  3.285335154973E-01
      9 T   1 H     1.817862662339E-01 -2.075921249939E-01 -4.103249558138E-01
     10 F   1 H     2.027328308199E-01 -4.078887779523E-01  4.103249558138E-01
     11 F   1 H     2.075921249939E-01 -2.027328308199E-01  3.893783912278E-01
     12 F   1 H     4.078887779523E-01 -1.817862662339E-01 -3.893783912278E-01
     13 T   1 H     2.485074444718E-01  1.922649470425E-02 -9.033539368210E-02
     14 F   1 H     1.095618883863E-01  3.388428381539E-01  9.033539368210E-02
     15 F   1 H    -1.922649470425E-02 -1.095618883863E-01  2.292809497675E-01
     16 F   1 H    -3.388428381539E-01 -2.485074444718E-01 -2.292809497675E-01
     17 T   6 C    -1.742801235982E-01 -1.187474777361E-01  4.540578502440E-01
     18 F   6 C     4.271946720198E-01  3.716620261578E-01 -4.540578502440E-01
     19 F   6 C     1.187474777361E-01 -4.271946720198E-01 -5.553264586206E-02
     20 F   6 C    -3.716620261578E-01  1.742801235982E-01  5.553264586206E-02
     21 T   6 C    -3.191519468158E-01 -1.272104180225E-01  2.970078736810E-01
     22 F   6 C    -4.242182917035E-01  3.838401795033E-01 -2.970078736810E-01
     23 F   6 C     1.272104180225E-01  4.242182917035E-01 -1.919415287933E-01
     24 F   6 C    -3.838401795033E-01  3.191519468158E-01  1.919415287933E-01
     25 T   6 C    -6.052057244130E-02 -1.940538104495E-01  4.345207248708E-01
     26 F   6 C     3.714254646797E-01 -4.950412973121E-01 -4.345207248708E-01
     27 F   6 C     1.940538104495E-01 -3.714254646797E-01  1.335332380082E-01
     28 F   6 C     4.950412973121E-01  6.052057244130E-02 -1.335332380082E-01
     29 T   6 C     1.291515223492E-01 -2.606272700574E-02 -2.231521603510E-01
     30 F   6 C     1.970894333453E-01  3.523036827002E-01  2.231521603510E-01
     31 F   6 C     2.606272700574E-02 -1.970894333453E-01  1.552142493549E-01
     32 F   6 C    -3.523036827002E-01 -1.291515223492E-01 -1.552142493549E-01
     33 T   6 C    -1.314284373240E-01 -1.692368633623E-02 -3.596459416108E-01
     34 F   6 C     3.427222552746E-01  2.282175042869E-01  3.596459416108E-01
     35 F   6 C     1.692368633623E-02 -3.427222552746E-01 -1.145047509877E-01
     36 F   6 C    -2.282175042869E-01  1.314284373240E-01  1.145047509877E-01
     37 T   6 C     2.530811365213E-01  4.936733224561E-01  4.020663578376E-01
     38 F   6 C     9.160696461852E-02 -1.489852213163E-01 -4.020663578376E-01
     39 F   6 C    -4.936733224561E-01 -9.160696461852E-02 -2.405921859348E-01
     40 F   6 C     1.489852213163E-01 -2.530811365213E-01  2.405921859348E-01
     41 T   7 N    -3.440098691613E-01  4.530285694176E-03  2.969560888786E-01
     42 F   7 N    -2.924258031844E-01  3.590340419601E-01 -2.969560888786E-01
     43 F   7 N    -4.530285694176E-03  2.924258031844E-01 -3.485401548555E-01
     44 F   7 N    -3.590340419601E-01  3.440098691613E-01  3.485401548555E-01
     45 T   7 N    -4.806125944001E-01 -5.144267968704E-02  1.192895964218E-01
     46 F   7 N    -1.707322761088E-01  4.000978091782E-01 -1.192895964218E-01
     47 F   7 N     5.144267968704E-02  1.707322761088E-01 -4.291699147130E-01
     48 F   7 N    -4.000978091782E-01  4.806125944001E-01  4.291699147130E-01
     49 T   7 N    -4.385529822623E-01 -2.604033446144E-01  1.262554128083E-01
     50 F   7 N    -3.866587574227E-01  4.351916049295E-01 -1.262554128083E-01
     51 F   7 N     2.604033446144E-01  3.866587574227E-01 -1.781496376478E-01
     52 F   7 N    -4.351916049295E-01  4.385529822623E-01  1.781496376478E-01
     53 T   7 N     4.626956487767E-01 -2.096344068983E-01  1.648265253623E-02
     54 F   7 N    -2.261170594346E-01  4.462129962404E-01 -1.648265253623E-02
     55 F   7 N     2.096344068983E-01  2.261170594346E-01 -3.276699443250E-01
     56 F   7 N    -4.462129962404E-01 -4.626956487767E-01  3.276699443250E-01
     57 T   7 N     1.539128566561E-02  3.453509102165E-02 -2.049347436304E-01
     58 F   7 N     2.394698346521E-01  2.203260292960E-01  2.049347436304E-01
     59 F   7 N    -3.453509102165E-02 -2.394698346521E-01 -1.914380535604E-02
     60 F   7 N    -2.203260292960E-01 -1.539128566561E-02  1.914380535604E-02
     61 T  30 ZN   -2.500000000000E-01  2.500000000000E-01  5.000000000000E-01
     62 T  30 ZN   -5.000000000000E-01 -5.000000000000E-01  4.439034659736E-19

 TRANSFORMATION MATRIX PRIMITIVE-CRYSTALLOGRAPHIC CELL
  0.0000  1.0000  1.0000  1.0000  0.0000  1.0000  1.0000  1.0000  0.0000

 *******************************************************************************
 CRYSTALLOGRAPHIC CELL (VOLUME=       1480.75403419)
         A              B              C           ALPHA      BETA       GAMMA 
     9.94672412     9.94672412    14.96658716    90.000000  90.000000  90.000000

 COORDINATES IN THE CRYSTALLOGRAPHIC CELL
     ATOM                 X/A                 Y/B                 Z/C    
 *******************************************************************************
      1 T   1 H     4.911336136419E-02  2.435442404178E-01 -3.355575661777E-01
      2 F   1 H    -4.911336136419E-02 -2.435442404178E-01 -3.355575661777E-01
      3 F   1 H     2.435442404178E-01 -4.911336136419E-02  3.355575661777E-01
      4 F   1 H    -2.435442404178E-01  4.911336136419E-02  3.355575661777E-01
      5 T  35 BR   -3.142170298311E-04 -3.288477325271E-01  3.007208101474E-02
      6 F  35 BR    3.142170298311E-04  3.288477325271E-01  3.007208101474E-02
      7 F  35 BR   -3.288477325271E-01  3.142170298311E-04 -3.007208101474E-02
      8 F  35 BR    3.288477325271E-01 -3.142170298311E-04 -3.007208101474E-02
      9 T   1 H    -3.998516735208E-01 -1.047328229303E-02  1.922595485269E-01
     10 F   1 H     3.998516735208E-01  1.047328229303E-02  1.922595485269E-01
     11 F   1 H    -1.047328229303E-02  3.998516735208E-01 -1.922595485269E-01
     12 F   1 H     1.047328229303E-02 -3.998516735208E-01 -1.922595485269E-01
     13 T   1 H    -1.598081717248E-01  6.947277804271E-02  1.790346664291E-01
     14 F   1 H     1.598081717248E-01 -6.947277804271E-02  1.790346664291E-01
     15 F   1 H     6.947277804271E-02  1.598081717248E-01 -1.790346664291E-01
     16 F   1 H    -6.947277804271E-02 -1.598081717248E-01 -1.790346664291E-01
     17 T   6 C    -2.452047519470E-01 -3.007373978090E-01  1.264572742108E-01
     18 F   6 C     2.452047519470E-01  3.007373978090E-01  1.264572742108E-01
     19 F   6 C    -3.007373978090E-01  2.452047519470E-01 -1.264572742108E-01
     20 F   6 C     3.007373978090E-01 -2.452047519470E-01 -1.264572742108E-01
     21 T   6 C    -2.555252987629E-01 -4.474668275562E-01  1.283148807404E-01
     22 F   6 C     2.555252987629E-01  4.474668275562E-01  1.283148807404E-01
     23 F   6 C    -4.474668275562E-01  2.555252987629E-01 -1.283148807404E-01
     24 F   6 C     4.474668275562E-01 -2.555252987629E-01 -1.283148807404E-01
     25 T   6 C    -3.495062565687E-01 -2.159730185605E-01  1.554524461192E-01
     26 F   6 C     3.495062565687E-01  2.159730185605E-01  1.554524461192E-01
     27 F   6 C    -2.159730185605E-01  3.495062565687E-01 -1.554524461192E-01
     28 F   6 C     2.159730185605E-01 -3.495062565687E-01 -1.554524461192E-01
     29 T   6 C    -1.891832048530E-01 -3.396895549805E-02  1.631204778472E-01
     30 F   6 C     1.891832048530E-01  3.396895549805E-02  1.631204778472E-01
     31 F   6 C    -3.396895549805E-02  1.891832048530E-01 -1.631204778472E-01
     32 F   6 C     3.396895549805E-02 -1.891832048530E-01 -1.631204778472E-01
     33 T   6 C    -1.225705953115E-01 -2.370753462993E-01  1.056469089753E-01
     34 F   6 C     1.225705953115E-01  2.370753462993E-01  1.056469089753E-01
     35 F   6 C    -2.370753462993E-01  1.225705953115E-01 -1.056469089753E-01
     36 F   6 C     2.370753462993E-01 -1.225705953115E-01 -1.056469089753E-01
     37 T   6 C     3.213292718862E-01  8.073708595139E-02  1.723440505699E-01
     38 F   6 C    -3.213292718862E-01 -8.073708595139E-02  1.723440505699E-01
     39 F   6 C     8.073708595139E-02 -3.213292718862E-01 -1.723440505699E-01
     40 F   6 C    -8.073708595139E-02  3.213292718862E-01 -1.723440505699E-01
     41 T   7 N    -1.772518781330E-01  4.742079670115E-01  1.817821638271E-01
     42 F   7 N     1.772518781330E-01 -4.742079670115E-01  1.817821638271E-01
     43 F   7 N     4.742079670115E-01  1.772518781330E-01 -1.817821638271E-01
     44 F   7 N    -4.742079670115E-01 -1.772518781330E-01 -1.817821638271E-01
     45 T   7 N    -2.257702444326E-01  3.450598408544E-01  1.743275647456E-01
     46 F   7 N     2.257702444326E-01 -3.450598408544E-01  1.743275647456E-01
     47 F   7 N     3.450598408544E-01  2.257702444326E-01 -1.743275647456E-01
     48 F   7 N    -3.450598408544E-01 -2.257702444326E-01 -1.743275647456E-01
     49 T   7 N     1.522025252281E-01 -2.594711241980E-02 -4.126058698425E-01
     50 F   7 N    -1.522025252281E-01  2.594711241980E-02 -4.126058698425E-01
     51 F   7 N    -2.594711241980E-02 -1.522025252281E-01  4.126058698425E-01
     52 F   7 N     2.594711241980E-02  1.522025252281E-01  4.126058698425E-01
     53 T   7 N    -3.279237015694E-01  3.444063541056E-01  1.182892946711E-01
     54 F   7 N     3.279237015694E-01 -3.444063541056E-01  1.182892946711E-01
     55 F   7 N     3.444063541056E-01  3.279237015694E-01 -1.182892946711E-01
     56 F   7 N    -3.444063541056E-01 -3.279237015694E-01 -1.182892946711E-01
     57 T   7 N    -9.289546913720E-02 -1.120392744932E-01  1.274305601588E-01
     58 F   7 N     9.289546913720E-02  1.120392744932E-01  1.274305601588E-01
     59 F   7 N    -1.120392744932E-01  9.289546913720E-02 -1.274305601588E-01
     60 F   7 N     1.120392744932E-01 -9.289546913720E-02 -1.274305601588E-01
     61 T  30 ZN    4.626932236752E-17  5.000000000000E-01  2.500000000000E-01
     62 T  30 ZN    0.000000000000E+00  4.439034659736E-19 -5.000000000000E-01

 T = ATOM BELONGING TO THE ASYMMETRIC UNIT
 INFORMATION **** fort.34 **** GEOMETRY OUTPUT FILE

 DIRECT LATTICE VECTORS CARTESIAN COMPONENTS (ANGSTROM)
          X                    Y                    Z
  -0.497336206116E+01   0.497336206116E+01   0.748329357785E+01
   0.497336206116E+01  -0.497336206116E+01   0.748329357785E+01
   0.497336206116E+01   0.497336206116E+01  -0.748329357785E+01


 CARTESIAN COORDINATES - PRIMITIVE CELL
 *******************************************************************************
 *      ATOM          X(ANGSTROM)         Y(ANGSTROM)         Z(ANGSTROM)
 *******************************************************************************
    1     1 H     4.885170562096E-01  2.422467371017E+00 -5.022151559952E+00
    2     1 H    -4.885170562096E-01 -2.422467371017E+00 -5.022151559952E+00
    3     1 H     2.422467371017E+00 -4.885170562096E-01  5.022151559952E+00
    4     1 H    -2.422467371017E+00  4.885170562096E-01  5.022151559952E+00
    5    35 BR   -3.125430110267E-03 -3.270957673699E+00  4.500764214602E-01
    6    35 BR    3.125430110266E-03  3.270957673699E+00  4.500764214602E-01
    7    35 BR   -3.270957673699E+00  3.125430110266E-03 -4.500764214602E-01
    8    35 BR    3.270957673699E+00 -3.125430110267E-03 -4.500764214602E-01
    9     1 H    -3.977214286362E+00 -1.041748496240E-01  2.877469289543E+00
   10     1 H     3.977214286362E+00  1.041748496240E-01  2.877469289543E+00
   11     1 H    -1.041748496240E-01  3.977214286362E+00 -2.877469289543E+00
   12     1 H     1.041748496240E-01 -3.977214286362E+00 -2.877469289543E+00
   13     1 H    -1.589567796640E+00  6.910265572024E-01  2.679537939001E+00
   14     1 H     1.589567796640E+00 -6.910265572024E-01  2.679537939001E+00
   15     1 H     6.910265572024E-01  1.589567796640E+00 -2.679537939001E+00
   16     1 H    -6.910265572024E-01 -1.589567796640E+00 -2.679537939001E+00
   17     6 C    -2.438984021100E+00 -2.991351929272E+00  1.892633815948E+00
   18     6 C     2.438984021100E+00  2.991351929272E+00  1.892633815948E+00
   19     6 C    -2.991351929272E+00  2.438984021100E+00 -1.892633815948E+00
   20     6 C     2.991351929272E+00 -2.438984021100E+00 -1.892633815948E+00
   21     6 C    -2.541639653069E+00 -4.450829087593E+00  1.920435845973E+00
   22     6 C     2.541639653069E+00  4.450829087593E+00  1.920435845973E+00
   23     6 C    -4.450829087593E+00  2.541639653069E+00 -1.920435845973E+00
   24     6 C     4.450829087593E+00 -2.541639653069E+00 -1.920435845973E+00
   25     6 C    -3.476442313115E+00 -2.148224033487E+00  2.326592583409E+00
   26     6 C     3.476442313115E+00  2.148224033487E+00  2.326592583409E+00
   27     6 C    -2.148224033487E+00  3.476442313115E+00 -2.326592583409E+00
   28     6 C     2.148224033487E+00 -3.476442313115E+00 -2.326592583409E+00
   29     6 C    -1.881753147250E+00 -3.378798290627E-01  2.441356848579E+00
   30     6 C     1.881753147250E+00  3.378798290627E-01  2.441356848579E+00
   31     6 C    -3.378798290627E-01  1.881753147250E+00 -2.441356848579E+00
   32     6 C     3.378798290627E-01 -1.881753147250E+00 -2.441356848579E+00
   33     6 C    -1.219175897073E+00 -2.358123065844E+00  1.581173670909E+00
   34     6 C     1.219175897073E+00  2.358123065844E+00  1.581173670909E+00
   35     6 C    -2.358123065844E+00  1.219175897073E+00 -1.581173670909E+00
   36     6 C     2.358123065844E+00 -1.219175897073E+00 -1.581173670909E+00
   37     6 C     3.196173619879E+00  8.030695203989E-01  2.579402253620E+00
   38     6 C    -3.196173619879E+00 -8.030695203989E-01  2.579402253620E+00
   39     6 C     8.030695203989E-01 -3.196173619879E+00 -2.579402253620E+00
   40     6 C    -8.030695203989E-01  3.196173619879E+00 -2.579402253620E+00
   41     7 N    -1.763075531953E+00  4.716815824472E+00  2.720658598270E+00
   42     7 N     1.763075531953E+00 -4.716815824472E+00  2.720658598270E+00
   43     7 N     4.716815824472E+00  1.763075531953E+00 -2.720658598270E+00
   44     7 N    -4.716815824472E+00 -1.763075531953E+00 -2.720658598270E+00
   45     7 N    -2.245674336401E+00  3.432215042672E+00  2.609088691404E+00
   46     7 N     2.245674336401E+00 -3.432215042672E+00  2.609088691404E+00
   47     7 N     3.432215042672E+00  2.245674336401E+00 -2.609088691404E+00
   48     7 N    -3.432215042672E+00 -2.245674336401E+00 -2.609088691404E+00
   49     7 N     1.513916529165E+00 -2.580887690107E-01 -6.175301711949E+00
   50     7 N    -1.513916529165E+00  2.580887690107E-01 -6.175301711949E+00
   51     7 N    -2.580887690107E-01 -1.513916529165E+00  6.175301711949E+00
   52     7 N     2.580887690107E-01  1.513916529165E+00  6.175301711949E+00
   53     7 N    -3.261766592683E+00  3.425714990265E+00  1.770387038280E+00
   54     7 N     3.261766592683E+00 -3.425714990265E+00  1.770387038280E+00
   55     7 N     3.425714990265E+00  3.261766592683E+00 -1.770387038280E+00
   56     7 N    -3.425714990265E+00 -3.261766592683E+00 -1.770387038280E+00
   57     7 N    -9.240056037217E-01 -1.114423754250E+00  1.907200584916E+00
   58     7 N     9.240056037217E-01  1.114423754250E+00  1.907200584916E+00
   59     7 N    -1.114423754250E+00  9.240056037217E-01 -1.907200584916E+00
   60     7 N     1.114423754250E+00 -9.240056037217E-01 -1.907200584916E+00
   61    30 ZN    4.602281849166E-16  4.973362061163E+00 -1.122494036677E+01
   62    30 ZN    0.000000000000E+00  4.415385312984E-18  7.483293577847E+00

 ****    4 SYMMOPS - TRANSLATORS IN FRACTIONAL UNITS
 **** MATRICES AND TRANSLATORS IN THE CRYSTALLOGRAPHIC REFERENCE FRAME
   V INV                    ROTATION MATRICES                   TRANSLATORS
   1   1  1.00  0.00  0.00  0.00  1.00  0.00  0.00  0.00  1.00  0.00  0.00  0.00
   2   2 -0.00  1.00 -1.00  1.00  0.00 -1.00 -0.00  0.00 -1.00  0.00  0.00  0.00
   3   4  0.00 -1.00  0.00  0.00 -1.00  1.00  1.00 -1.00  0.00  0.00  0.00  0.00
   4   3 -1.00  0.00  1.00 -1.00  0.00 -0.00 -1.00  1.00 -0.00  0.00  0.00  0.00
 TTTTTTTTTTTTTTTTTTTTTTTTTTTTTT END         TELAPSE   125333.88 TCPU   122951.96
 EEEEEEEEEE TERMINATION  DATE 21 11 2023 TIME 21:56:39.3
NODE    0 CPU TIME =    122951.957
NODE    1 CPU TIME =    123193.258
NODE    2 CPU TIME =    123308.634
NODE    3 CPU TIME =    122981.782
NODE    4 CPU TIME =    123232.570
NODE    5 CPU TIME =    123009.013
NODE    6 CPU TIME =    123163.026
NODE    7 CPU TIME =    122878.602
NODE    8 CPU TIME =    123125.285
NODE    9 CPU TIME =    123343.044
NODE   10 CPU TIME =    123110.878
NODE   11 CPU TIME =    122815.718
NODE   12 CPU TIME =    123076.790
NODE   13 CPU TIME =    123033.903
NODE   14 CPU TIME =    123015.333
NODE   15 CPU TIME =    122694.091
NODE   16 CPU TIME =    123075.151
NODE   17 CPU TIME =    123103.665
NODE   18 CPU TIME =    122684.519
NODE   19 CPU TIME =    122594.436
NODE   20 CPU TIME =    122847.886
NODE   21 CPU TIME =    122752.573
NODE   22 CPU TIME =    122555.227
NODE   23 CPU TIME =    122535.233
    TOTAL CPU TIME =   2951082.574
trying normal rsh (/usr/bin/rsh)
exec: No such file or directory
trying normal rsh (/usr/bin/rsh)
exec: No such file or directory
trying normal rsh (/usr/bin/rsh)
exec: No such file or directory
trying normal rsh (/usr/bin/rsh)
exec: No such file or directory
