Loading crystal17/1.0.2/intel/19.0
  Loading requirement: intel/19.0 ompi/4.0.1/intel/19.0
 PROCESS            0  OF           24  WORKING

         
 *******************************************************************************
 *                                                                             *
 *                               CRYSTAL17                                     *
 *                      public : 1.0.2 - March 1st, 2018                       *
 *                       HTTP://WWW.CRYSTAL.UNITO.IT                           *
 *                                                                             *
 *                              MAIN AUTHORS                                   *
 *                                                                             *
 *  R. DOVESI(1,11), V.R. SAUNDERS(2), C. ROETTI(1,11), R. ORLANDO(1,11),      *
 *  C.M. ZICOVICH-WILSON(1,3), F. PASCALE(4), B. CIVALLERI(1,11),              *
 *  K. DOLL(5), N.M. HARRISON(2,6), I.J. BUSH(7), Ph. D'ARCO(8),               *
 *  M. LLUNELL(9), M. CAUSA'(10), Y. NOEL(8), L. MASCHIO(1,11), A. ERBA(1,11)  *
 *  M. RE'RAT(14), S. CASASSA(1,11)                                            *
 *                                                                             *
 *        CONTRIBUTIONS TO THE CODE HAVE ALSO BEEN GIVEN BY                    *
 *                                                                             *
 *  M. FERRABONE(1,11), M. DE LA PIERRE(1,11), M. FERRERO(1,11),               *
 *  J. BAIMA(1,11), E. ALBANESE(1,11), M.F. PEINTINGER(12), R. BAST(13),       *
 *  B. KIRTMAN(15), V. LACIVITA(1,11), R. DEMICHELIS(1,16)                     *
 *  G. BRANDEBURG(17), S. SALUSTRO(1,11), G. SANSONE(1,11)                     *
 *  M.T. RUGGIERO(18)                                                          *
 *                                                                             *
 * (1) THEORETICAL CHEMISTRY GROUP - UNIVERSITA' DI TORINO - TORINO (ITALY)    *
 * (2) COMPUTATIONAL SCIENCE & ENGINEERING DEPARTMENT - STFC DARESBURY (UK)    *
 * (3) UNIVERSIDAD AUTONOMA DEL ESTADO DE MORELOS - CUERNAVACA (MEXICO)        *
 * (4) UNIVERSITE' DE LORRAINE - NANCY (FRANCE)                                *
 * (5) UNIVERSITAET STUTTGART- STUTTGART (GERMANY)                             *
 * (6) IMPERIAL COLLEGE - LONDON (UK)                                          *
 * (7) OXFORD E-RESEARCH CENTRE - OXFORD (UK)                                  *
 * (8) UPMC - SORBONNE UNIVERSITES - PARIS (FRANCE)                            *
 * (9) UNIVERSIDAD DE BARCELONA - BARCELONA (SPAIN)                            *
 *(10) UNIVERSITA' DI NAPOLI "FEDERICO II" - NAPOLI (ITALY)                    *
 *(11) NIS - NANOSTRUCTURED INTERFACES AND SURFACES - TORINO (ITALY)           *
 *(12) MPI FUER CHEMISCHE ENERGIEKONVERSION - MUELHEIM AN DER RUHR (GERMANY)   *
 *(13) UNIVERSITY OF TROMSO - TROMSO (NORWAY)                                  *
 *(14) UNIVERSITE' DE PAU ET DES PAYS DE L'ADOUR - PAU (FRANCE)                *
 *(15) UNIVERSITY OF CALIFORNIA SANTA BARBARA - SANTA BARBARA (USA)            *
 *(16) CURTIN UNIVERSITY - PERTH (AUSTRALIA)                                   *
 *(17) UNIVERSITY COLLEGE LONDON - LONDON (UK)                                 *
 *(18) CAMBRIDGE UNIVERSITY - CAMBRIDGE (UK)                                   *
 *                                                                             *
 *******************************************************************************
 EEEEEEEEEE STARTING  DATE 21 11 2023 TIME 03:28:29.6
 C:\Users\wilso\AppData\Local\Temp\tmp_p\newconn.mol                             

 CRYSTAL CALCULATION
 (INPUT ACCORDING TO THE INTERNATIONAL TABLES FOR X-RAY CRYSTALLOGRAPHY)
 CRYSTAL FAMILY                       :  TETRAGONAL  
 CRYSTAL CLASS  (GROTH - 1921)        :  TETRAGONAL DISPHENOIDAL              

 SPACE GROUP (NONCENTROSYMMETRIC)     :  I -4            

 LATTICE PARAMETERS  (ANGSTROMS AND DEGREES) - CONVENTIONAL CELL
        A           B           C        ALPHA        BETA       GAMMA
    10.15800    10.15800    13.29400    90.00000    90.00000    90.00000


 PROCESS            1  OF           24  WORKING
 PROCESS            2  OF           24  WORKING
 PROCESS            3  OF           24  WORKING
 PROCESS            4  OF           24  WORKING
 PROCESS            5  OF           24  WORKING
 PROCESS            6  OF           24  WORKING
 PROCESS            7  OF           24  WORKING
 PROCESS            8  OF           24  WORKING
 PROCESS            9  OF           24  WORKING
 PROCESS           10  OF           24  WORKING
 PROCESS           11  OF           24  WORKING
 PROCESS           12  OF           24  WORKING
 PROCESS           13  OF           24  WORKING
 PROCESS           14  OF           24  WORKING
 PROCESS           15  OF           24  WORKING
 PROCESS           16  OF           24  WORKING
 PROCESS           17  OF           24  WORKING
 PROCESS           18  OF           24  WORKING
 PROCESS           19  OF           24  WORKING
 PROCESS           20  OF           24  WORKING
 PROCESS           21  OF           24  WORKING
 PROCESS           22  OF           24  WORKING
 PROCESS           23  OF           24  WORKING
 NUMBER OF IRREDUCIBLE ATOMS IN THE CONVENTIONAL CELL:  124

 INPUT COORDINATES

 ATOM AT. N.              COORDINATES
   1   1     5.576100000000E-01  7.373700000000E-01  1.366700000000E-01
   2   1     4.423900000000E-01  2.626300000000E-01  1.366700000000E-01
   3   1     7.373700000000E-01  4.423900000000E-01  8.633300000000E-01
   4   1     2.626300000000E-01  5.576100000000E-01  8.633300000000E-01
   5   1     5.761000000000E-02  2.373700000000E-01  6.366700000000E-01
   6   1     9.423900000000E-01  7.626300000000E-01  6.366700000000E-01
   7   1     2.373700000000E-01  9.423900000000E-01  3.633300000000E-01
   8   1     7.626300000000E-01  5.761000000000E-02  3.633300000000E-01
   9   1     9.759200000000E-01  6.751900000000E-01  9.083000000000E-02
  10   1     2.408000000000E-02  3.248100000000E-01  9.083000000000E-02
  11   1     6.751900000000E-01  2.408000000000E-02  9.091700000000E-01
  12   1     3.248100000000E-01  9.759200000000E-01  9.091700000000E-01
  13   1     4.759200000000E-01  1.751900000000E-01  5.908300000000E-01
  14   1     5.240800000000E-01  8.248100000000E-01  5.908300000000E-01
  15   1     1.751900000000E-01  5.240800000000E-01  4.091700000000E-01
  16   1     8.248100000000E-01  4.759200000000E-01  4.091700000000E-01
  17  35     6.058200000000E-01  9.805800000000E-01  1.369900000000E-01
  18  35     3.941800000000E-01  1.942000000000E-02  1.369900000000E-01
  19  35     9.805800000000E-01  3.941800000000E-01  8.630100000000E-01
  20  35     1.942000000000E-02  6.058200000000E-01  8.630100000000E-01
  21  35     1.058200000000E-01  4.805800000000E-01  6.369900000000E-01
  22  35     8.941800000000E-01  5.194200000000E-01  6.369900000000E-01
  23  35     4.805800000000E-01  8.941800000000E-01  3.630100000000E-01
  24  35     5.194200000000E-01  1.058200000000E-01  3.630100000000E-01
  25   1     8.420800000000E-01  5.709000000000E-02  1.240200000000E-01
  26   1     1.579200000000E-01  9.429100000000E-01  1.240200000000E-01
  27   1     5.709000000000E-02  1.579200000000E-01  8.759800000000E-01
  28   1     9.429100000000E-01  8.420800000000E-01  8.759800000000E-01
  29   1     3.420800000000E-01  5.570900000000E-01  6.240200000000E-01
  30   1     6.579200000000E-01  4.429100000000E-01  6.240200000000E-01
  31   1     5.570900000000E-01  6.579200000000E-01  3.759800000000E-01
  32   1     4.429100000000E-01  3.420800000000E-01  3.759800000000E-01
  33   6     2.646500000000E-01  1.859800000000E-01  6.165500000000E-01
  34   6     7.353500000000E-01  8.140200000000E-01  6.165500000000E-01
  35   6     1.859800000000E-01  7.353500000000E-01  3.834500000000E-01
  36   6     8.140200000000E-01  2.646500000000E-01  3.834500000000E-01
  37   6     7.646500000000E-01  6.859800000000E-01  1.165500000000E-01
  38   6     2.353500000000E-01  3.140200000000E-01  1.165500000000E-01
  39   6     6.859800000000E-01  2.353500000000E-01  8.834500000000E-01
  40   6     3.140200000000E-01  7.646500000000E-01  8.834500000000E-01
  41   6     2.514000000000E-01  4.317000000000E-02  6.230000000000E-01
  42   6     7.486000000000E-01  9.568300000000E-01  6.230000000000E-01
  43   6     4.317000000000E-02  7.486000000000E-01  3.770000000000E-01
  44   6     9.568300000000E-01  2.514000000000E-01  3.770000000000E-01
  45   6     7.514000000000E-01  5.431700000000E-01  1.230000000000E-01
  46   6     2.486000000000E-01  4.568300000000E-01  1.230000000000E-01
  47   6     5.431700000000E-01  2.486000000000E-01  8.770000000000E-01
  48   6     4.568300000000E-01  7.514000000000E-01  8.770000000000E-01
  49   6     6.583700000000E-01  7.736700000000E-01  1.273400000000E-01
  50   6     3.416300000000E-01  2.263300000000E-01  1.273400000000E-01
  51   6     7.736700000000E-01  3.416300000000E-01  8.726600000000E-01
  52   6     2.263300000000E-01  6.583700000000E-01  8.726600000000E-01
  53   6     1.583700000000E-01  2.736700000000E-01  6.273400000000E-01
  54   6     8.416300000000E-01  7.263300000000E-01  6.273400000000E-01
  55   6     2.736700000000E-01  8.416300000000E-01  3.726600000000E-01
  56   6     7.263300000000E-01  1.583700000000E-01  3.726600000000E-01
  57   6     8.156900000000E-01  9.525900000000E-01  1.204300000000E-01
  58   6     1.843100000000E-01  4.741000000000E-02  1.204300000000E-01
  59   6     9.525900000000E-01  1.843100000000E-01  8.795700000000E-01
  60   6     4.741000000000E-02  8.156900000000E-01  8.795700000000E-01
  61   6     3.156900000000E-01  4.525900000000E-01  6.204300000000E-01
  62   6     6.843100000000E-01  5.474100000000E-01  6.204300000000E-01
  63   6     4.525900000000E-01  6.843100000000E-01  3.795700000000E-01
  64   6     5.474100000000E-01  3.156900000000E-01  3.795700000000E-01
  65   6     3.914300000000E-01  2.396500000000E-01  6.044300000000E-01
  66   6     6.085700000000E-01  7.603500000000E-01  6.044300000000E-01
  67   6     2.396500000000E-01  6.085700000000E-01  3.955700000000E-01
  68   6     7.603500000000E-01  3.914300000000E-01  3.955700000000E-01
  69   6     8.914300000000E-01  7.396500000000E-01  1.044300000000E-01
  70   6     1.085700000000E-01  2.603500000000E-01  1.044300000000E-01
  71   6     7.396500000000E-01  1.085700000000E-01  8.955700000000E-01
  72   6     2.603500000000E-01  8.914300000000E-01  8.955700000000E-01
  73   6     3.150000000000E-01  9.141000000000E-02  1.282200000000E-01
  74   6     6.850000000000E-01  9.085900000000E-01  1.282200000000E-01
  75   6     9.141000000000E-02  6.850000000000E-01  8.717800000000E-01
  76   6     9.085900000000E-01  3.150000000000E-01  8.717800000000E-01
  77   6     8.150000000000E-01  5.914100000000E-01  6.282200000000E-01
  78   6     1.850000000000E-01  4.085900000000E-01  6.282200000000E-01
  79   6     5.914100000000E-01  1.850000000000E-01  3.717800000000E-01
  80   6     4.085900000000E-01  8.150000000000E-01  3.717800000000E-01
  81   7     8.407700000000E-01  4.628300000000E-01  1.672900000000E-01
  82   7     1.592300000000E-01  5.371700000000E-01  1.672900000000E-01
  83   7     4.628300000000E-01  1.592300000000E-01  8.327100000000E-01
  84   7     5.371700000000E-01  8.407700000000E-01  8.327100000000E-01
  85   7     3.407700000000E-01  9.628300000000E-01  6.672900000000E-01
  86   7     6.592300000000E-01  3.717000000000E-02  6.672900000000E-01
  87   7     9.628300000000E-01  6.592300000000E-01  3.327100000000E-01
  88   7     3.717000000000E-02  3.407700000000E-01  3.327100000000E-01
  89   7     2.940400000000E-01  8.358500000000E-01  6.597700000000E-01
  90   7     7.059600000000E-01  1.641500000000E-01  6.597700000000E-01
  91   7     8.358500000000E-01  7.059600000000E-01  3.402300000000E-01
  92   7     1.641500000000E-01  2.940400000000E-01  3.402300000000E-01
  93   7     7.940400000000E-01  3.358500000000E-01  1.597700000000E-01
  94   7     2.059600000000E-01  6.641500000000E-01  1.597700000000E-01
  95   7     3.358500000000E-01  2.059600000000E-01  8.402300000000E-01
  96   7     6.641500000000E-01  7.940400000000E-01  8.402300000000E-01
  97   7     1.518600000000E-01  9.677900000000E-01  5.884000000000E-01
  98   7     8.481400000000E-01  3.221000000000E-02  5.884000000000E-01
  99   7     9.677900000000E-01  8.481400000000E-01  4.116000000000E-01
 100   7     3.221000000000E-02  1.518600000000E-01  4.116000000000E-01
 101   7     6.518600000000E-01  4.677900000000E-01  8.840000000000E-02
 102   7     3.481400000000E-01  5.322100000000E-01  8.840000000000E-02
 103   7     4.677900000000E-01  3.481400000000E-01  9.116000000000E-01
 104   7     5.322100000000E-01  6.518600000000E-01  9.116000000000E-01
 105   7     1.800200000000E-01  8.388700000000E-01  6.128200000000E-01
 106   7     8.199800000000E-01  1.611300000000E-01  6.128200000000E-01
 107   7     8.388700000000E-01  8.199800000000E-01  3.871800000000E-01
 108   7     1.611300000000E-01  1.800200000000E-01  3.871800000000E-01
 109   7     6.800200000000E-01  3.388700000000E-01  1.128200000000E-01
 110   7     3.199800000000E-01  6.611300000000E-01  1.128200000000E-01
 111   7     3.388700000000E-01  3.199800000000E-01  8.871800000000E-01
 112   7     6.611300000000E-01  6.800200000000E-01  8.871800000000E-01
 113   7     9.174200000000E-01  8.687700000000E-01  1.079100000000E-01
 114   7     8.258000000000E-02  1.312300000000E-01  1.079100000000E-01
 115   7     8.687700000000E-01  8.258000000000E-02  8.920900000000E-01
 116   7     1.312300000000E-01  9.174200000000E-01  8.920900000000E-01
 117   7     4.174200000000E-01  3.687700000000E-01  6.079100000000E-01
 118   7     5.825800000000E-01  6.312300000000E-01  6.079100000000E-01
 119   7     3.687700000000E-01  5.825800000000E-01  3.920900000000E-01
 120   7     6.312300000000E-01  4.174200000000E-01  3.920900000000E-01
 121  30     0.000000000000E+00  5.000000000000E-01  2.500000000000E-01
 122  30     5.000000000000E-01  0.000000000000E+00  7.500000000000E-01
 123  30     0.000000000000E+00  0.000000000000E+00  5.000000000000E-01
 124  30     5.000000000000E-01  5.000000000000E-01  0.000000000000E+00

 *******************************************************************************

 << INFORMATION >>: FROM NOW ON, ALL COORDINATES REFER TO THE PRIMITIVE CELL

 *******************************************************************************

 LATTICE PARAMETERS  (ANGSTROMS AND DEGREES) - PRIMITIVE CELL
       A          B          C        ALPHA      BETA     GAMMA        VOLUME
    9.78647    9.78647    9.78647   117.47208 117.47208  94.43726    685.870456

 INPUT LIST - ATOM N.   2 NOT IRREDUCIBLE

 INPUT LIST - ATOM N.   3 NOT IRREDUCIBLE

 INPUT LIST - ATOM N.   4 NOT IRREDUCIBLE

 INPUT LIST - ATOM N.   1 NOT IRREDUCIBLE

 INPUT LIST - ATOM N.   2 NOT IRREDUCIBLE

 INPUT LIST - ATOM N.   3 NOT IRREDUCIBLE

 INPUT LIST - ATOM N.   4 NOT IRREDUCIBLE

 INPUT LIST - ATOM N.   6 NOT IRREDUCIBLE

 INPUT LIST - ATOM N.   7 NOT IRREDUCIBLE

 INPUT LIST - ATOM N.   8 NOT IRREDUCIBLE

 INPUT LIST - ATOM N.   5 NOT IRREDUCIBLE

 INPUT LIST - ATOM N.   6 NOT IRREDUCIBLE

 INPUT LIST - ATOM N.   7 NOT IRREDUCIBLE

 INPUT LIST - ATOM N.   8 NOT IRREDUCIBLE

 INPUT LIST - ATOM N.  10 NOT IRREDUCIBLE

 INPUT LIST - ATOM N.  11 NOT IRREDUCIBLE

 INPUT LIST - ATOM N.  12 NOT IRREDUCIBLE

 INPUT LIST - ATOM N.   9 NOT IRREDUCIBLE

 INPUT LIST - ATOM N.  10 NOT IRREDUCIBLE

 INPUT LIST - ATOM N.  11 NOT IRREDUCIBLE

 INPUT LIST - ATOM N.  12 NOT IRREDUCIBLE

 INPUT LIST - ATOM N.  14 NOT IRREDUCIBLE

 INPUT LIST - ATOM N.  15 NOT IRREDUCIBLE

 INPUT LIST - ATOM N.  16 NOT IRREDUCIBLE

 INPUT LIST - ATOM N.  13 NOT IRREDUCIBLE

 INPUT LIST - ATOM N.  14 NOT IRREDUCIBLE

 INPUT LIST - ATOM N.  15 NOT IRREDUCIBLE

 INPUT LIST - ATOM N.  16 NOT IRREDUCIBLE

 INPUT LIST - ATOM N.  18 NOT IRREDUCIBLE

 INPUT LIST - ATOM N.  19 NOT IRREDUCIBLE

 INPUT LIST - ATOM N.  20 NOT IRREDUCIBLE

 INPUT LIST - ATOM N.  17 NOT IRREDUCIBLE

 INPUT LIST - ATOM N.  18 NOT IRREDUCIBLE

 INPUT LIST - ATOM N.  19 NOT IRREDUCIBLE

 INPUT LIST - ATOM N.  20 NOT IRREDUCIBLE

 INPUT LIST - ATOM N.  22 NOT IRREDUCIBLE

 INPUT LIST - ATOM N.  23 NOT IRREDUCIBLE

 INPUT LIST - ATOM N.  24 NOT IRREDUCIBLE

 INPUT LIST - ATOM N.  21 NOT IRREDUCIBLE

 INPUT LIST - ATOM N.  22 NOT IRREDUCIBLE

 INPUT LIST - ATOM N.  23 NOT IRREDUCIBLE

 INPUT LIST - ATOM N.  24 NOT IRREDUCIBLE

 INPUT LIST - ATOM N.  26 NOT IRREDUCIBLE

 INPUT LIST - ATOM N.  27 NOT IRREDUCIBLE

 INPUT LIST - ATOM N.  28 NOT IRREDUCIBLE

 INPUT LIST - ATOM N.  25 NOT IRREDUCIBLE

 INPUT LIST - ATOM N.  26 NOT IRREDUCIBLE

 INPUT LIST - ATOM N.  27 NOT IRREDUCIBLE

 INPUT LIST - ATOM N.  28 NOT IRREDUCIBLE

 INPUT LIST - ATOM N.  30 NOT IRREDUCIBLE

 INPUT LIST - ATOM N.  31 NOT IRREDUCIBLE

 INPUT LIST - ATOM N.  32 NOT IRREDUCIBLE

 INPUT LIST - ATOM N.  29 NOT IRREDUCIBLE

 INPUT LIST - ATOM N.  30 NOT IRREDUCIBLE

 INPUT LIST - ATOM N.  31 NOT IRREDUCIBLE

 INPUT LIST - ATOM N.  32 NOT IRREDUCIBLE

 INPUT LIST - ATOM N.  34 NOT IRREDUCIBLE

 INPUT LIST - ATOM N.  35 NOT IRREDUCIBLE

 INPUT LIST - ATOM N.  36 NOT IRREDUCIBLE

 INPUT LIST - ATOM N.  33 NOT IRREDUCIBLE

 INPUT LIST - ATOM N.  34 NOT IRREDUCIBLE

 INPUT LIST - ATOM N.  35 NOT IRREDUCIBLE

 INPUT LIST - ATOM N.  36 NOT IRREDUCIBLE

 INPUT LIST - ATOM N.  38 NOT IRREDUCIBLE

 INPUT LIST - ATOM N.  39 NOT IRREDUCIBLE

 INPUT LIST - ATOM N.  40 NOT IRREDUCIBLE

 INPUT LIST - ATOM N.  37 NOT IRREDUCIBLE

 INPUT LIST - ATOM N.  38 NOT IRREDUCIBLE

 INPUT LIST - ATOM N.  39 NOT IRREDUCIBLE

 INPUT LIST - ATOM N.  40 NOT IRREDUCIBLE

 INPUT LIST - ATOM N.  42 NOT IRREDUCIBLE

 INPUT LIST - ATOM N.  43 NOT IRREDUCIBLE

 INPUT LIST - ATOM N.  44 NOT IRREDUCIBLE

 INPUT LIST - ATOM N.  41 NOT IRREDUCIBLE

 INPUT LIST - ATOM N.  42 NOT IRREDUCIBLE

 INPUT LIST - ATOM N.  43 NOT IRREDUCIBLE

 INPUT LIST - ATOM N.  44 NOT IRREDUCIBLE

 INPUT LIST - ATOM N.  46 NOT IRREDUCIBLE

 INPUT LIST - ATOM N.  47 NOT IRREDUCIBLE

 INPUT LIST - ATOM N.  48 NOT IRREDUCIBLE

 INPUT LIST - ATOM N.  45 NOT IRREDUCIBLE

 INPUT LIST - ATOM N.  46 NOT IRREDUCIBLE

 INPUT LIST - ATOM N.  47 NOT IRREDUCIBLE

 INPUT LIST - ATOM N.  48 NOT IRREDUCIBLE

 INPUT LIST - ATOM N.  50 NOT IRREDUCIBLE

 INPUT LIST - ATOM N.  51 NOT IRREDUCIBLE

 INPUT LIST - ATOM N.  52 NOT IRREDUCIBLE

 INPUT LIST - ATOM N.  49 NOT IRREDUCIBLE

 INPUT LIST - ATOM N.  50 NOT IRREDUCIBLE

 INPUT LIST - ATOM N.  51 NOT IRREDUCIBLE

 INPUT LIST - ATOM N.  52 NOT IRREDUCIBLE

 INPUT LIST - ATOM N.  54 NOT IRREDUCIBLE

 INPUT LIST - ATOM N.  55 NOT IRREDUCIBLE

 INPUT LIST - ATOM N.  56 NOT IRREDUCIBLE

 INPUT LIST - ATOM N.  53 NOT IRREDUCIBLE

 INPUT LIST - ATOM N.  54 NOT IRREDUCIBLE

 INPUT LIST - ATOM N.  55 NOT IRREDUCIBLE

 INPUT LIST - ATOM N.  56 NOT IRREDUCIBLE

 INPUT LIST - ATOM N.  58 NOT IRREDUCIBLE

 INPUT LIST - ATOM N.  59 NOT IRREDUCIBLE

 INPUT LIST - ATOM N.  60 NOT IRREDUCIBLE

 INPUT LIST - ATOM N.  57 NOT IRREDUCIBLE

 INPUT LIST - ATOM N.  58 NOT IRREDUCIBLE

 INPUT LIST - ATOM N.  59 NOT IRREDUCIBLE

 INPUT LIST - ATOM N.  60 NOT IRREDUCIBLE

 INPUT LIST - ATOM N.  61 NOT IRREDUCIBLE

 INPUT LIST - ATOM N.  62 NOT IRREDUCIBLE

 COORDINATES OF THE EQUIVALENT ATOMS (FRACTIONAL UNITS)

 N. ATOM EQUIV AT. N.          X                  Y                  Z

   1   1   1    1 H    -1.25960000000E-01 -3.05720000000E-01  2.94980000000E-01
   2   1   2    1 H     3.99300000000E-01 -4.20940000000E-01 -2.94980000000E-01
   3   1   3    1 H     3.05720000000E-01 -3.99300000000E-01  1.79760000000E-01
   4   1   4    1 H     4.20940000000E-01  1.25960000000E-01 -1.79760000000E-01








   5   9   1    1 H    -2.33980000000E-01  6.67500000000E-02 -3.48890000000E-01
   6   9   2    1 H     4.15640000000E-01  1.14910000000E-01  3.48890000000E-01
   7   9   3    1 H    -6.67500000000E-02 -4.15640000000E-01 -3.00730000000E-01
   8   9   4    1 H    -1.14910000000E-01  2.33980000000E-01  3.00730000000E-01








   9  17   1   35 BR    1.17570000000E-01 -2.57190000000E-01 -4.13600000000E-01
  10  17   2   35 BR    1.56410000000E-01 -4.68830000000E-01  4.13600000000E-01
  11  17   3   35 BR    2.57190000000E-01 -1.56410000000E-01  3.74760000000E-01
  12  17   4   35 BR    4.68830000000E-01 -1.17570000000E-01 -3.74760000000E-01

 NUMBER OF SYMMETRY OPERATORS         :    4
 *******************************************************************************
 * GEOMETRY EDITING - INPUT COORDINATES ARE GIVEN IN ANGSTROM         
 *******************************************************************************

 GEOMETRY NOW FULLY CONSISTENT WITH THE GROUP
 *******************************************************************************
 *  GEOMETRY EDITING
 *  THE SYMMETRY OF THE CRYSTAL IS KEPT AND APPLIED TO THE PERTURBATION
 *******************************************************************************
 INFORMATION **** NEW DEFAULT **** FINALRUN 4 FOR GEOMETRY OPTIMIZATIONS
 INFORMATION **** NEW DEFAULT **** OPTGEOM OPTIMIZES BOTH ATOMIC COORDINATES AND CELL PARAMETERS
 INFORMATION **** NEW DEFAULT **** TOL. ON ATOMIC DISP TO REDEFINE REF. GEOMETRY: 0.8 Angs
 INFORMATION **** NEW DEFAULT **** N POINTS TO REDEFINE REF. GEOMETRY: N OF OPT DEGS OF FREEDOM
 INFORMATION **** NEW DEFAULT **** TOL. ON ENERGY TO REDEFINE REF. GEOMETRY: 10**-3*(5*N. ATOMS)

 IMPORTANT INFORMATION:
 THE COORDINATE SYSTEM ADOPTED IN THE OPTIMIZATION IS NOT IN
 GENERAL HOMOGENEOUS UNITS. FOR THIS REASON THE GRADIENT AND 
 HESSIAN MATRIX IN TERMS OF THIS SYSTEM ARE GIVEN WITHOUT
 UNITS. FOR MORE DETAILS SEE THE MANUAL.

 *******************************************************************************
 COMBINED CELL/ATOM OPTIMIZATION CONTROL

 INITIAL TRUST RADIUS         0.50000 MAXIMUM TRUST RADIUS               4.00000
 MAXIMUM GRADIENT COMPONENT   0.00045 MAXIMUM DISPLACEMENT COMPONENT     0.00180
 R.M.S. OF GRADIENT COMPONENT 0.00030 R.M.S. OF DISPLACEMENT COMPONENTS  0.00120
 THRESHOLD ON ENERGY CHANGE 0.100E-06 EXTRAPOLATING POLYNOMIAL ORDER           2
 MAXIMUM ALLOWED NUMBER OF STEPS   -1 SORTING OF ENERGY POINTS:               NO
 ANALYTICAL  GRADIENT                 HESSIAN UPDATING                      BFGS
 STEP SIZE NUMERICAL GRADIENT 0.00100
 INITIAL HESSIAN MATRIX: SCHLEGEL MODEL 2
 *******************************************************************************


 GCALCO - MAX INDICES DIRECT LATTICE VECTOR    14    14    16
 NO.OF VECTORS CREATED 6999 STARS  481 RMAX   197.96270 BOHR

 GEOMETRY FOR WAVE FUNCTION - DIMENSIONALITY OF THE SYSTEM    3
 (NON PERIODIC DIRECTION: LATTICE PARAMETER FORMALLY SET TO 500)
 *******************************************************************************
 LATTICE PARAMETERS (ANGSTROMS AND DEGREES) - BOHR = 0.5291772083 ANGSTROM
 PRIMITIVE CELL - CENTRING CODE 6/0 VOLUME=   685.870456 - DENSITY  2.478 g/cm^3
         A              B              C           ALPHA      BETA       GAMMA 
     9.78647490     9.78647490     9.78647490   117.472078 117.472078  94.437262
 *******************************************************************************
 ATOMS IN THE ASYMMETRIC UNIT   17 - ATOMS IN THE UNIT CELL:   62
     ATOM                 X/A                 Y/B                 Z/C    
 *******************************************************************************
      1 T   1 H    -1.259600000000E-01 -3.057200000000E-01  2.949800000000E-01
      2 F   1 H     3.993000000000E-01 -4.209400000000E-01 -2.949800000000E-01
      3 F   1 H     3.057200000000E-01 -3.993000000000E-01  1.797600000000E-01
      4 F   1 H     4.209400000000E-01  1.259600000000E-01 -1.797600000000E-01
      5 T   1 H    -2.339800000000E-01  6.675000000000E-02 -3.488900000000E-01
      6 F   1 H     4.156400000000E-01  1.149100000000E-01  3.488900000000E-01
      7 F   1 H    -6.675000000000E-02 -4.156400000000E-01 -3.007300000000E-01
      8 F   1 H    -1.149100000000E-01  2.339800000000E-01  3.007300000000E-01
      9 T  35 BR    1.175700000000E-01 -2.571900000000E-01 -4.136000000000E-01
     10 F  35 BR    1.564100000000E-01 -4.688300000000E-01  4.136000000000E-01
     11 F  35 BR    2.571900000000E-01 -1.564100000000E-01  3.747600000000E-01
     12 F  35 BR    4.688300000000E-01 -1.175700000000E-01 -3.747600000000E-01
     13 T   1 H     1.811100000000E-01 -3.390000000000E-02 -1.008300000000E-01
     14 F   1 H     6.693000000000E-02  2.819400000000E-01  1.008300000000E-01
     15 F   1 H     3.390000000000E-02 -6.693000000000E-02  2.150100000000E-01
     16 F   1 H    -2.819400000000E-01 -1.811100000000E-01 -2.150100000000E-01
     17 T   6 C    -1.974700000000E-01 -1.188000000000E-01  4.506300000000E-01
     18 F   6 C     4.305700000000E-01  3.519000000000E-01 -4.506300000000E-01
     19 F   6 C     1.188000000000E-01 -4.305700000000E-01 -7.867000000000E-02
     20 F   6 C    -3.519000000000E-01  1.974700000000E-01  7.867000000000E-02
     21 T   6 C    -3.338300000000E-01 -1.256000000000E-01  2.945700000000E-01
     22 F   6 C    -4.201700000000E-01  3.716000000000E-01 -2.945700000000E-01
     23 F   6 C     1.256000000000E-01  4.201700000000E-01 -2.082300000000E-01
     24 F   6 C    -3.716000000000E-01  3.338300000000E-01  2.082300000000E-01
     25 T   6 C    -9.899000000000E-02 -2.142900000000E-01  4.320400000000E-01
     26 F   6 C     3.536700000000E-01  4.689700000000E-01 -4.320400000000E-01
     27 F   6 C     2.142900000000E-01 -3.536700000000E-01  1.153000000000E-01
     28 F   6 C    -4.689700000000E-01  9.899000000000E-02 -1.153000000000E-01
     29 T   6 C     7.302000000000E-02 -6.388000000000E-02 -2.317200000000E-01
     30 F   6 C     1.678400000000E-01  3.047400000000E-01  2.317200000000E-01
     31 F   6 C     6.388000000000E-02 -1.678400000000E-01  1.369000000000E-01
     32 F   6 C    -3.047400000000E-01 -7.302000000000E-02 -1.369000000000E-01
     33 T   6 C    -1.559200000000E-01 -4.140000000000E-03 -3.689200000000E-01
     34 F   6 C     3.647800000000E-01  2.130000000000E-01  3.689200000000E-01
     35 F   6 C     4.140000000000E-03 -3.647800000000E-01 -1.517800000000E-01
     36 F   6 C    -2.130000000000E-01  1.559200000000E-01  1.517800000000E-01
     37 T   6 C     2.196300000000E-01  4.432200000000E-01  4.064100000000E-01
     38 F   6 C     3.681000000000E-02 -1.867800000000E-01 -4.064100000000E-01
     39 F   6 C    -4.432200000000E-01 -3.681000000000E-02 -2.235900000000E-01
     40 F   6 C     1.867800000000E-01 -2.196300000000E-01  2.235900000000E-01
     41 T   7 N    -3.698800000000E-01  8.060000000000E-03  3.036000000000E-01
     42 F   7 N    -2.955400000000E-01  3.265200000000E-01 -3.036000000000E-01
     43 F   7 N    -8.060000000000E-03  2.955400000000E-01 -3.779400000000E-01
     44 F   7 N    -3.265200000000E-01  3.698800000000E-01  3.779400000000E-01
     45 T   7 N     4.956200000000E-01 -4.619000000000E-02  1.298900000000E-01
     46 F   7 N    -1.760800000000E-01  3.657300000000E-01 -1.298900000000E-01
     47 F   7 N     4.619000000000E-02  1.760800000000E-01 -4.581900000000E-01
     48 F   7 N    -3.657300000000E-01 -4.956200000000E-01  4.581900000000E-01
     49 T   7 N    -4.438100000000E-01 -2.597400000000E-01  1.196500000000E-01
     50 F   7 N    -3.793900000000E-01  4.365400000000E-01 -1.196500000000E-01
     51 F   7 N     2.597400000000E-01  3.793900000000E-01 -1.840700000000E-01
     52 F   7 N    -4.365400000000E-01  4.438100000000E-01  1.840700000000E-01
     53 T   7 N     4.516900000000E-01 -2.071600000000E-01  1.889000000000E-02
     54 F   7 N    -2.260500000000E-01  4.328000000000E-01 -1.889000000000E-02
     55 F   7 N     2.071600000000E-01  2.260500000000E-01 -3.411500000000E-01
     56 F   7 N    -4.328000000000E-01 -4.516900000000E-01  3.411500000000E-01
     57 T   7 N    -2.332000000000E-02  2.533000000000E-02 -2.138100000000E-01
     58 F   7 N     2.391400000000E-01  1.904900000000E-01  2.138100000000E-01
     59 F   7 N    -2.533000000000E-02 -2.391400000000E-01 -4.865000000000E-02
     60 F   7 N    -1.904900000000E-01  2.332000000000E-02  4.865000000000E-02
     61 T  30 ZN   -2.500000000000E-01  2.500000000000E-01  5.000000000000E-01
     62 T  30 ZN   -5.000000000000E-01  5.000000000000E-01  0.000000000000E+00

 TRANSFORMATION MATRIX PRIMITIVE-CRYSTALLOGRAPHIC CELL
  0.0000  1.0000  1.0000  1.0000  0.0000  1.0000  1.0000  1.0000  0.0000

 *******************************************************************************
 CRYSTALLOGRAPHIC CELL (VOLUME=       1371.74091142)
         A              B              C           ALPHA      BETA       GAMMA 
    10.15800000    10.15800000    13.29400000    90.000000  90.000000  90.000000

 COORDINATES IN THE CRYSTALLOGRAPHIC CELL
     ATOM                 X/A                 Y/B                 Z/C    
 *******************************************************************************
      1 T   1 H     5.761000000000E-02  2.373700000000E-01 -3.633300000000E-01
      2 F   1 H    -5.761000000000E-02 -2.373700000000E-01 -3.633300000000E-01
      3 F   1 H     2.373700000000E-01 -5.761000000000E-02  3.633300000000E-01
      4 F   1 H    -2.373700000000E-01  5.761000000000E-02  3.633300000000E-01
      5 T   1 H    -2.408000000000E-02 -3.248100000000E-01  9.083000000000E-02
      6 F   1 H     2.408000000000E-02  3.248100000000E-01  9.083000000000E-02
      7 F   1 H    -3.248100000000E-01  2.408000000000E-02 -9.083000000000E-02
      8 F   1 H     3.248100000000E-01 -2.408000000000E-02 -9.083000000000E-02
      9 T  35 BR   -3.941800000000E-01 -1.942000000000E-02  1.369900000000E-01
     10 F  35 BR    3.941800000000E-01  1.942000000000E-02  1.369900000000E-01
     11 F  35 BR   -1.942000000000E-02  3.941800000000E-01 -1.369900000000E-01
     12 F  35 BR    1.942000000000E-02 -3.941800000000E-01 -1.369900000000E-01
     13 T   1 H    -1.579200000000E-01  5.709000000000E-02  1.240200000000E-01
     14 F   1 H     1.579200000000E-01 -5.709000000000E-02  1.240200000000E-01
     15 F   1 H     5.709000000000E-02  1.579200000000E-01 -1.240200000000E-01
     16 F   1 H    -5.709000000000E-02 -1.579200000000E-01 -1.240200000000E-01
     17 T   6 C    -2.353500000000E-01 -3.140200000000E-01  1.165500000000E-01
     18 F   6 C     2.353500000000E-01  3.140200000000E-01  1.165500000000E-01
     19 F   6 C    -3.140200000000E-01  2.353500000000E-01 -1.165500000000E-01
     20 F   6 C     3.140200000000E-01 -2.353500000000E-01 -1.165500000000E-01
     21 T   6 C    -2.486000000000E-01 -4.568300000000E-01  1.230000000000E-01
     22 F   6 C     2.486000000000E-01  4.568300000000E-01  1.230000000000E-01
     23 F   6 C    -4.568300000000E-01  2.486000000000E-01 -1.230000000000E-01
     24 F   6 C     4.568300000000E-01 -2.486000000000E-01 -1.230000000000E-01
     25 T   6 C    -3.416300000000E-01 -2.263300000000E-01  1.273400000000E-01
     26 F   6 C     3.416300000000E-01  2.263300000000E-01  1.273400000000E-01
     27 F   6 C    -2.263300000000E-01  3.416300000000E-01 -1.273400000000E-01
     28 F   6 C     2.263300000000E-01 -3.416300000000E-01 -1.273400000000E-01
     29 T   6 C    -1.843100000000E-01 -4.741000000000E-02  1.204300000000E-01
     30 F   6 C     1.843100000000E-01  4.741000000000E-02  1.204300000000E-01
     31 F   6 C    -4.741000000000E-02  1.843100000000E-01 -1.204300000000E-01
     32 F   6 C     4.741000000000E-02 -1.843100000000E-01 -1.204300000000E-01
     33 T   6 C    -1.085700000000E-01 -2.603500000000E-01  1.044300000000E-01
     34 F   6 C     1.085700000000E-01  2.603500000000E-01  1.044300000000E-01
     35 F   6 C    -2.603500000000E-01  1.085700000000E-01 -1.044300000000E-01
     36 F   6 C     2.603500000000E-01 -1.085700000000E-01 -1.044300000000E-01
     37 T   6 C     3.150000000000E-01  9.141000000000E-02  1.282200000000E-01
     38 F   6 C    -3.150000000000E-01 -9.141000000000E-02  1.282200000000E-01
     39 F   6 C     9.141000000000E-02 -3.150000000000E-01 -1.282200000000E-01
     40 F   6 C    -9.141000000000E-02  3.150000000000E-01 -1.282200000000E-01
     41 T   7 N    -1.592300000000E-01  4.628300000000E-01  1.672900000000E-01
     42 F   7 N     1.592300000000E-01 -4.628300000000E-01  1.672900000000E-01
     43 F   7 N     4.628300000000E-01  1.592300000000E-01 -1.672900000000E-01
     44 F   7 N    -4.628300000000E-01 -1.592300000000E-01 -1.672900000000E-01
     45 T   7 N    -2.059600000000E-01  3.358500000000E-01  1.597700000000E-01
     46 F   7 N     2.059600000000E-01 -3.358500000000E-01  1.597700000000E-01
     47 F   7 N     3.358500000000E-01  2.059600000000E-01 -1.597700000000E-01
     48 F   7 N    -3.358500000000E-01 -2.059600000000E-01 -1.597700000000E-01
     49 T   7 N     1.518600000000E-01 -3.221000000000E-02 -4.116000000000E-01
     50 F   7 N    -1.518600000000E-01  3.221000000000E-02 -4.116000000000E-01
     51 F   7 N    -3.221000000000E-02 -1.518600000000E-01  4.116000000000E-01
     52 F   7 N     3.221000000000E-02  1.518600000000E-01  4.116000000000E-01
     53 T   7 N    -3.199800000000E-01  3.388700000000E-01  1.128200000000E-01
     54 F   7 N     3.199800000000E-01 -3.388700000000E-01  1.128200000000E-01
     55 F   7 N     3.388700000000E-01  3.199800000000E-01 -1.128200000000E-01
     56 F   7 N    -3.388700000000E-01 -3.199800000000E-01 -1.128200000000E-01
     57 T   7 N    -8.258000000000E-02 -1.312300000000E-01  1.079100000000E-01
     58 F   7 N     8.258000000000E-02  1.312300000000E-01  1.079100000000E-01
     59 F   7 N    -1.312300000000E-01  8.258000000000E-02 -1.079100000000E-01
     60 F   7 N     1.312300000000E-01 -8.258000000000E-02 -1.079100000000E-01
     61 T  30 ZN    4.626932236752E-17  5.000000000000E-01  2.500000000000E-01
     62 T  30 ZN    0.000000000000E+00  0.000000000000E+00  5.000000000000E-01

 T = ATOM BELONGING TO THE ASYMMETRIC UNIT

 ****    4 SYMMOPS - TRANSLATORS IN FRACTIONAL UNITS
 **** MATRICES AND TRANSLATORS IN THE CRYSTALLOGRAPHIC REFERENCE FRAME
   V INV                    ROTATION MATRICES                   TRANSLATORS
   1   1  1.00  0.00  0.00  0.00  1.00  0.00  0.00  0.00  1.00  0.00  0.00  0.00
   2   2  0.00  1.00 -1.00  1.00 -0.00 -1.00 -0.00  0.00 -1.00  0.00  0.00  0.00
   3   4 -0.00 -1.00  0.00  0.00 -1.00  1.00  1.00 -1.00  0.00  0.00  0.00  0.00
   4   3 -1.00 -0.00  1.00 -1.00  0.00 -0.00 -1.00  1.00 -0.00  0.00  0.00  0.00

 DIRECT LATTICE VECTORS CARTESIAN COMPONENTS (ANGSTROM)
          X                    Y                    Z
  -0.507900000000E+01   0.507900000000E+01   0.664700000000E+01
   0.507900000000E+01  -0.507900000000E+01   0.664700000000E+01
   0.507900000000E+01   0.507900000000E+01  -0.664700000000E+01


 CARTESIAN COORDINATES - PRIMITIVE CELL
 *******************************************************************************
 *      ATOM          X(ANGSTROM)         Y(ANGSTROM)         Z(ANGSTROM)
 *******************************************************************************
    1     1 H     5.852023800000E-01  2.411204460000E+00 -4.830109020000E+00
    2     1 H    -5.852023800000E-01 -2.411204460000E+00 -4.830109020000E+00
    3     1 H     2.411204460000E+00 -5.852023800000E-01  4.830109020000E+00
    4     1 H    -2.411204460000E+00  5.852023800000E-01  4.830109020000E+00
    5     1 H    -2.446046400000E-01 -3.299419980000E+00  1.207494020000E+00
    6     1 H     2.446046400000E-01  3.299419980000E+00  1.207494020000E+00
    7     1 H    -3.299419980000E+00  2.446046400000E-01 -1.207494020000E+00
    8     1 H     3.299419980000E+00 -2.446046400000E-01 -1.207494020000E+00
    9    35 BR   -4.004080440000E+00 -1.972683600000E-01  1.821145060000E+00
   10    35 BR    4.004080440000E+00  1.972683600000E-01  1.821145060000E+00
   11    35 BR   -1.972683600000E-01  4.004080440000E+00 -1.821145060000E+00
   12    35 BR    1.972683600000E-01 -4.004080440000E+00 -1.821145060000E+00
   13     1 H    -1.604151360000E+00  5.799202200000E-01  1.648721880000E+00
   14     1 H     1.604151360000E+00 -5.799202200000E-01  1.648721880000E+00
   15     1 H     5.799202200000E-01  1.604151360000E+00 -1.648721880000E+00
   16     1 H    -5.799202200000E-01 -1.604151360000E+00 -1.648721880000E+00
   17     6 C    -2.390685300000E+00 -3.189815160000E+00  1.549415700000E+00
   18     6 C     2.390685300000E+00  3.189815160000E+00  1.549415700000E+00
   19     6 C    -3.189815160000E+00  2.390685300000E+00 -1.549415700000E+00
   20     6 C     3.189815160000E+00 -2.390685300000E+00 -1.549415700000E+00
   21     6 C    -2.525278800000E+00 -4.640479140000E+00  1.635162000000E+00
   22     6 C     2.525278800000E+00  4.640479140000E+00  1.635162000000E+00
   23     6 C    -4.640479140000E+00  2.525278800000E+00 -1.635162000000E+00
   24     6 C     4.640479140000E+00 -2.525278800000E+00 -1.635162000000E+00
   25     6 C    -3.470277540000E+00 -2.299060140000E+00  1.692857960000E+00
   26     6 C     3.470277540000E+00  2.299060140000E+00  1.692857960000E+00
   27     6 C    -2.299060140000E+00  3.470277540000E+00 -1.692857960000E+00
   28     6 C     2.299060140000E+00 -3.470277540000E+00 -1.692857960000E+00
   29     6 C    -1.872220980000E+00 -4.815907800000E-01  1.600996420000E+00
   30     6 C     1.872220980000E+00  4.815907800000E-01  1.600996420000E+00
   31     6 C    -4.815907800000E-01  1.872220980000E+00 -1.600996420000E+00
   32     6 C     4.815907800000E-01 -1.872220980000E+00 -1.600996420000E+00
   33     6 C    -1.102854060000E+00 -2.644635300000E+00  1.388292420000E+00
   34     6 C     1.102854060000E+00  2.644635300000E+00  1.388292420000E+00
   35     6 C    -2.644635300000E+00  1.102854060000E+00 -1.388292420000E+00
   36     6 C     2.644635300000E+00 -1.102854060000E+00 -1.388292420000E+00
   37     6 C     3.199770000000E+00  9.285427800000E-01  1.704556680000E+00
   38     6 C    -3.199770000000E+00 -9.285427800000E-01  1.704556680000E+00
   39     6 C     9.285427800000E-01 -3.199770000000E+00 -1.704556680000E+00
   40     6 C    -9.285427800000E-01  3.199770000000E+00 -1.704556680000E+00
   41     7 N    -1.617458340000E+00  4.701427140000E+00  2.223953260000E+00
   42     7 N     1.617458340000E+00 -4.701427140000E+00  2.223953260000E+00
   43     7 N     4.701427140000E+00  1.617458340000E+00 -2.223953260000E+00
   44     7 N    -4.701427140000E+00 -1.617458340000E+00 -2.223953260000E+00
   45     7 N    -2.092141680000E+00  3.411564300000E+00  2.123982380000E+00
   46     7 N     2.092141680000E+00 -3.411564300000E+00  2.123982380000E+00
   47     7 N     3.411564300000E+00  2.092141680000E+00 -2.123982380000E+00
   48     7 N    -3.411564300000E+00 -2.092141680000E+00 -2.123982380000E+00
   49     7 N     1.542593880000E+00 -3.271891800000E-01 -5.471810400000E+00
   50     7 N    -1.542593880000E+00  3.271891800000E-01 -5.471810400000E+00
   51     7 N    -3.271891800000E-01 -1.542593880000E+00  5.471810400000E+00
   52     7 N     3.271891800000E-01  1.542593880000E+00  5.471810400000E+00
   53     7 N    -3.250356840000E+00  3.442241460000E+00  1.499829080000E+00
   54     7 N     3.250356840000E+00 -3.442241460000E+00  1.499829080000E+00
   55     7 N     3.442241460000E+00  3.250356840000E+00 -1.499829080000E+00
   56     7 N    -3.442241460000E+00 -3.250356840000E+00 -1.499829080000E+00
   57     7 N    -8.388476400000E-01 -1.333034340000E+00  1.434555540000E+00
   58     7 N     8.388476400000E-01  1.333034340000E+00  1.434555540000E+00
   59     7 N    -1.333034340000E+00  8.388476400000E-01 -1.434555540000E+00
   60     7 N     1.333034340000E+00 -8.388476400000E-01 -1.434555540000E+00
   61    30 ZN    4.700037766092E-16  5.079000000000E+00 -9.970500000000E+00
   62    30 ZN    0.000000000000E+00  0.000000000000E+00  6.647000000000E+00

 *******************************************************************************
 STARTING BASIS SET HANDLING 
 *******************************************************************************

 Loading internal basis set: POB-DZVPP           

 Please cite in your publication:
 Peintinger, M. F., Oliveira, D. V. and Bredow, T. (2013), Generally applicable 
 solid-state Gaussian basis sets, in preparation                                
                                                                                
                    

 *******************************************************************************
 LOCAL ATOMIC FUNCTIONS BASIS SET
 *******************************************************************************
   ATOM   X(AU)   Y(AU)   Z(AU)  N. TYPE  EXPONENT  S COEF   P COEF   D/F/G COEF
 *******************************************************************************
   1 H    1.106   4.557  -9.128
                                  1 S  
                                         2.263E+01 1.441E-02 0.000E+00 0.000E+00
                                         3.236E+00 1.072E-01 0.000E+00 0.000E+00
                                         7.304E-01 3.846E-01 0.000E+00 0.000E+00
                                  2 S  
                                         1.417E-01 1.000E+00 0.000E+00 0.000E+00
                           3-     5 P  
                                         3.944E-01 0.000E+00 1.000E+00 0.000E+00
                           6-     8 P  
                                         1.006E-01 0.000E+00 1.000E+00 0.000E+00
   2 H   -1.106  -4.557  -9.128
   3 H    4.557  -1.106   9.128
   4 H   -4.557   1.106   9.128
   5 H   -0.462  -6.235   2.282
   6 H    0.462   6.235   2.282
   7 H   -6.235   0.462  -2.282
   8 H    6.235  -0.462  -2.282
   9 BR  -7.567  -0.373   3.441
                                 65 S  
                                         1.133E+05 1.428E-03 0.000E+00 0.000E+00
                                         1.701E+04 1.095E-02 0.000E+00 0.000E+00
                                         3.870E+03 5.442E-02 0.000E+00 0.000E+00
                                         1.093E+03 1.905E-01 0.000E+00 0.000E+00
                                         3.564E+02 3.902E-01 0.000E+00 0.000E+00
                                         1.231E+02 3.081E-01 0.000E+00 0.000E+00
                                 66 S  
                                         2.367E+02-1.123E-01 0.000E+00 0.000E+00
                                         2.847E+01 6.478E-01 0.000E+00 0.000E+00
                                         1.188E+01 4.424E-01 0.000E+00 0.000E+00
                                 67 S  
                                         2.127E+01-2.264E-01 0.000E+00 0.000E+00
                                         3.613E+00 7.382E-01 0.000E+00 0.000E+00
                                         1.663E+00 4.268E-01 0.000E+00 0.000E+00
                                 68 S  
                                         3.641E-01 1.000E+00 0.000E+00 0.000E+00
                                 69 S  
                                         1.243E-01 1.000E+00 0.000E+00 0.000E+00
                          70-    72 P  
                                         1.560E+03 0.000E+00 8.717E-03 0.000E+00
                                         3.685E+02 0.000E+00 6.624E-02 0.000E+00
                                         1.172E+02 0.000E+00 2.650E-01 0.000E+00
                                         4.265E+01 0.000E+00 5.384E-01 0.000E+00
                                         1.609E+01 0.000E+00 3.658E-01 0.000E+00
                          73-    75 P  
                                         8.635E+00 0.000E+00 3.425E-01 0.000E+00
                                         3.561E+00 0.000E+00 5.750E-01 0.000E+00
                                         1.529E+00 0.000E+00 2.433E-01 0.000E+00
                          76-    78 P  
                                         6.447E-01 0.000E+00 1.000E+00 0.000E+00
                          79-    81 P  
                                         2.103E-01 0.000E+00 1.000E+00 0.000E+00
                          82-    86 D  
                                         1.049E+02 0.000E+00 0.000E+00 2.265E-02
                                         3.028E+01 0.000E+00 0.000E+00 1.346E-01
                                         1.065E+01 0.000E+00 0.000E+00 3.647E-01
                                         3.870E+00 0.000E+00 0.000E+00 4.904E-01
                          87-    91 D  
                                         1.342E+00 0.000E+00 0.000E+00 1.000E+00
                          92-    96 D  
                                         4.101E-01 0.000E+00 0.000E+00 1.000E+00
                          97-   101 D  
                                         1.985E-01 0.000E+00 0.000E+00 1.000E+00
  10 BR   7.567   0.373   3.441
  11 BR  -0.373   7.567  -3.441
  12 BR   0.373  -7.567  -3.441
  13 H   -3.031   1.096   3.116
  14 H    3.031  -1.096   3.116
  15 H    1.096   3.031  -3.116
  16 H   -1.096  -3.031  -3.116
  17 C   -4.518  -6.028   2.928
                                245 S  
                                         1.238E+03 5.457E-03 0.000E+00 0.000E+00
                                         1.863E+02 4.064E-02 0.000E+00 0.000E+00
                                         4.225E+01 1.803E-01 0.000E+00 0.000E+00
                                         1.168E+01 4.632E-01 0.000E+00 0.000E+00
                                         3.593E+00 4.409E-01 0.000E+00 0.000E+00
                                246 S  
                                         5.281E+00 1.000E+00 0.000E+00 0.000E+00
                                247 S  
                                         4.447E-01 1.000E+00 0.000E+00 0.000E+00
                         248-   250 P  
                                         9.468E+00 0.000E+00 3.839E-02 0.000E+00
                                         2.010E+00 0.000E+00 2.112E-01 0.000E+00
                                         5.477E-01 0.000E+00 5.133E-01 0.000E+00
                         251-   253 P  
                                         1.604E-01 0.000E+00 1.000E+00 0.000E+00
                         254-   258 D  
                                         6.070E-01 0.000E+00 0.000E+00 1.000E+00
                         259-   263 D  
                                         2.939E-01 0.000E+00 0.000E+00 1.000E+00
  18 C    4.518   6.028   2.928
  19 C   -6.028   4.518  -2.928
  20 C    6.028  -4.518  -2.928
  21 C   -4.772  -8.769   3.090
  22 C    4.772   8.769   3.090
  23 C   -8.769   4.772  -3.090
  24 C    8.769  -4.772  -3.090
  25 C   -6.558  -4.345   3.199
  26 C    6.558   4.345   3.199
  27 C   -4.345   6.558  -3.199
  28 C    4.345  -6.558  -3.199
  29 C   -3.538  -0.910   3.025
  30 C    3.538   0.910   3.025
  31 C   -0.910   3.538  -3.025
  32 C    0.910  -3.538  -3.025
  33 C   -2.084  -4.998   2.623
  34 C    2.084   4.998   2.623
  35 C   -4.998   2.084  -2.623
  36 C    4.998  -2.084  -2.623
  37 C    6.047   1.755   3.221
  38 C   -6.047  -1.755   3.221
  39 C    1.755  -6.047  -3.221
  40 C   -1.755   6.047  -3.221
  41 N   -3.057   8.884   4.203
                                701 S  
                                         1.713E+03-5.393E-03 0.000E+00 0.000E+00
                                         2.576E+02-4.022E-02 0.000E+00 0.000E+00
                                         5.846E+01-1.793E-01 0.000E+00 0.000E+00
                                         1.620E+01-4.638E-01 0.000E+00 0.000E+00
                                         5.005E+00-4.417E-01 0.000E+00 0.000E+00
                                702 S  
                                         6.217E-01 1.000E+00 0.000E+00 0.000E+00
                                703 S  
                                         2.921E-01 1.000E+00 0.000E+00 0.000E+00
                         704-   706 P  
                                         1.357E+01 0.000E+00-4.007E-02 0.000E+00
                                         2.926E+00 0.000E+00-2.181E-01 0.000E+00
                                         7.993E-01 0.000E+00-5.129E-01 0.000E+00
                         707-   709 P  
                                         2.244E-01 0.000E+00 1.000E+00 0.000E+00
                         710-   714 D  
                                         3.118E-01 0.000E+00 0.000E+00 1.000E+00
  42 N    3.057  -8.884   4.203
  43 N    8.884   3.057  -4.203
  44 N   -8.884  -3.057  -4.203
  45 N   -3.954   6.447   4.014
  46 N    3.954  -6.447   4.014
  47 N    6.447   3.954  -4.014
  48 N   -6.447  -3.954  -4.014
  49 N    2.915  -0.618 -10.340
  50 N   -2.915   0.618 -10.340
  51 N   -0.618  -2.915  10.340
  52 N    0.618   2.915  10.340
  53 N   -6.142   6.505   2.834
  54 N    6.142  -6.505   2.834
  55 N    6.505   6.142  -2.834
  56 N   -6.505  -6.142  -2.834
  57 N   -1.585  -2.519   2.711
  58 N    1.585   2.519   2.711
  59 N   -2.519   1.585  -2.711
  60 N    2.519  -1.585  -2.711
  61 ZN   0.000   9.598 -18.842
                                981 S  
                                         8.200E+04 1.421E-03 0.000E+00 0.000E+00
                                         1.231E+04 1.089E-02 0.000E+00 0.000E+00
                                         2.801E+03 5.406E-02 0.000E+00 0.000E+00
                                         7.910E+02 1.885E-01 0.000E+00 0.000E+00
                                         2.576E+02 3.835E-01 0.000E+00 0.000E+00
                                         8.881E+01 2.972E-01 0.000E+00 0.000E+00
                                982 S  
                                         1.719E+02-1.105E-01 0.000E+00 0.000E+00
                                         2.030E+01 6.461E-01 0.000E+00 0.000E+00
                                         8.346E+00 4.422E-01 0.000E+00 0.000E+00
                                983 S  
                                         1.485E+01-2.271E-01 0.000E+00 0.000E+00
                                         2.450E+00 7.243E-01 0.000E+00 0.000E+00
                                         9.985E-01 4.484E-01 0.000E+00 0.000E+00
                                984 S  
                                         1.493E+00 1.000E+00 0.000E+00 0.000E+00
                                985 S  
                                         1.830E-01 1.000E+00 0.000E+00 0.000E+00
                         986-   988 P  
                                         1.072E+03 0.000E+00 9.277E-03 0.000E+00
                                         2.527E+02 0.000E+00 6.954E-02 0.000E+00
                                         8.010E+01 0.000E+00 2.716E-01 0.000E+00
                                         2.890E+01 0.000E+00 5.340E-01 0.000E+00
                                         1.077E+01 0.000E+00 3.450E-01 0.000E+00
                         989-   991 P  
                                         5.645E+00 0.000E+00 3.413E-01 0.000E+00
                                         2.168E+00 0.000E+00 5.639E-01 0.000E+00
                                         8.054E-01 0.000E+00 2.368E-01 0.000E+00
                         992-   994 P  
                                         2.721E-01 0.000E+00 1.000E+00 0.000E+00
                         995-   999 D  
                                         5.609E+01 0.000E+00 0.000E+00 2.959E-02
                                         1.575E+01 0.000E+00 0.000E+00 1.587E-01
                                         5.312E+00 0.000E+00 0.000E+00 3.798E-01
                                         1.774E+00 0.000E+00 0.000E+00 4.690E-01
                        1000-  1004 D  
                                         5.073E-01 0.000E+00 0.000E+00 1.000E+00
                        1005-  1011 F  
                                         2.814E+00 0.000E+00 0.000E+00 1.000E+00
                        1012-  1018 F  
                                         1.300E+00 0.000E+00 0.000E+00 1.000E+00
  62 ZN   0.000   0.000  12.561

 *******************************************************************************
 FINISHED BASIS SET HANDLING 
 *******************************************************************************

 INFORMATION **** SET_MPP **** PCRYSTAL CALCULATION
 INFORMATION **** READM2 **** NEW DEFAULT: FOCK/KS MATRIX MIXING SET TO 30 %
 INFORMATION **** READM2 **** NEW DEFAULT: FULL DIRECT SCF MODE
 INFORMATION **** READM2 **** NEW DEFAULT: COULOMB BIPOLAR BUFFER SET TO 32 Mb
 INFORMATION **** READM2 **** NEW DEFAULT: EXCHANGE BIPOLAR BUFFER SET TO 32 Mb

 *******************************************************************************
 NEW DEFAULT: DFT INTEGRATION GRID INCREASED TO XLGRID
 NEW DEFAULT: DIIS ACCELERATOR ACTIVE
 USE KEYWORD NODIIS TO TURN IT OFF
 *******************************************************************************

 INFORMATION **** DFTD3_INPUT **** PERFORM DISPERSION CORRECTION DFT-D3(BJ) IN THE BECKE-JOHNSON DAMPING SCHEME

 PLEASE CITE:
 (1) DFT-D3 Reference
  S. Grimme, J. Antony, S. Ehrlich, and H. Krieg, J. Chem. Phys. 132 (2010), 154104
 (2) BJ-Damping Reference
  S. Grimme, S. Ehrlich, and L. Goerigk, J. Comput. Chem. 32 (2011), 1456-1465
 (3) General DFT-D Review
  S. Grimme, A. Hansen, J. G. Brandenburg, and C. Bannwarth,
  Chem. Rev. 116 (2016), 5105-5154

 INFORMATION **** BIPOSIZE **** COULOMB BIPOLAR BUFFER SET TO    30000000
 INFORMATION **** EXCHSIZE **** EXCHANGE BIPOLAR BUFFER SIZE SET TO    30000000
 INFORMATION **** TOLINTEG **** COULOMB AND EXCHANGE SERIES TOLERANCES MODIFIED
 INFORMATION **** MAXCYCLE **** MAX NUMBER OF SCF CYCLES SET TO          50
 *******************************************************************************
 N. OF ATOMS PER CELL        62  COULOMB OVERLAP TOL         (T1) 10**  -12
 NUMBER OF SHELLS           412  COULOMB PENETRATION TOL     (T2) 10**  -12
 NUMBER OF AO              1056  EXCHANGE OVERLAP TOL        (T3) 10**   20
 N. OF ELECTRONS PER CELL   496  EXCHANGE PSEUDO OVP (F(G))  (T4) 10**   20
 CORE ELECTRONS PER CELL    236  EXCHANGE PSEUDO OVP (P(G))  (T5) 10**   20
 N. OF SYMMETRY OPERATORS     4  POLE ORDER IN MONO ZONE                  4
 *******************************************************************************
 TYPE OF CALCULATION :  RESTRICTED CLOSED SHELL
 KOHN-SHAM HAMILTONIAN

 (EXCHANGE)[CORRELATION] FUNCTIONAL:(PERDEW-BURKE-ERNZERHOF)[PERDEW-BURKE-ERNZERHOF]


 CAPPA:IS1  3;IS2  3;IS3  3; K PTS MONK NET   6; SYMMOPS:K SPACE   8;G SPACE   4

 *******************************************************************************
 MAX NUMBER OF SCF CYCLES      50  CONVERGENCE ON DELTAP        10**-16
 WEIGHT OF F(I) IN F(I+1)      30% CONVERGENCE ON ENERGY        10**- 7
 SHRINK. FACT.(MONKH.)    3  3  3  NUMBER OF K POINTS IN THE IBZ      6
 SHRINKING FACTOR(GILAT NET)    3  NUMBER OF K POINTS(GILAT NET)      6
 *******************************************************************************
 *** K POINTS COORDINATES (OBLIQUE COORDINATES IN UNITS OF IS =  3)
   1-R(  0  0  0)   2-C(  1  0  0)   3-C(  1  1  0)   4-C(  2  1  0)
   5-C(  2  1  1)   6-C(  2  2  1)

 DIRECT LATTICE VECTORS COMPON. (A.U.)     RECIP. LATTICE VECTORS COMPON. (A.U.) 
        X            Y            Z              X            Y            Z
   -9.5979190    9.5979190   12.5610096      0.0000000    0.3273202    0.2501067
    9.5979190   -9.5979190   12.5610096      0.3273202    0.0000000    0.2501067
    9.5979190    9.5979190  -12.5610096      0.3273202    0.3273202    0.0000000

 DISK SPACE FOR EIGENVECTORS (FTN 10)    12266496 REALS

 SYMMETRY ADAPTION OF THE BLOCH FUNCTIONS ENABLED
 TTTTTTTTTTTTTTTTTTTTTTTTTTTTTT gordsh1     TELAPSE        1.12 TCPU        0.04

 MATRIX SIZE: P(G) 2106720, F(G) 1054488, P(G) IRR  266416, F(G) IRR  266416
 MAX G-VECTOR INDEX FOR 1- AND 2-ELECTRON INTEGRALS  63

 TTTTTTTTTTTTTTTTTTTTTTTTTTTTTT INPUT       TELAPSE        1.21 TCPU        0.13

 NEIGHBORS OF THE NON-EQUIVALENT ATOMS

 N = NUMBER OF NEIGHBORS AT DISTANCE R
    ATOM  N     R/ANG      R/AU   NEIGHBORS (ATOM LABELS AND CELL INDICES)
   1 H    1     1.0950     2.0692   25 C    0 0 1
   1 H    1     2.1707     4.1021   38 C    0 0 1
   1 H    1     2.1834     4.1260   17 C    0 0 1
   1 H    1     2.5186     4.7595    9 BR   0 0 1
   1 H    1     2.5548     4.8279   54 N    0-1 0
   1 H    1     2.7928     5.2776   21 C    0 0 1

   5 H    1     1.0945     2.0684   33 C    0 0 0
   5 H    1     2.0667     3.9055   57 N    0 0 0
   5 H    1     2.1759     4.1119   17 C    0 0 0
   5 H    1     2.5126     4.7480   46 N    0 0 0
   5 H    1     2.5429     4.8053   42 N    0 0 0
   5 H    1     2.6801     5.0646   21 C    0 0 0

   9 BR   1     1.0933     2.0660   38 C    0 0 0
   9 BR   1     2.1620     4.0855   29 C    0 0 0
   9 BR   1     2.1723     4.1051   25 C    0 0 0
   9 BR   1     2.1857     4.1305   10 BR   0-1-1
   9 BR   1     2.5186     4.7595    1 H    0 0-1
   9 BR   1     2.5285     4.7782   13 H    0 0 0

  13 H    1     1.0959     2.0709   29 C    0 0 0
  13 H    1     2.0715     3.9145   57 N    0 0 0
  13 H    1     2.1965     4.1508   38 C    0 0 0
  13 H    1     2.5285     4.7782    9 BR   0 0 0
  13 H    1     2.5654     4.8479   58 N    0 0 0
  13 H    1     2.9124     5.5037   45 N    0 0 0

  17 C    1     1.4070     2.6588   25 C    0 0 0
  17 C    1     1.4077     2.6602   33 C    0 0 0
  17 C    1     1.4594     2.7579   21 C    0 0 0
  17 C    1     2.1759     4.1119    5 H    0 0 0
  17 C    1     2.1834     4.1260    1 H    0 0-1
  17 C    1     2.4067     4.5479   38 C    0 0 0

  21 C    1     1.3492     2.5496   49 N    0 0-1
  21 C    1     1.3553     2.5611   41 N   -1 0-1
  21 C    1     1.4594     2.7579   17 C    0 0 0
  21 C    1     2.2025     4.1620   53 N   -1 0-1
  21 C    1     2.2049     4.1667   45 N   -1 0-1
  21 C    1     2.4633     4.6549   33 C    0 0 0

  25 C    1     1.0950     2.0692    1 H    0 0-1
  25 C    1     1.3970     2.6400   38 C    0 0 0
  25 C    1     1.4070     2.6588   17 C    0 0 0
  25 C    1     2.1723     4.1051    9 BR   0 0 0
  25 C    1     2.4118     4.5577   33 C    0 0 0
  25 C    1     2.4219     4.5767   29 C    0 0 0

  29 C    1     1.0959     2.0709   13 H    0 0 0
  29 C    1     1.3493     2.5497   57 N    0 0 0
  29 C    1     1.4046     2.6543   38 C    0 0 0
  29 C    1     2.1620     4.0855    9 BR   0 0 0
  29 C    1     2.3056     4.3570   33 C    0 0 0
  29 C    1     2.4219     4.5767   25 C    0 0 0

  33 C    1     1.0945     2.0684    5 H    0 0 0
  33 C    1     1.3387     2.5298   57 N    0 0 0
  33 C    1     1.4077     2.6602   17 C    0 0 0
  33 C    1     2.3056     4.3570   29 C    0 0 0
  33 C    1     2.4118     4.5577   25 C    0 0 0
  33 C    1     2.4633     4.6549   21 C    0 0 0

  37 C    1     1.0933     2.0660   10 BR   0 0 0
  37 C    1     1.3970     2.6400   26 C    0 0 0
  37 C    1     1.4046     2.6543   30 C    0 0 0
  37 C    1     2.1707     4.1021    2 H    1 1 1
  37 C    1     2.1965     4.1508   14 H    0 0 0
  37 C    1     2.4067     4.5479   18 C    0 0 0

  41 N    1     1.3553     2.5611   21 C    1 0 1
  41 N    1     1.3781     2.6042   45 N    0 0 0
  41 N    1     1.9919     3.7642   61 ZN   1 1 0
  41 N    1     2.1855     4.1299   53 N    0 0 0
  41 N    1     2.1874     4.1336   49 N    1 0 0
  41 N    1     2.4882     4.7020   17 C    1 0 1

  45 N    1     1.3160     2.4870   53 N    0 0 0
  45 N    1     1.3781     2.6042   41 N    0 0 0
  45 N    1     2.1869     4.1326   49 N    1 0 0
  45 N    1     2.2049     4.1667   21 C    1 0 1
  45 N    1     2.5126     4.7480    6 H    0 0 0
  45 N    1     2.9124     5.5037   13 H    0 0 0

  49 N    1     1.3492     2.5496   21 C    0 0 1
  49 N    1     1.3792     2.6063   53 N   -1 0 0
  49 N    1     1.9667     3.7164   62 ZN  -1-1 0
  49 N    1     2.1869     4.1326   45 N   -1 0 0
  49 N    1     2.1874     4.1336   41 N   -1 0 0
  49 N    1     2.5229     4.7676   17 C    0 0 1

  53 N    1     1.3160     2.4870   45 N    0 0 0
  53 N    1     1.3792     2.6063   49 N    1 0 0
  53 N    1     2.1855     4.1299   41 N    0 0 0
  53 N    1     2.2025     4.1620   21 C    1 0 1
  53 N    1     2.5548     4.8279    2 H    1 0 0
  53 N    1     2.8762     5.4352   62 ZN   0-1 0

  57 N    1     1.3387     2.5298   33 C    0 0 0
  57 N    1     1.3493     2.5497   29 C    0 0 0
  57 N    1     2.0667     3.9055    5 H    0 0 0
  57 N    1     2.0715     3.9145   13 H    0 0 0
  57 N    1     2.4105     4.5552   38 C    0 0 0
  57 N    1     2.4226     4.5781   17 C    0 0 0

  61 ZN   4     1.9919     3.7642   41 N   -1-1 0   42 N    0-1 1   43 N    0-1 0
                                    44 N    0 0 1
  61 ZN   4     2.7756     5.2452    5 H    0-1 1    6 H   -1-1 0    7 H    0 0 1
                                     8 H    0-1 0
  61 ZN   4     2.9319     5.5406   45 N   -1-1 0   46 N    0-1 1   47 N    0-1 0
                                    48 N    0 0 1
  61 ZN   4     3.0692     5.7999   21 C    0-1 1   22 C   -1-1 0   23 C    0 0 1
                                    24 C    0-1 0
  61 ZN   4     3.2996     6.2354   33 C    0-1 1   34 C   -1-1 0   35 C    0 0 1
                                    36 C    0-1 0
  61 ZN   4     3.5259     6.6629   17 C    0-1 1   18 C   -1-1 0   19 C    0 0 1
                                    20 C    0-1 0

  62 ZN   4     1.9667     3.7164   49 N    1 1 0   50 N    1 1 0   51 N    0 0 0
                                    52 N    0 0 0
  62 ZN   4     2.8762     5.4352   53 N    0 1 0   54 N    1 0 0   55 N    0 0-1
                                    56 N    1 1 1
  62 ZN   4     3.0639     5.7900   21 C    1 1 1   22 C    0 0-1   23 C    0 1 0
                                    24 C    1 0 0
  62 ZN   4     3.0753     5.8115    1 H    1 1 0    2 H    1 1 0    3 H    0 0 0
                                     4 H    0 0 0
  62 ZN   4     3.6307     6.8610   25 C    1 1 1   26 C    0 0-1   27 C    0 1 0
                                    28 C    1 0 0
  62 ZN   4     3.6327     6.8649   17 C    1 1 1   18 C    0 0-1   19 C    0 1 0
                                    20 C    1 0 0


 SYMMETRY ALLOWED ELASTIC DISTORTION 1
  0.5773503  0.0000000  0.0000000
  0.0000000  0.5773503  0.0000000
  0.0000000  0.0000000  0.5773503

 SYMMETRY ALLOWED ELASTIC DISTORTION 2
  0.4082483  0.0000000  0.0000000
  0.0000000  0.4082483  0.0000000
  0.0000000  0.0000000 -0.8164966

 SYMMETRY ALLOWED INTERNAL DEGREE(S) OF FREEDOM:  45
 TTTTTTTTTTTTTTTTTTTTTTTTTTTTTT SYMM        TELAPSE        3.80 TCPU        2.68
 TTTTTTTTTTTTTTTTTTTTTTTTTTTTTT INT_SCREEN  TELAPSE        3.83 TCPU        2.71

 *******************************************************************************
 *                             OPTIMIZATION STARTS                             *
 *******************************************************************************
 RECLASIFICATION OF INDICES FOR INTEGRAL CALC ACCORDING TO DIFFERENT CRITERIA:
           FIXDELTE                  FIXDELTX              FIXDELTN
          0.10000000               0.80000000                 47
 DEFAULT MAX NUM OF POINTS  100
 *******************************************************************************

 *******************************************************************************
 COORDINATE AND CELL OPTIMIZATION - POINT    1
 INFORMATION **** EXCBUF **** EXCH. BIPO BUFFER: WORDS USED =           0

 DFT PARAMETERS

     ATOM       ELECTRONS   NET CHARGE   R(ANGSTROM)
   1   1  H       1.0000      0.0000     1.11000000
   9  35  BR     35.0000      0.0000     1.14000000
  17   6  C       6.0000      0.0000     0.77000000
  41   7  N       7.0000      0.0000     0.74000000
  61  30  ZN     30.0000      0.0000     1.37000000

 SIZE OF GRID=     441201
 TTTTTTTTTTTTTTTTTTTTTTTTTTTTTT MAKE_GRID2  TELAPSE       10.62 TCPU        9.45
 BECKE WEIGHT FUNCTION
 RADSAFE =     2.00
 TOLERANCES - DENSITY:10**- 6; POTENTIAL:10**- 9; GRID WGT:10**-14

 RADIAL INTEGRATION  - INTERVALS (POINTS,UPPER LIMIT):            1( 75,  4.0*R)

 ANGULAR INTEGRATION - INTERVALS (ACCURACY LEVEL [N. POINTS] UPPER LIMIT):
  1(  4[  86]   0.2)  2(  8[ 194]   0.5)  3( 12[ 350]   0.9)  4( 16[ 974]   3.5)
  5( 12[ 350]9999.0)
 TTTTTTTTTTTTTTTTTTTTTTTTTTTTTT INT_CALC    TELAPSE       10.76 TCPU        9.60

 *******************************************************************************
 C:\Users\wilso\AppData\Local\Temp\tmp_p\newconn.mol                             
 CRYSTAL - SCF - TYPE OF CALCULATION :  RESTRICTED CLOSED SHELL
 *******************************************************************************

 CAPPA:IS1  3;IS2  3;IS3  3; K PTS MONK NET   6; SYMMOPS:K SPACE   8;G SPACE   4

 TTTTTTTTTTTTTTTTTTTTTTTTTTTTTT SDIK        TELAPSE       11.05 TCPU        9.88

 AAAAAAAAAAAAAAAAAAAAAAAAAAAAAAAAAAAAAAAAAAAAAAAAAAAAAAAAAAAAAAAAAAAAAAAAAAAAAAA
         ATOMIC WAVEFUNCTION(S)


 NUCLEAR CHARGE  1.0  SYMMETRY SPECIES            S
 N. ELECTRONS    1.0  NUMBER OF PRIMITIVE GTOS    4
                      NUMBER OF CONTRACTED GTOS   2
                      NUMBER OF CLOSED SHELLS     0
                      OPEN SHELL OCCUPATION       1

  ZNUC SCFIT  TOTAL HF ENERGY   KINETIC ENERGY   VIRIAL THEOREM ACCURACY
   1.0   1   -4.946643675E-01  4.917913167E-01 -2.005842012E+00  9.4E-17

 NUCLEAR CHARGE 35.0  SYMMETRY SPECIES            S    P    D
 N. ELECTRONS   35.0  NUMBER OF PRIMITIVE GTOS   14   10    7
                      NUMBER OF CONTRACTED GTOS   5    4    4
                      NUMBER OF CLOSED SHELLS     4    2    1
                      OPEN SHELL OCCUPATION       0    5    0

  ZNUC SCFIT  TOTAL HF ENERGY   KINETIC ENERGY   VIRIAL THEOREM ACCURACY
  35.0  13   -2.572060514E+03  2.572021521E+03 -2.000015161E+00  3.6E-06

 NUCLEAR CHARGE  6.0  SYMMETRY SPECIES            S    P
 N. ELECTRONS    6.0  NUMBER OF PRIMITIVE GTOS    7    4
                      NUMBER OF CONTRACTED GTOS   3    2
                      NUMBER OF CLOSED SHELLS     2    0
                      OPEN SHELL OCCUPATION       0    2

  ZNUC SCFIT  TOTAL HF ENERGY   KINETIC ENERGY   VIRIAL THEOREM ACCURACY
   6.0   6   -3.750912652E+01  3.905246519E+01 -1.960480378E+00  3.7E-06

 NUCLEAR CHARGE  7.0  SYMMETRY SPECIES            S    P
 N. ELECTRONS    7.0  NUMBER OF PRIMITIVE GTOS    7    4
                      NUMBER OF CONTRACTED GTOS   3    2
                      NUMBER OF CLOSED SHELLS     2    0
                      OPEN SHELL OCCUPATION       0    3

  ZNUC SCFIT  TOTAL HF ENERGY   KINETIC ENERGY   VIRIAL THEOREM ACCURACY
   7.0   9   -5.432196661E+01  5.425066284E+01 -2.001314339E+00  1.2E-06

 NUCLEAR CHARGE 30.0  SYMMETRY SPECIES            S    P    D
 N. ELECTRONS   30.0  NUMBER OF PRIMITIVE GTOS   14    9    5
                      NUMBER OF CONTRACTED GTOS   5    3    2
                      NUMBER OF CLOSED SHELLS     4    2    1
                      OPEN SHELL OCCUPATION       0    0    0

  ZNUC SCFIT  TOTAL HF ENERGY   KINETIC ENERGY   VIRIAL THEOREM ACCURACY
  30.0  10   -1.777404290E+03  1.777325716E+03 -2.000044209E+00  2.5E-06

 AAAAAAAAAAAAAAAAAAAAAAAAAAAAAAAAAAAAAAAAAAAAAAAAAAAAAAAAAAAAAAAAAAAAAAAAAAAAAAA

 CHARGE NORMALIZATION FACTOR   1.00000000
 TOTAL ATOMIC CHARGES:
   1.0000000   1.0000000   1.0000000   1.0000000   1.0000000   1.0000000
   1.0000000   1.0000000  35.0000000  35.0000000  35.0000000  35.0000000
   1.0000000   1.0000000   1.0000000   1.0000000   6.0000000   6.0000000
   6.0000000   6.0000000   6.0000000   6.0000000   6.0000000   6.0000000
   6.0000000   6.0000000   6.0000000   6.0000000   6.0000000   6.0000000
   6.0000000   6.0000000   6.0000000   6.0000000   6.0000000   6.0000000
   6.0000000   6.0000000   6.0000000   6.0000000   7.0000000   7.0000000
   7.0000000   7.0000000   7.0000000   7.0000000   7.0000000   7.0000000
   7.0000000   7.0000000   7.0000000   7.0000000   7.0000000   7.0000000
   7.0000000   7.0000000   7.0000000   7.0000000   7.0000000   7.0000000
  30.0000000  30.0000000
 TTTTTTTTTTTTTTTTTTTTTTTTTTTTTT MOQGAD      TELAPSE       13.29 TCPU       12.08
 TTTTTTTTTTTTTTTTTTTTTTTTTTTTTT SHELLXN     TELAPSE      121.33 TCPU      113.43
 TTTTTTTTTTTTTTTTTTTTTTTTTTTTTT MONMO3      TELAPSE      129.67 TCPU      121.75
 NUMERICALLY INTEGRATED DENSITY    496.0001244317
 TTTTTTTTTTTTTTTTTTTTTTTTTTTTTT NUMDFT      TELAPSE      132.34 TCPU      124.40
 CYC   0 ETOT(AU) -1.587544386373E+04 DETOT -1.59E+04 tst  0.00E+00 PX  1.00E+00
 TTTTTTTTTTTTTTTTTTTTTTTTTTTTTT DIIS        TELAPSE      132.44 TCPU      124.50
 TTTTTTTTTTTTTTTTTTTTTTTTTTTTTT FDIK        TELAPSE      175.06 TCPU      160.50
 INSULATING STATE
 TOP OF VALENCE BANDS -    BAND    248; K    3; EIG -1.3263157E-01 AU
 TOP OF VALENCE BANDS -    BAND    248; K    1; EIG -1.3374796E-01 AU
 BOTTOM OF VIRTUAL BANDS - BAND    249; K    6; EIG -1.2759589E-01 AU
 INDIRECT ENERGY BAND GAP:   0.1370 eV
 BOTTOM OF VIRTUAL BANDS - BAND    249; K    1; EIG -1.2330627E-01 AU
 TTTTTTTTTTTTTTTTTTTTTTTTTTTTTT PDIG        TELAPSE      175.81 TCPU      161.25
 CHARGE NORMALIZATION FACTOR   1.00000000
 TOTAL ATOMIC CHARGES:
   1.1723277   1.1723277   1.1723277   1.1723277   1.3265623   1.3265623
   1.3265623   1.3265623  34.3140673  34.3140673  34.3140673  34.3140673
   1.1993582   1.1993582   1.1993582   1.1993582   5.9882821   5.9882821
   5.9882821   5.9882821   5.4673470   5.4673470   5.4673470   5.4673470
   6.0165881   6.0165881   6.0165881   6.0165881   5.6090494   5.6090494
   5.6090494   5.6090494   5.9071754   5.9071754   5.9071754   5.9071754
   6.7440875   6.7440875   6.7440875   6.7440875   7.3522401   7.3522401
   7.3522401   7.3522401   7.1729519   7.1729519   7.1729519   7.1729519
   7.3532590   7.3532590   7.3532590   7.3532590   7.1576575   7.1576575
   7.1576575   7.1576575   7.4622914   7.4622914   7.4622914   7.4622914
  27.4126123  27.6144074
 TTTTTTTTTTTTTTTTTTTTTTTTTTTTTT MOQGAD      TELAPSE      175.87 TCPU      161.31
 TTTTTTTTTTTTTTTTTTTTTTTTTTTTTT SHELLXN     TELAPSE      293.24 TCPU      278.31
 TTTTTTTTTTTTTTTTTTTTTTTTTTTTTT MONMO3      TELAPSE      302.59 TCPU      287.65
 NUMERICALLY INTEGRATED DENSITY    496.0000740975
 TTTTTTTTTTTTTTTTTTTTTTTTTTTTTT NUMDFT      TELAPSE      311.12 TCPU      296.15
 CYC   1 ETOT(AU) -1.585743570949E+04 DETOT  1.80E+01 tst  0.00E+00 PX  1.00E+00
 TTTTTTTTTTTTTTTTTTTTTTTTTTTTTT DIIS        TELAPSE      311.29 TCPU      296.32
 DIIS TEST: 0.20076E+02 AT SCF   CYCLE   1 - MIX   30 %
 TTTTTTTTTTTTTTTTTTTTTTTTTTTTTT FDIK        TELAPSE      323.64 TCPU      308.54
 POSSIBLY CONDUCTING STATE - EFERMI(AU) -1.1074979E-01 (RES. CHARGE  2.68E-10;IT. 14)
 TTTTTTTTTTTTTTTTTTTTTTTTTTTTTT PDIG        TELAPSE      324.37 TCPU      309.27
 CHARGE NORMALIZATION FACTOR   1.00000000
 TOTAL ATOMIC CHARGES:
   1.2599777   1.2599777   1.2599777   1.2599777   1.4285977   1.4285977
   1.4285977   1.4285977  34.8527118  34.8527118  34.8527118  34.8527118
   1.0844711   1.0844711   1.0844711   1.0844711   6.2027047   6.2027047
   6.2027047   6.2027047   6.5310143   6.5310143   6.5310143   6.5310143
   6.1756601   6.1756601   6.1756601   6.1756601   5.9520084   5.9520084
   5.9520084   5.9520084   6.1038568   6.1038568   6.1038568   6.1038568
   5.9932908   5.9932908   5.9932908   5.9932908   7.3376773   7.3376773
   7.3376773   7.3376773   6.8136516   6.8136516   6.8136516   6.8136516
   7.2486613   7.2486613   7.2486613   7.2486613   6.8478919   6.8478919
   6.8478919   6.8478919   4.8785816   4.8785816   4.8785816   4.8785816
  30.9092922  30.2476787
 TTTTTTTTTTTTTTTTTTTTTTTTTTTTTT MOQGAD      TELAPSE      324.43 TCPU      309.33
 TTTTTTTTTTTTTTTTTTTTTTTTTTTTTT SHELLXN     TELAPSE      443.15 TCPU      426.59
 TTTTTTTTTTTTTTTTTTTTTTTTTTTTTT MONMO3      TELAPSE      452.94 TCPU      436.35
 NUMERICALLY INTEGRATED DENSITY    496.0000831712
 TTTTTTTTTTTTTTTTTTTTTTTTTTTTTT NUMDFT      TELAPSE      461.22 TCPU      444.61
 CYC   2 ETOT(AU) -1.584874437941E+04 DETOT  8.69E+00 tst  1.47E-01 PX  2.45E+00
 TTTTTTTTTTTTTTTTTTTTTTTTTTTTTT DIIS        TELAPSE      461.42 TCPU      444.81
 DIIS TEST: 0.74362E+02 AT SCF   CYCLE   2 - DIIS ACTIVE - HISTORY:     2 CYCLES
 TTTTTTTTTTTTTTTTTTTTTTTTTTTTTT FDIK        TELAPSE      476.84 TCPU      457.86
 INSULATING STATE
 TOP OF VALENCE BANDS -    BAND    248; K    5; EIG -1.8686545E-01 AU
 TOP OF VALENCE BANDS -    BAND    248; K    1; EIG -1.8902024E-01 AU
 BOTTOM OF VIRTUAL BANDS - BAND    249; K    5; EIG -1.3766126E-01 AU
 DIRECT ENERGY BAND GAP:   1.3389 eV
 BOTTOM OF VIRTUAL BANDS - BAND    249; K    1; EIG -1.3151138E-01 AU
 TTTTTTTTTTTTTTTTTTTTTTTTTTTTTT PDIG        TELAPSE      477.79 TCPU      458.82
 CHARGE NORMALIZATION FACTOR   1.00000000
 TOTAL ATOMIC CHARGES:
   1.1619424   1.1619424   1.1619424   1.1619424   1.2369126   1.2369126
   1.2369126   1.2369126  34.7879046  34.7879046  34.7879046  34.7879046
   1.1220401   1.1220401   1.1220401   1.1220401   5.8229393   5.8229393
   5.8229393   5.8229393   5.8848843   5.8848843   5.8848843   5.8848843
   5.6146765   5.6146765   5.6146765   5.6146765   6.3984919   6.3984919
   6.3984919   6.3984919   5.8613751   5.8613751   5.8613751   5.8613751
   5.9521815   5.9521815   5.9521815   5.9521815   6.5671791   6.5671791
   6.5671791   6.5671791   7.1173978   7.1173978   7.1173978   7.1173978
   6.6550388   6.6550388   6.6550388   6.6550388   7.0744547   7.0744547
   7.0744547   7.0744547   7.8425116   7.8425116   7.8425116   7.8425116
  29.8186898  29.7815888
 TTTTTTTTTTTTTTTTTTTTTTTTTTTTTT MOQGAD      TELAPSE      477.85 TCPU      458.87
 TTTTTTTTTTTTTTTTTTTTTTTTTTTTTT SHELLXN     TELAPSE      595.35 TCPU      575.89
 TTTTTTTTTTTTTTTTTTTTTTTTTTTTTT MONMO3      TELAPSE      605.47 TCPU      585.98
 NUMERICALLY INTEGRATED DENSITY    496.0001069529
 TTTTTTTTTTTTTTTTTTTTTTTTTTTTTT NUMDFT      TELAPSE      613.84 TCPU      594.33
 CYC   3 ETOT(AU) -1.585678796165E+04 DETOT -8.04E+00 tst  4.14E-01 PX  1.77E+00
 TTTTTTTTTTTTTTTTTTTTTTTTTTTTTT DIIS        TELAPSE      614.05 TCPU      594.54
 DIIS TEST: 0.21245E+02 AT SCF   CYCLE   3 - DIIS ACTIVE - HISTORY:     3 CYCLES
 TTTTTTTTTTTTTTTTTTTTTTTTTTTTTT FDIK        TELAPSE      625.93 TCPU      606.28
 INSULATING STATE
 TOP OF VALENCE BANDS -    BAND    248; K    3; EIG -1.7299917E-01 AU
 TOP OF VALENCE BANDS -    BAND    248; K    1; EIG -1.7630248E-01 AU
 BOTTOM OF VIRTUAL BANDS - BAND    249; K    6; EIG -1.2490330E-01 AU
 INDIRECT ENERGY BAND GAP:   1.3088 eV
 BOTTOM OF VIRTUAL BANDS - BAND    249; K    1; EIG -1.2454578E-01 AU
 TTTTTTTTTTTTTTTTTTTTTTTTTTTTTT PDIG        TELAPSE      626.65 TCPU      607.01
 CHARGE NORMALIZATION FACTOR   1.00000000
 TOTAL ATOMIC CHARGES:
   1.1040730   1.1040730   1.1040730   1.1040730   1.2566602   1.2566602
   1.2566602   1.2566602  34.8824234  34.8824234  34.8824234  34.8824234
   1.1799233   1.1799233   1.1799233   1.1799233   6.0885782   6.0885782
   6.0885782   6.0885782   5.6589143   5.6589143   5.6589143   5.6589143
   6.2718774   6.2718774   6.2718774   6.2718774   5.5101479   5.5101479
   5.5101479   5.5101479   6.0321241   6.0321241   6.0321241   6.0321241
   6.3300532   6.3300532   6.3300532   6.3300532   7.2145363   7.2145363
   7.2145363   7.2145363   6.9848728   6.9848728   6.9848728   6.9848728
   7.2312315   7.2312315   7.2312315   7.2312315   7.0317253   7.0317253
   7.0317253   7.0317253   6.8501641   6.8501641   6.8501641   6.8501641
  28.7048214  28.7859589
 TTTTTTTTTTTTTTTTTTTTTTTTTTTTTT MOQGAD      TELAPSE      626.71 TCPU      607.06
 TTTTTTTTTTTTTTTTTTTTTTTTTTTTTT SHELLXN     TELAPSE      746.44 TCPU      724.19
 TTTTTTTTTTTTTTTTTTTTTTTTTTTTTT MONMO3      TELAPSE      755.93 TCPU      733.65
 NUMERICALLY INTEGRATED DENSITY    496.0000777852
 TTTTTTTTTTTTTTTTTTTTTTTTTTTTTT NUMDFT      TELAPSE      764.22 TCPU      741.91
 CYC   4 ETOT(AU) -1.585985646996E+04 DETOT -3.07E+00 tst  2.33E-02 PX  6.47E-01
 TTTTTTTTTTTTTTTTTTTTTTTTTTTTTT DIIS        TELAPSE      764.40 TCPU      742.10
 DIIS TEST: 0.32372E+01 AT SCF   CYCLE   4 - DIIS ACTIVE - HISTORY:     4 CYCLES
 TTTTTTTTTTTTTTTTTTTTTTTTTTTTTT FDIK        TELAPSE      777.62 TCPU      755.04
 INSULATING STATE
 TOP OF VALENCE BANDS -    BAND    248; K    5; EIG -1.4036165E-01 AU
 TOP OF VALENCE BANDS -    BAND    248; K    1; EIG -1.4332347E-01 AU
 BOTTOM OF VIRTUAL BANDS - BAND    249; K    6; EIG -1.2095054E-01 AU
 INDIRECT ENERGY BAND GAP:   0.5282 eV
 BOTTOM OF VIRTUAL BANDS - BAND    249; K    1; EIG -1.1834418E-01 AU
 TTTTTTTTTTTTTTTTTTTTTTTTTTTTTT PDIG        TELAPSE      778.34 TCPU      755.76
 CHARGE NORMALIZATION FACTOR   1.00000000
 TOTAL ATOMIC CHARGES:
   1.1446979   1.1446979   1.1446979   1.1446979   1.2931954   1.2931954
   1.2931954   1.2931954  34.5209928  34.5209928  34.5209928  34.5209928
   1.1557341   1.1557341   1.1557341   1.1557341   6.0439805   6.0439805
   6.0439805   6.0439805   5.7708612   5.7708612   5.7708612   5.7708612
   5.7880968   5.7880968   5.7880968   5.7880968   6.0843993   6.0843993
   6.0843993   6.0843993   6.1137650   6.1137650   6.1137650   6.1137650
   6.2901948   6.2901948   6.2901948   6.2901948   7.3057076   7.3057076
   7.3057076   7.3057076   7.0905289   7.0905289   7.0905289   7.0905289
   7.1353858   7.1353858   7.1353858   7.1353858   6.9703651   6.9703651
   6.9703651   6.9703651   6.8901990   6.8901990   6.8901990   6.8901990
  28.8136705  28.7939126
 TTTTTTTTTTTTTTTTTTTTTTTTTTTTTT MOQGAD      TELAPSE      778.40 TCPU      755.82
 TTTTTTTTTTTTTTTTTTTTTTTTTTTTTT SHELLXN     TELAPSE      895.60 TCPU      872.61
 TTTTTTTTTTTTTTTTTTTTTTTTTTTTTT MONMO3      TELAPSE      907.76 TCPU      884.73
 NUMERICALLY INTEGRATED DENSITY    496.0000703346
 TTTTTTTTTTTTTTTTTTTTTTTTTTTTTT NUMDFT      TELAPSE      916.13 TCPU      893.09
 CYC   5 ETOT(AU) -1.586001652576E+04 DETOT -1.60E-01 tst  5.26E-03 PX  1.98E-01
 TTTTTTTTTTTTTTTTTTTTTTTTTTTTTT DIIS        TELAPSE      916.32 TCPU      893.28
 DIIS TEST: 0.21791E+01 AT SCF   CYCLE   5 - DIIS ACTIVE - HISTORY:     5 CYCLES
 TTTTTTTTTTTTTTTTTTTTTTTTTTTTTT FDIK        TELAPSE      929.92 TCPU      904.57
 INSULATING STATE
 TOP OF VALENCE BANDS -    BAND    248; K    3; EIG -1.6500966E-01 AU
 TOP OF VALENCE BANDS -    BAND    248; K    1; EIG -1.6824067E-01 AU
 BOTTOM OF VIRTUAL BANDS - BAND    249; K    6; EIG -1.1728388E-01 AU
 INDIRECT ENERGY BAND GAP:   1.2987 eV
 BOTTOM OF VIRTUAL BANDS - BAND    249; K    1; EIG -1.1264590E-01 AU
 TTTTTTTTTTTTTTTTTTTTTTTTTTTTTT PDIG        TELAPSE      930.65 TCPU      905.29
 CHARGE NORMALIZATION FACTOR   1.00000000
 TOTAL ATOMIC CHARGES:
   1.1426354   1.1426354   1.1426354   1.1426354   1.2830184   1.2830184
   1.2830184   1.2830184  34.7494790  34.7494790  34.7494790  34.7494790
   1.1527171   1.1527171   1.1527171   1.1527171   5.9935254   5.9935254
   5.9935254   5.9935254   5.7989639   5.7989639   5.7989639   5.7989639
   6.0505249   6.0505249   6.0505249   6.0505249   5.8008951   5.8008951
   5.8008951   5.8008951   5.9151779   5.9151779   5.9151779   5.9151779
   6.3323486   6.3323486   6.3323486   6.3323486   7.0268438   7.0268438
   7.0268438   7.0268438   7.0121147   7.0121147   7.0121147   7.0121147
   7.1526286   7.1526286   7.1526286   7.1526286   7.1330795   7.1330795
   7.1330795   7.1330795   7.0069124   7.0069124   7.0069124   7.0069124
  28.8781323  28.9184078
 TTTTTTTTTTTTTTTTTTTTTTTTTTTTTT MOQGAD      TELAPSE      930.71 TCPU      905.35
 TTTTTTTTTTTTTTTTTTTTTTTTTTTTTT SHELLXN     TELAPSE     1048.44 TCPU     1022.61
 TTTTTTTTTTTTTTTTTTTTTTTTTTTTTT MONMO3      TELAPSE     1057.74 TCPU     1031.88
 NUMERICALLY INTEGRATED DENSITY    496.0000760472
 TTTTTTTTTTTTTTTTTTTTTTTTTTTTTT NUMDFT      TELAPSE     1066.06 TCPU     1040.18
 CYC   6 ETOT(AU) -1.586026012174E+04 DETOT -2.44E-01 tst  1.87E-03 PX  9.31E-02
 TTTTTTTTTTTTTTTTTTTTTTTTTTTTTT DIIS        TELAPSE     1066.25 TCPU     1040.37
 DIIS TEST: 0.42609E+00 AT SCF   CYCLE   6 - DIIS ACTIVE - HISTORY:     6 CYCLES
 TTTTTTTTTTTTTTTTTTTTTTTTTTTTTT FDIK        TELAPSE     1077.92 TCPU     1051.90
 INSULATING STATE
 TOP OF VALENCE BANDS -    BAND    248; K    3; EIG -1.6481276E-01 AU
 TOP OF VALENCE BANDS -    BAND    248; K    1; EIG -1.6806506E-01 AU
[...]
  61 ZN   4     2.6563     5.0196    5 H    0-1 1    6 H   -1-1 0    7 H    0 0 1
                                     8 H    0-1 0
  61 ZN   4     2.9668     5.6064   45 N   -1-1 0   46 N    0-1 1   47 N    0-1 0
                                    48 N    0 0 1
  61 ZN   4     3.1543     5.9608   21 C    0-1 1   22 C   -1-1 0   23 C    0 0 1
                                    24 C    0-1 0
  61 ZN   4     3.2009     6.0488   33 C    0-1 1   34 C   -1-1 0   35 C    0 0 1
                                    36 C    0-1 0
  61 ZN   4     3.5520     6.7122   17 C    0-1 1   18 C   -1-1 0   19 C    0 0 1
                                    20 C    0-1 0

  62 ZN   4     2.0215     3.8200   49 N    1 1 0   50 N    1 1 0   51 N    0 0 0
                                    52 N    0 0 0
  62 ZN   4     2.8222     5.3331   53 N    0 1 0   54 N    1 0 0   55 N    0 0-1
                                    56 N    1 1 1
  62 ZN   4     3.1992     6.0456   21 C    1 1 1   22 C    0 0-1   23 C    0 1 0
                                    24 C    1 0 0
  62 ZN   4     3.4502     6.5199    1 H    1 1 0    2 H    1 1 0    3 H    0 0 0
                                     4 H    0 0 0
  62 ZN   4     3.9038     7.3772   17 C    1 1 1   18 C    0 0-1   19 C    0 1 0
                                    20 C    1 0 0
  62 ZN   4     4.0069     7.5719   25 C    1 1 1   26 C    0 0-1   27 C    0 1 0
                                    28 C    1 0 0


 FINAL OPTIMIZED GEOMETRY - DIMENSIONALITY OF THE SYSTEM      3
 (NON PERIODIC DIRECTION: LATTICE PARAMETER FORMALLY SET TO 500)
 *******************************************************************************
 LATTICE PARAMETERS (ANGSTROMS AND DEGREES) - BOHR = 0.5291772083 ANGSTROM
 PRIMITIVE CELL - CENTRING CODE 6/0 VOLUME=   737.640687 - DENSITY  2.304 g/cm^3
         A              B              C           ALPHA      BETA       GAMMA 
     9.93941153     9.93941153     9.93941153   114.921085 114.921085  99.047941
 *******************************************************************************
 ATOMS IN THE ASYMMETRIC UNIT   17 - ATOMS IN THE UNIT CELL:   62
     ATOM                 X/A                 Y/B                 Z/C    
 *******************************************************************************
      1 T   1 H    -1.053721338611E-01 -2.721567581926E-01  3.619181701346E-01
      2 F   1 H     3.659250716728E-01 -4.672903039957E-01 -3.619181701346E-01
      3 F   1 H     2.721567581926E-01 -3.659250716728E-01  1.667846243315E-01
      4 F   1 H     4.672903039957E-01  1.053721338611E-01 -1.667846243315E-01
      5 T   1 H    -2.717688523258E-01  6.489294529904E-02 -3.737511481483E-01
      6 F   1 H     4.386440934473E-01  1.019822958225E-01  3.737511481483E-01
      7 F   1 H    -6.489294529904E-02 -4.386440934473E-01 -3.366617976249E-01
      8 F   1 H    -1.019822958225E-01  2.717688523258E-01  3.366617976249E-01
      9 T  35 BR    1.981937168882E-01 -2.057306237586E-01 -2.983282796317E-01
     10 F  35 BR    9.259765587312E-02  4.965219965200E-01  2.983282796317E-01
     11 F  35 BR    2.057306237586E-01 -9.259765587312E-02  4.039243406468E-01
     12 F  35 BR   -4.965219965200E-01 -1.981937168882E-01 -4.039243406468E-01
     13 T   1 H     1.398045143752E-01  2.175313200482E-02 -6.818660708049E-02
     14 F   1 H     8.993973908531E-02  2.079911214557E-01  6.818660708049E-02
     15 F   1 H    -2.175313200482E-02 -8.993973908531E-02  1.180513823704E-01
     16 F   1 H    -2.079911214557E-01 -1.398045143752E-01 -1.180513823704E-01
     17 T   6 C    -2.043670266766E-01 -1.064991181910E-01  4.718448165881E-01
     18 F   6 C     4.216560652209E-01  3.237881567353E-01 -4.718448165881E-01
     19 F   6 C     1.064991181910E-01 -4.216560652209E-01 -9.786790848565E-02
     20 F   6 C    -3.237881567353E-01  2.043670266766E-01  9.786790848565E-02
     21 T   6 C    -3.260075354699E-01 -1.239263541595E-01  3.105099231412E-01
     22 F   6 C    -4.344362773007E-01  3.634825413890E-01 -3.105099231412E-01
     23 F   6 C     1.239263541595E-01  4.344362773007E-01 -2.020811813103E-01
     24 F   6 C    -3.634825413890E-01  3.260075354699E-01  2.020811813103E-01
     25 T   6 C    -9.607122381548E-02 -1.833762027932E-01  4.811384592176E-01
     26 F   6 C     3.354853379892E-01  4.227903169670E-01 -4.811384592176E-01
     27 F   6 C     1.833762027932E-01 -3.354853379892E-01  8.730497897772E-02
     28 F   6 C    -4.227903169670E-01  9.607122381548E-02 -8.730497897772E-02
     29 T   6 C     4.054433346612E-02 -1.563810300712E-02 -1.992705090460E-01
     30 F   6 C     1.836324060389E-01  2.398148425121E-01  1.992705090460E-01
     31 F   6 C     1.563810300712E-02 -1.836324060389E-01  5.618243647324E-02
     32 F   6 C    -2.398148425121E-01 -4.054433346612E-02 -5.618243647324E-02
     33 T   6 C    -1.855686683211E-01  8.385982240018E-03 -3.700687706834E-01
     34 F   6 C     3.784547529234E-01  1.845001023624E-01  3.700687706834E-01
     35 F   6 C    -8.385982240018E-03 -3.784547529234E-01 -1.939546505611E-01
     36 F   6 C    -1.845001023624E-01  1.855686683211E-01  1.939546505611E-01
     37 T   6 C     2.159801603202E-01  3.779472168228E-01  3.499846177570E-01
     38 F   6 C     2.796259906583E-02 -1.340044574367E-01 -3.499846177570E-01
     39 F   6 C    -3.779472168228E-01 -2.796259906583E-02 -1.619670565026E-01
     40 F   6 C     1.340044574367E-01 -2.159801603202E-01  1.619670565026E-01
     41 T   7 N    -3.585154802954E-01  5.002579262563E-03  3.129969930387E-01
     42 F   7 N    -3.079944137761E-01  3.284875266659E-01 -3.129969930387E-01
     43 F   7 N    -5.002579262563E-03  3.079944137761E-01 -3.635180595579E-01
     44 F   7 N    -3.284875266659E-01  3.585154802954E-01  3.635180595579E-01
     45 T   7 N    -4.774865123853E-01 -4.990197139912E-02  1.426989551749E-01
     46 F   7 N    -1.926009265740E-01  3.798145324398E-01 -1.426989551749E-01
     47 F   7 N     4.990197139912E-02  1.926009265740E-01 -4.275845409862E-01
     48 F   7 N    -3.798145324398E-01  4.774865123853E-01  4.275845409862E-01
     49 T   7 N    -4.220857481127E-01 -2.557470212626E-01  1.425588121932E-01
     50 F   7 N    -3.983058334558E-01  4.353554396941E-01 -1.425588121932E-01
     51 F   7 N     2.557470212626E-01  3.983058334558E-01 -1.663387268501E-01
     52 F   7 N    -4.353554396941E-01  4.220857481127E-01  1.663387268501E-01
     53 T   7 N     4.849769103315E-01 -2.052522356030E-01  4.028831573495E-02
     54 F   7 N    -2.455405513379E-01  4.446885945966E-01 -4.028831573495E-02
     55 F   7 N     2.052522356030E-01  2.455405513379E-01 -3.097708540655E-01
     56 F   7 N    -4.446885945966E-01 -4.849769103315E-01  3.097708540655E-01
     57 T   7 N    -6.555493915251E-02  5.411121176068E-02 -2.094574625433E-01
     58 F   7 N     2.635686743040E-01  1.439025233908E-01  2.094574625433E-01
     59 F   7 N    -5.411121176068E-02 -2.635686743040E-01 -1.196661509132E-01
     60 F   7 N    -1.439025233908E-01  6.555493915251E-02  1.196661509132E-01
     61 T  30 ZN   -2.500000000000E-01  2.500000000000E-01  5.000000000000E-01
     62 T  30 ZN    5.000000000000E-01  5.000000000000E-01  6.411848026377E-19

 TRANSFORMATION MATRIX PRIMITIVE-CRYSTALLOGRAPHIC CELL
  0.0000  1.0000  1.0000  1.0000  0.0000  1.0000  1.0000  1.0000  0.0000

 *******************************************************************************
 CRYSTALLOGRAPHIC CELL (VOLUME=       1475.28137463)
         A              B              C           ALPHA      BETA       GAMMA 
    10.69242716    10.69242716    12.90393772    90.000000  90.000000  90.000000

 COORDINATES IN THE CRYSTALLOGRAPHIC CELL
     ATOM                 X/A                 Y/B                 Z/C    
 *******************************************************************************
      1 T   1 H     9.756677290155E-02  2.643513972330E-01 -3.697235310941E-01
      2 F   1 H    -9.756677290155E-02 -2.643513972330E-01 -3.697235310941E-01
      3 F   1 H     2.643513972330E-01 -9.756677290155E-02  3.697235310941E-01
      4 F   1 H    -2.643513972330E-01  9.756677290155E-02  3.697235310941E-01
      5 T   1 H    -1.854467526171E-02 -3.552064728866E-01  8.343762056075E-02
      6 F   1 H     1.854467526171E-02  3.552064728866E-01  8.343762056075E-02
      7 F   1 H    -3.552064728866E-01  1.854467526171E-02 -8.343762056075E-02
      8 F   1 H     3.552064728866E-01 -1.854467526171E-02 -8.343762056075E-02
      9 T  35 BR   -3.511263101393E-01  5.279803050756E-02  1.453956863807E-01
     10 F  35 BR    3.511263101393E-01 -5.279803050756E-02  1.453956863807E-01
     11 F  35 BR    5.279803050756E-02  3.511263101393E-01 -1.453956863807E-01
     12 F  35 BR   -5.279803050756E-02 -3.511263101393E-01 -1.453956863807E-01
     13 T   1 H    -9.311899472546E-02  2.493238764496E-02  1.148721267303E-01
     14 F   1 H     9.311899472546E-02 -2.493238764496E-02  1.148721267303E-01
     15 F   1 H     2.493238764496E-02  9.311899472546E-02 -1.148721267303E-01
     16 F   1 H    -2.493238764496E-02 -9.311899472546E-02 -1.148721267303E-01
     17 T   6 C    -2.151436374631E-01 -3.130115459488E-01  1.086445192721E-01
     18 F   6 C     2.151436374631E-01  3.130115459488E-01  1.086445192721E-01
     19 F   6 C    -3.130115459488E-01  2.151436374631E-01 -1.086445192721E-01
     20 F   6 C     3.130115459488E-01 -2.151436374631E-01 -1.086445192721E-01
     21 T   6 C    -2.437044477742E-01 -4.457856290846E-01  1.197780936147E-01
     22 F   6 C     2.437044477742E-01  4.457856290846E-01  1.197780936147E-01
     23 F   6 C    -4.457856290846E-01  2.437044477742E-01 -1.197780936147E-01
     24 F   6 C     4.457856290846E-01 -2.437044477742E-01 -1.197780936147E-01
     25 T   6 C    -3.030832598801E-01 -2.157782809024E-01  1.197070570869E-01
     26 F   6 C     3.030832598801E-01  2.157782809024E-01  1.197070570869E-01
     27 F   6 C    -2.157782809024E-01  3.030832598801E-01 -1.197070570869E-01
     28 F   6 C     2.157782809024E-01 -3.030832598801E-01 -1.197070570869E-01
     29 T   6 C    -1.277264727596E-01 -7.154403628638E-02  1.120883697525E-01
     30 F   6 C     1.277264727596E-01  7.154403628638E-02  1.120883697525E-01
     31 F   6 C    -7.154403628638E-02  1.277264727596E-01 -1.120883697525E-01
     32 F   6 C     7.154403628638E-02 -1.277264727596E-01 -1.120883697525E-01
     33 T   6 C    -8.805706006117E-02 -2.820117106223E-01  9.644304230119E-02
     34 F   6 C     8.805706006117E-02  2.820117106223E-01  9.644304230119E-02
     35 F   6 C    -2.820117106223E-01  8.805706006117E-02 -9.644304230119E-02
     36 F   6 C     2.820117106223E-01 -8.805706006117E-02 -9.644304230119E-02
     37 T   6 C     2.559758371298E-01  9.400878062720E-02  1.219713796930E-01
     38 F   6 C    -2.559758371298E-01 -9.400878062720E-02  1.219713796930E-01
     39 F   6 C     9.400878062720E-02 -2.559758371298E-01 -1.219713796930E-01
     40 F   6 C    -9.400878062720E-02  2.559758371298E-01 -1.219713796930E-01
     41 T   7 N    -1.617424737017E-01  4.747394667404E-01  1.667450529643E-01
     42 F   7 N     1.617424737017E-01 -4.747394667404E-01  1.667450529643E-01
     43 F   7 N     4.747394667404E-01  1.617424737017E-01 -1.667450529643E-01
     44 F   7 N    -4.747394667404E-01 -1.617424737017E-01 -1.667450529643E-01
     45 T   7 N    -2.148582519195E-01  3.575572070944E-01  1.649562805203E-01
     46 F   7 N     2.148582519195E-01 -3.575572070944E-01  1.649562805203E-01
     47 F   7 N     3.575572070944E-01  2.148582519195E-01 -1.649562805203E-01
     48 F   7 N    -3.575572070944E-01 -2.148582519195E-01 -1.649562805203E-01
     49 T   7 N     1.544487695216E-01 -1.188995732842E-02 -4.101957907843E-01
     50 F   7 N    -1.544487695216E-01  1.188995732842E-02 -4.101957907843E-01
     51 F   7 N    -1.188995732842E-02 -1.544487695216E-01  4.101957907843E-01
     52 F   7 N     1.188995732842E-02  1.544487695216E-01  4.101957907843E-01
     53 T   7 N    -3.249704150998E-01  3.652587308347E-01  1.197181794968E-01
     54 F   7 N     3.249704150998E-01 -3.652587308347E-01  1.197181794968E-01
     55 F   7 N     3.652587308347E-01  3.249704150998E-01 -1.197181794968E-01
     56 F   7 N    -3.652587308347E-01 -3.249704150998E-01 -1.197181794968E-01
     57 T   7 N    -4.489565581507E-02 -1.645618067283E-01  9.900686757575E-02
     58 F   7 N     4.489565581507E-02  1.645618067283E-01  9.900686757575E-02
     59 F   7 N    -1.645618067283E-01  4.489565581507E-02 -9.900686757575E-02
     60 F   7 N     1.645618067283E-01 -4.489565581507E-02 -9.900686757575E-02
     61 T  30 ZN    4.626932236752E-17  5.000000000000E-01  2.500000000000E-01
     62 T  30 ZN    0.000000000000E+00  6.411848026377E-19  5.000000000000E-01

 T = ATOM BELONGING TO THE ASYMMETRIC UNIT
 INFORMATION **** fort.34 **** GEOMETRY OUTPUT FILE

 DIRECT LATTICE VECTORS CARTESIAN COMPONENTS (ANGSTROM)
          X                    Y                    Z
  -0.534621358227E+01   0.534621358227E+01   0.645196886068E+01
   0.534621358227E+01  -0.534621358227E+01   0.645196886068E+01
   0.534621358227E+01   0.534621358227E+01  -0.645196886068E+01


 CARTESIAN COORDINATES - PRIMITIVE CELL
 *******************************************************************************
 *      ATOM          X(ANGSTROM)         Y(ANGSTROM)         Z(ANGSTROM)
 *******************************************************************************
    1     1 H     1.043225612928E+00  2.826558060757E+00 -4.770889419362E+00
    2     1 H    -1.043225612928E+00 -2.826558060757E+00 -4.770889419362E+00
    3     1 H     2.826558060757E+00 -1.043225612928E+00  4.770889419362E+00
    4     1 H    -2.826558060757E+00  1.043225612928E+00  4.770889419362E+00
    5     1 H    -1.982875895258E-01 -3.798019339710E+00  1.076673859335E+00
    6     1 H     1.982875895258E-01  3.798019339710E+00  1.076673859335E+00
    7     1 H    -3.798019339710E+00  1.982875895258E-01 -1.076673859335E+00
    8     1 H     3.798019339710E+00 -1.982875895258E-01 -1.076673859335E+00
    9    35 BR   -3.754392496715E+00  5.645390956328E-01  1.876176882012E+00
   10    35 BR    3.754392496715E+00 -5.645390956328E-01  1.876176882012E+00
   11    35 BR    5.645390956328E-01  3.754392496715E+00 -1.876176882012E+00
   12    35 BR   -5.645390956328E-01 -3.754392496715E+00 -1.876176882012E+00
   13     1 H    -9.956680687364E-01  2.665877389316E-01  1.482302769248E+00
   14     1 H     9.956680687364E-01 -2.665877389316E-01  1.482302769248E+00
   15     1 H     2.665877389316E-01  9.956680687364E-01 -1.482302769248E+00
   16     1 H    -2.665877389316E-01 -9.956680687364E-01 -1.482302769248E+00
   17     6 C    -2.300407673487E+00 -3.346853156715E+00  1.401942110455E+00
   18     6 C     2.300407673487E+00  3.346853156715E+00  1.401942110455E+00
   19     6 C    -3.346853156715E+00  2.300407673487E+00 -1.401942110455E+00
   20     6 C     3.346853156715E+00 -2.300407673487E+00 -1.401942110455E+00
   21     6 C    -2.605792057499E+00 -4.766530369982E+00  1.545609060388E+00
   22     6 C     2.605792057499E+00  4.766530369982E+00  1.545609060388E+00
   23     6 C    -4.766530369982E+00  2.605792057499E+00 -1.545609060388E+00
   24     6 C     4.766530369982E+00 -2.605792057499E+00 -1.545609060388E+00
   25     6 C    -3.240695681057E+00 -2.307193552236E+00  1.544692409457E+00
   26     6 C     3.240695681057E+00  2.307193552236E+00  1.544692409457E+00
   27     6 C    -2.307193552236E+00  3.240695681057E+00 -1.544692409457E+00
   28     6 C     2.307193552236E+00 -3.240695681057E+00 -1.544692409457E+00
   29     6 C    -1.365706006965E+00 -7.649793970487E-01  1.446381342576E+00
   30     6 C     1.365706006965E+00  7.649793970487E-01  1.446381342576E+00
   31     6 C    -7.649793970487E-01  1.365706006965E+00 -1.446381342576E+00
   32     6 C     7.649793970487E-01 -1.365706006965E+00 -1.446381342576E+00
   33     6 C    -9.415437010269E-01 -3.015389675373E+00  1.244495011514E+00
   34     6 C     9.415437010269E-01  3.015389675373E+00  1.244495011514E+00
   35     6 C    -3.015389675373E+00  9.415437010269E-01 -1.244495011514E+00
   36     6 C     3.015389675373E+00 -9.415437010269E-01 -1.244495011514E+00
   37     6 C     2.737002994390E+00  1.005182039683E+00  1.573911087348E+00
   38     6 C    -2.737002994390E+00 -1.005182039683E+00  1.573911087348E+00
   39     6 C     1.005182039683E+00 -2.737002994390E+00 -1.573911087348E+00
   40     6 C    -1.005182039683E+00  2.737002994390E+00 -1.573911087348E+00
   41     7 N    -1.729419619467E+00  5.076117170250E+00  2.151667778797E+00
   42     7 N     1.729419619467E+00 -5.076117170250E+00  2.151667778797E+00
   43     7 N     5.076117170250E+00  1.729419619467E+00 -2.151667778797E+00
   44     7 N    -5.076117170250E+00 -1.729419619467E+00 -2.151667778797E+00
   45     7 N    -2.297356209347E+00  3.823154394010E+00  2.128585570583E+00
   46     7 N     2.297356209347E+00 -3.823154394010E+00  2.128585570583E+00
   47     7 N     3.823154394010E+00  2.297356209347E+00 -2.128585570583E+00
   48     7 N    -3.823154394010E+00 -2.297356209347E+00 -2.128585570583E+00
   49     7 N     1.651432218762E+00 -1.271325027235E-01 -5.293140937847E+00
   50     7 N    -1.651432218762E+00  1.271325027235E-01 -5.293140937847E+00
   51     7 N    -1.271325027235E-01 -1.651432218762E+00  5.293140937847E+00
   52     7 N     1.271325027235E-01  1.651432218762E+00  5.293140937847E+00
   53     7 N    -3.474722494082E+00  3.905502375660E+00  1.544835932342E+00
   54     7 N     3.474722494082E+00 -3.905502375660E+00  1.544835932342E+00
   55     7 N     3.905502375660E+00  3.474722494082E+00 -1.544835932342E+00
   56     7 N    -3.905502375660E+00 -3.474722494082E+00 -1.544835932342E+00
   57     7 N    -4.800435298065E-01 -1.759565132506E+00  1.277578453185E+00
   58     7 N     4.800435298065E-01  1.759565132506E+00  1.277578453185E+00
   59     7 N    -1.759565132506E+00  4.800435298065E-01 -1.277578453185E+00
   60     7 N     1.759565132506E+00 -4.800435298065E-01 -1.277578453185E+00
   61    30 ZN    4.947313593669E-16  5.346213582266E+00 -9.677953291025E+00
   62    30 ZN    0.000000000000E+00  6.855821801208E-18  6.451968860683E+00

 ****    4 SYMMOPS - TRANSLATORS IN FRACTIONAL UNITS
 **** MATRICES AND TRANSLATORS IN THE CRYSTALLOGRAPHIC REFERENCE FRAME
   V INV                    ROTATION MATRICES                   TRANSLATORS
   1   1  1.00  0.00  0.00  0.00  1.00  0.00  0.00  0.00  1.00  0.00  0.00  0.00
   2   2 -0.00  1.00 -1.00  1.00 -0.00 -1.00 -0.00  0.00 -1.00  0.00  0.00  0.00
   3   4  0.00 -1.00 -0.00  0.00 -1.00  1.00  1.00 -1.00  0.00  0.00  0.00  0.00
   4   3 -1.00  0.00  1.00 -1.00  0.00 -0.00 -1.00  1.00 -0.00  0.00  0.00  0.00
 TTTTTTTTTTTTTTTTTTTTTTTTTTTTTT END         TELAPSE   136983.50 TCPU   133563.91
 EEEEEEEEEE TERMINATION  DATE 22 11 2023 TIME 17:31:33.0
NODE    0 CPU TIME =    133563.910
NODE    1 CPU TIME =    134548.528
NODE    2 CPU TIME =    134272.389
NODE    3 CPU TIME =    133986.624
NODE    4 CPU TIME =    134622.904
NODE    5 CPU TIME =    134195.873
NODE    6 CPU TIME =    134181.685
NODE    7 CPU TIME =    134069.742
NODE    8 CPU TIME =    134336.566
NODE    9 CPU TIME =    134137.678
NODE   10 CPU TIME =    134090.031
NODE   11 CPU TIME =    133834.175
NODE   12 CPU TIME =    134284.007
NODE   13 CPU TIME =    134114.397
NODE   14 CPU TIME =    133793.270
NODE   15 CPU TIME =    133586.053
NODE   16 CPU TIME =    134002.594
NODE   17 CPU TIME =    133868.980
NODE   18 CPU TIME =    133577.978
NODE   19 CPU TIME =    133588.319
NODE   20 CPU TIME =    133673.815
NODE   21 CPU TIME =    133579.809
NODE   22 CPU TIME =    133563.697
NODE   23 CPU TIME =    133455.425
    TOTAL CPU TIME =   3214928.447
trying normal rsh (/usr/bin/rsh)
exec: No such file or directory
trying normal rsh (/usr/bin/rsh)
exec: No such file or directory
trying normal rsh (/usr/bin/rsh)
exec: No such file or directory
trying normal rsh (/usr/bin/rsh)
exec: No such file or directory
