Loading crystal17/1.0.2/intel/19.0
  Loading requirement: intel/19.0 ompi/4.0.1/intel/19.0
 PROCESS            0  OF           24  WORKING
 PROCESS            1  OF           24  WORKING
 PROCESS            4  OF           24  WORKING
 PROCESS           10  OF           24  WORKING
 PROCESS           16  OF           24  WORKING
 PROCESS           21  OF           24  WORKING
 PROCESS           13  OF           24  WORKING
 PROCESS           23  OF           24  WORKING
 PROCESS            2  OF           24  WORKING
 PROCESS            3  OF           24  WORKING
 PROCESS            5  OF           24  WORKING
 PROCESS            6  OF           24  WORKING
 PROCESS            7  OF           24  WORKING
 PROCESS            8  OF           24  WORKING
 PROCESS            9  OF           24  WORKING
 PROCESS           11  OF           24  WORKING
 PROCESS           12  OF           24  WORKING
 PROCESS           14  OF           24  WORKING
 PROCESS           15  OF           24  WORKING
 PROCESS           17  OF           24  WORKING
 PROCESS           18  OF           24  WORKING
 PROCESS           19  OF           24  WORKING
 PROCESS           20  OF           24  WORKING
 PROCESS           22  OF           24  WORKING

         
 *******************************************************************************
 *                                                                             *
 *                               CRYSTAL17                                     *
 *                      public : 1.0.2 - March 1st, 2018                       *
 *                       HTTP://WWW.CRYSTAL.UNITO.IT                           *
 *                                                                             *
 *                              MAIN AUTHORS                                   *
 *                                                                             *
 *  R. DOVESI(1,11), V.R. SAUNDERS(2), C. ROETTI(1,11), R. ORLANDO(1,11),      *
 *  C.M. ZICOVICH-WILSON(1,3), F. PASCALE(4), B. CIVALLERI(1,11),              *
 *  K. DOLL(5), N.M. HARRISON(2,6), I.J. BUSH(7), Ph. D'ARCO(8),               *
 *  M. LLUNELL(9), M. CAUSA'(10), Y. NOEL(8), L. MASCHIO(1,11), A. ERBA(1,11)  *
 *  M. RE'RAT(14), S. CASASSA(1,11)                                            *
 *                                                                             *
 *        CONTRIBUTIONS TO THE CODE HAVE ALSO BEEN GIVEN BY                    *
 *                                                                             *
 *  M. FERRABONE(1,11), M. DE LA PIERRE(1,11), M. FERRERO(1,11),               *
 *  J. BAIMA(1,11), E. ALBANESE(1,11), M.F. PEINTINGER(12), R. BAST(13),       *
 *  B. KIRTMAN(15), V. LACIVITA(1,11), R. DEMICHELIS(1,16)                     *
 *  G. BRANDEBURG(17), S. SALUSTRO(1,11), G. SANSONE(1,11)                     *
 *  M.T. RUGGIERO(18)                                                          *
 *                                                                             *
 * (1) THEORETICAL CHEMISTRY GROUP - UNIVERSITA' DI TORINO - TORINO (ITALY)    *
 * (2) COMPUTATIONAL SCIENCE & ENGINEERING DEPARTMENT - STFC DARESBURY (UK)    *
 * (3) UNIVERSIDAD AUTONOMA DEL ESTADO DE MORELOS - CUERNAVACA (MEXICO)        *
 * (4) UNIVERSITE' DE LORRAINE - NANCY (FRANCE)                                *
 * (5) UNIVERSITAET STUTTGART- STUTTGART (GERMANY)                             *
 * (6) IMPERIAL COLLEGE - LONDON (UK)                                          *
 * (7) OXFORD E-RESEARCH CENTRE - OXFORD (UK)                                  *
 * (8) UPMC - SORBONNE UNIVERSITES - PARIS (FRANCE)                            *
 * (9) UNIVERSIDAD DE BARCELONA - BARCELONA (SPAIN)                            *
 *(10) UNIVERSITA' DI NAPOLI "FEDERICO II" - NAPOLI (ITALY)                    *
 *(11) NIS - NANOSTRUCTURED INTERFACES AND SURFACES - TORINO (ITALY)           *
 *(12) MPI FUER CHEMISCHE ENERGIEKONVERSION - MUELHEIM AN DER RUHR (GERMANY)   *
 *(13) UNIVERSITY OF TROMSO - TROMSO (NORWAY)                                  *
 *(14) UNIVERSITE' DE PAU ET DES PAYS DE L'ADOUR - PAU (FRANCE)                *
 *(15) UNIVERSITY OF CALIFORNIA SANTA BARBARA - SANTA BARBARA (USA)            *
 *(16) CURTIN UNIVERSITY - PERTH (AUSTRALIA)                                   *
 *(17) UNIVERSITY COLLEGE LONDON - LONDON (UK)                                 *
 *(18) CAMBRIDGE UNIVERSITY - CAMBRIDGE (UK)                                   *
 *                                                                             *
 *******************************************************************************
 EEEEEEEEEE STARTING  DATE 21 11 2023 TIME 06:18:31.8
 C:\Users\wilso\AppData\Local\Temp\tmp_p\newconn.mol                             

 CRYSTAL CALCULATION
 (INPUT ACCORDING TO THE INTERNATIONAL TABLES FOR X-RAY CRYSTALLOGRAPHY)
 CRYSTAL FAMILY                       :  TETRAGONAL  
 CRYSTAL CLASS  (GROTH - 1921)        :  TETRAGONAL DISPHENOIDAL              

 SPACE GROUP (NONCENTROSYMMETRIC)     :  I -4            

 LATTICE PARAMETERS  (ANGSTROMS AND DEGREES) - CONVENTIONAL CELL
        A           B           C        ALPHA        BETA       GAMMA
    10.15800    10.15800    13.29400    90.00000    90.00000    90.00000


 NUMBER OF IRREDUCIBLE ATOMS IN THE CONVENTIONAL CELL:  124

 INPUT COORDINATES

 ATOM AT. N.              COORDINATES
   1  35     5.576100000000E-01  7.373700000000E-01  1.366700000000E-01
   2  35     4.423900000000E-01  2.626300000000E-01  1.366700000000E-01
   3  35     7.373700000000E-01  4.423900000000E-01  8.633300000000E-01
   4  35     2.626300000000E-01  5.576100000000E-01  8.633300000000E-01
   5  35     5.761000000000E-02  2.373700000000E-01  6.366700000000E-01
   6  35     9.423900000000E-01  7.626300000000E-01  6.366700000000E-01
   7  35     2.373700000000E-01  9.423900000000E-01  3.633300000000E-01
   8  35     7.626300000000E-01  5.761000000000E-02  3.633300000000E-01
   9  35     9.759200000000E-01  6.751900000000E-01  9.083000000000E-02
  10  35     2.408000000000E-02  3.248100000000E-01  9.083000000000E-02
  11  35     6.751900000000E-01  2.408000000000E-02  9.091700000000E-01
  12  35     3.248100000000E-01  9.759200000000E-01  9.091700000000E-01
  13  35     4.759200000000E-01  1.751900000000E-01  5.908300000000E-01
  14  35     5.240800000000E-01  8.248100000000E-01  5.908300000000E-01
  15  35     1.751900000000E-01  5.240800000000E-01  4.091700000000E-01
  16  35     8.248100000000E-01  4.759200000000E-01  4.091700000000E-01
  17   1     6.058200000000E-01  9.805800000000E-01  1.369900000000E-01
  18   1     3.941800000000E-01  1.942000000000E-02  1.369900000000E-01
  19   1     9.805800000000E-01  3.941800000000E-01  8.630100000000E-01
  20   1     1.942000000000E-02  6.058200000000E-01  8.630100000000E-01
  21   1     1.058200000000E-01  4.805800000000E-01  6.369900000000E-01
  22   1     8.941800000000E-01  5.194200000000E-01  6.369900000000E-01
  23   1     4.805800000000E-01  8.941800000000E-01  3.630100000000E-01
  24   1     5.194200000000E-01  1.058200000000E-01  3.630100000000E-01
  25   1     8.420800000000E-01  5.709000000000E-02  1.240200000000E-01
  26   1     1.579200000000E-01  9.429100000000E-01  1.240200000000E-01
  27   1     5.709000000000E-02  1.579200000000E-01  8.759800000000E-01
  28   1     9.429100000000E-01  8.420800000000E-01  8.759800000000E-01
  29   1     3.420800000000E-01  5.570900000000E-01  6.240200000000E-01
  30   1     6.579200000000E-01  4.429100000000E-01  6.240200000000E-01
  31   1     5.570900000000E-01  6.579200000000E-01  3.759800000000E-01
  32   1     4.429100000000E-01  3.420800000000E-01  3.759800000000E-01
  33   6     2.646500000000E-01  1.859800000000E-01  6.165500000000E-01
  34   6     7.353500000000E-01  8.140200000000E-01  6.165500000000E-01
  35   6     1.859800000000E-01  7.353500000000E-01  3.834500000000E-01
  36   6     8.140200000000E-01  2.646500000000E-01  3.834500000000E-01
  37   6     7.646500000000E-01  6.859800000000E-01  1.165500000000E-01
  38   6     2.353500000000E-01  3.140200000000E-01  1.165500000000E-01
  39   6     6.859800000000E-01  2.353500000000E-01  8.834500000000E-01
  40   6     3.140200000000E-01  7.646500000000E-01  8.834500000000E-01
  41   6     2.514000000000E-01  4.317000000000E-02  6.230000000000E-01
  42   6     7.486000000000E-01  9.568300000000E-01  6.230000000000E-01
  43   6     4.317000000000E-02  7.486000000000E-01  3.770000000000E-01
  44   6     9.568300000000E-01  2.514000000000E-01  3.770000000000E-01
  45   6     7.514000000000E-01  5.431700000000E-01  1.230000000000E-01
  46   6     2.486000000000E-01  4.568300000000E-01  1.230000000000E-01
  47   6     5.431700000000E-01  2.486000000000E-01  8.770000000000E-01
  48   6     4.568300000000E-01  7.514000000000E-01  8.770000000000E-01
  49   6     6.583700000000E-01  7.736700000000E-01  1.273400000000E-01
  50   6     3.416300000000E-01  2.263300000000E-01  1.273400000000E-01
  51   6     7.736700000000E-01  3.416300000000E-01  8.726600000000E-01
  52   6     2.263300000000E-01  6.583700000000E-01  8.726600000000E-01
  53   6     1.583700000000E-01  2.736700000000E-01  6.273400000000E-01
  54   6     8.416300000000E-01  7.263300000000E-01  6.273400000000E-01
  55   6     2.736700000000E-01  8.416300000000E-01  3.726600000000E-01
  56   6     7.263300000000E-01  1.583700000000E-01  3.726600000000E-01
  57   6     8.156900000000E-01  9.525900000000E-01  1.204300000000E-01
  58   6     1.843100000000E-01  4.741000000000E-02  1.204300000000E-01
  59   6     9.525900000000E-01  1.843100000000E-01  8.795700000000E-01
  60   6     4.741000000000E-02  8.156900000000E-01  8.795700000000E-01
  61   6     3.156900000000E-01  4.525900000000E-01  6.204300000000E-01
  62   6     6.843100000000E-01  5.474100000000E-01  6.204300000000E-01
  63   6     4.525900000000E-01  6.843100000000E-01  3.795700000000E-01
  64   6     5.474100000000E-01  3.156900000000E-01  3.795700000000E-01
  65   6     3.914300000000E-01  2.396500000000E-01  6.044300000000E-01
  66   6     6.085700000000E-01  7.603500000000E-01  6.044300000000E-01
  67   6     2.396500000000E-01  6.085700000000E-01  3.955700000000E-01
  68   6     7.603500000000E-01  3.914300000000E-01  3.955700000000E-01
  69   6     8.914300000000E-01  7.396500000000E-01  1.044300000000E-01
  70   6     1.085700000000E-01  2.603500000000E-01  1.044300000000E-01
  71   6     7.396500000000E-01  1.085700000000E-01  8.955700000000E-01
  72   6     2.603500000000E-01  8.914300000000E-01  8.955700000000E-01
  73   6     3.150000000000E-01  9.141000000000E-02  1.282200000000E-01
  74   6     6.850000000000E-01  9.085900000000E-01  1.282200000000E-01
  75   6     9.141000000000E-02  6.850000000000E-01  8.717800000000E-01
  76   6     9.085900000000E-01  3.150000000000E-01  8.717800000000E-01
  77   6     8.150000000000E-01  5.914100000000E-01  6.282200000000E-01
  78   6     1.850000000000E-01  4.085900000000E-01  6.282200000000E-01
  79   6     5.914100000000E-01  1.850000000000E-01  3.717800000000E-01
  80   6     4.085900000000E-01  8.150000000000E-01  3.717800000000E-01
  81   7     8.407700000000E-01  4.628300000000E-01  1.672900000000E-01
  82   7     1.592300000000E-01  5.371700000000E-01  1.672900000000E-01
  83   7     4.628300000000E-01  1.592300000000E-01  8.327100000000E-01
  84   7     5.371700000000E-01  8.407700000000E-01  8.327100000000E-01
  85   7     3.407700000000E-01  9.628300000000E-01  6.672900000000E-01
  86   7     6.592300000000E-01  3.717000000000E-02  6.672900000000E-01
  87   7     9.628300000000E-01  6.592300000000E-01  3.327100000000E-01
  88   7     3.717000000000E-02  3.407700000000E-01  3.327100000000E-01
  89   7     2.940400000000E-01  8.358500000000E-01  6.597700000000E-01
  90   7     7.059600000000E-01  1.641500000000E-01  6.597700000000E-01
  91   7     8.358500000000E-01  7.059600000000E-01  3.402300000000E-01
  92   7     1.641500000000E-01  2.940400000000E-01  3.402300000000E-01
  93   7     7.940400000000E-01  3.358500000000E-01  1.597700000000E-01
  94   7     2.059600000000E-01  6.641500000000E-01  1.597700000000E-01
  95   7     3.358500000000E-01  2.059600000000E-01  8.402300000000E-01
  96   7     6.641500000000E-01  7.940400000000E-01  8.402300000000E-01
  97   7     1.518600000000E-01  9.677900000000E-01  5.884000000000E-01
  98   7     8.481400000000E-01  3.221000000000E-02  5.884000000000E-01
  99   7     9.677900000000E-01  8.481400000000E-01  4.116000000000E-01
 100   7     3.221000000000E-02  1.518600000000E-01  4.116000000000E-01
 101   7     6.518600000000E-01  4.677900000000E-01  8.840000000000E-02
 102   7     3.481400000000E-01  5.322100000000E-01  8.840000000000E-02
 103   7     4.677900000000E-01  3.481400000000E-01  9.116000000000E-01
 104   7     5.322100000000E-01  6.518600000000E-01  9.116000000000E-01
 105   7     1.800200000000E-01  8.388700000000E-01  6.128200000000E-01
 106   7     8.199800000000E-01  1.611300000000E-01  6.128200000000E-01
 107   7     8.388700000000E-01  8.199800000000E-01  3.871800000000E-01
 108   7     1.611300000000E-01  1.800200000000E-01  3.871800000000E-01
 109   7     6.800200000000E-01  3.388700000000E-01  1.128200000000E-01
 110   7     3.199800000000E-01  6.611300000000E-01  1.128200000000E-01
 111   7     3.388700000000E-01  3.199800000000E-01  8.871800000000E-01
 112   7     6.611300000000E-01  6.800200000000E-01  8.871800000000E-01
 113   7     9.174200000000E-01  8.687700000000E-01  1.079100000000E-01
 114   7     8.258000000000E-02  1.312300000000E-01  1.079100000000E-01
 115   7     8.687700000000E-01  8.258000000000E-02  8.920900000000E-01
 116   7     1.312300000000E-01  9.174200000000E-01  8.920900000000E-01
 117   7     4.174200000000E-01  3.687700000000E-01  6.079100000000E-01
 118   7     5.825800000000E-01  6.312300000000E-01  6.079100000000E-01
 119   7     3.687700000000E-01  5.825800000000E-01  3.920900000000E-01
 120   7     6.312300000000E-01  4.174200000000E-01  3.920900000000E-01
 121  30     0.000000000000E+00  5.000000000000E-01  2.500000000000E-01
 122  30     5.000000000000E-01  0.000000000000E+00  7.500000000000E-01
 123  30     0.000000000000E+00  0.000000000000E+00  5.000000000000E-01
 124  30     5.000000000000E-01  5.000000000000E-01  0.000000000000E+00

 *******************************************************************************

 << INFORMATION >>: FROM NOW ON, ALL COORDINATES REFER TO THE PRIMITIVE CELL

 *******************************************************************************

 LATTICE PARAMETERS  (ANGSTROMS AND DEGREES) - PRIMITIVE CELL
       A          B          C        ALPHA      BETA     GAMMA        VOLUME
    9.78647    9.78647    9.78647   117.47208 117.47208  94.43726    685.870456

 INPUT LIST - ATOM N.   2 NOT IRREDUCIBLE

 INPUT LIST - ATOM N.   3 NOT IRREDUCIBLE

 INPUT LIST - ATOM N.   4 NOT IRREDUCIBLE

 INPUT LIST - ATOM N.   1 NOT IRREDUCIBLE

 INPUT LIST - ATOM N.   2 NOT IRREDUCIBLE

 INPUT LIST - ATOM N.   3 NOT IRREDUCIBLE

 INPUT LIST - ATOM N.   4 NOT IRREDUCIBLE

 INPUT LIST - ATOM N.   6 NOT IRREDUCIBLE

 INPUT LIST - ATOM N.   7 NOT IRREDUCIBLE

 INPUT LIST - ATOM N.   8 NOT IRREDUCIBLE

 INPUT LIST - ATOM N.   5 NOT IRREDUCIBLE

 INPUT LIST - ATOM N.   6 NOT IRREDUCIBLE

 INPUT LIST - ATOM N.   7 NOT IRREDUCIBLE

 INPUT LIST - ATOM N.   8 NOT IRREDUCIBLE

 INPUT LIST - ATOM N.  10 NOT IRREDUCIBLE

 INPUT LIST - ATOM N.  11 NOT IRREDUCIBLE

 INPUT LIST - ATOM N.  12 NOT IRREDUCIBLE

 INPUT LIST - ATOM N.   9 NOT IRREDUCIBLE

 INPUT LIST - ATOM N.  10 NOT IRREDUCIBLE

 INPUT LIST - ATOM N.  11 NOT IRREDUCIBLE

 INPUT LIST - ATOM N.  12 NOT IRREDUCIBLE

 INPUT LIST - ATOM N.  14 NOT IRREDUCIBLE

 INPUT LIST - ATOM N.  15 NOT IRREDUCIBLE

 INPUT LIST - ATOM N.  16 NOT IRREDUCIBLE

 INPUT LIST - ATOM N.  13 NOT IRREDUCIBLE

 INPUT LIST - ATOM N.  14 NOT IRREDUCIBLE

 INPUT LIST - ATOM N.  15 NOT IRREDUCIBLE

 INPUT LIST - ATOM N.  16 NOT IRREDUCIBLE

 INPUT LIST - ATOM N.  18 NOT IRREDUCIBLE

 INPUT LIST - ATOM N.  19 NOT IRREDUCIBLE

 INPUT LIST - ATOM N.  20 NOT IRREDUCIBLE

 INPUT LIST - ATOM N.  17 NOT IRREDUCIBLE

 INPUT LIST - ATOM N.  18 NOT IRREDUCIBLE

 INPUT LIST - ATOM N.  19 NOT IRREDUCIBLE

 INPUT LIST - ATOM N.  20 NOT IRREDUCIBLE

 INPUT LIST - ATOM N.  22 NOT IRREDUCIBLE

 INPUT LIST - ATOM N.  23 NOT IRREDUCIBLE

 INPUT LIST - ATOM N.  24 NOT IRREDUCIBLE

 INPUT LIST - ATOM N.  21 NOT IRREDUCIBLE

 INPUT LIST - ATOM N.  22 NOT IRREDUCIBLE

 INPUT LIST - ATOM N.  23 NOT IRREDUCIBLE

 INPUT LIST - ATOM N.  24 NOT IRREDUCIBLE

 INPUT LIST - ATOM N.  26 NOT IRREDUCIBLE

 INPUT LIST - ATOM N.  27 NOT IRREDUCIBLE

 INPUT LIST - ATOM N.  28 NOT IRREDUCIBLE

 INPUT LIST - ATOM N.  25 NOT IRREDUCIBLE

 INPUT LIST - ATOM N.  26 NOT IRREDUCIBLE

 INPUT LIST - ATOM N.  27 NOT IRREDUCIBLE

 INPUT LIST - ATOM N.  28 NOT IRREDUCIBLE

 INPUT LIST - ATOM N.  30 NOT IRREDUCIBLE

 INPUT LIST - ATOM N.  31 NOT IRREDUCIBLE

 INPUT LIST - ATOM N.  32 NOT IRREDUCIBLE

 INPUT LIST - ATOM N.  29 NOT IRREDUCIBLE

 INPUT LIST - ATOM N.  30 NOT IRREDUCIBLE

 INPUT LIST - ATOM N.  31 NOT IRREDUCIBLE

 INPUT LIST - ATOM N.  32 NOT IRREDUCIBLE

 INPUT LIST - ATOM N.  34 NOT IRREDUCIBLE

 INPUT LIST - ATOM N.  35 NOT IRREDUCIBLE

 INPUT LIST - ATOM N.  36 NOT IRREDUCIBLE

 INPUT LIST - ATOM N.  33 NOT IRREDUCIBLE

 INPUT LIST - ATOM N.  34 NOT IRREDUCIBLE

 INPUT LIST - ATOM N.  35 NOT IRREDUCIBLE

 INPUT LIST - ATOM N.  36 NOT IRREDUCIBLE

 INPUT LIST - ATOM N.  38 NOT IRREDUCIBLE

 INPUT LIST - ATOM N.  39 NOT IRREDUCIBLE

 INPUT LIST - ATOM N.  40 NOT IRREDUCIBLE

 INPUT LIST - ATOM N.  37 NOT IRREDUCIBLE

 INPUT LIST - ATOM N.  38 NOT IRREDUCIBLE

 INPUT LIST - ATOM N.  39 NOT IRREDUCIBLE

 INPUT LIST - ATOM N.  40 NOT IRREDUCIBLE

 INPUT LIST - ATOM N.  42 NOT IRREDUCIBLE

 INPUT LIST - ATOM N.  43 NOT IRREDUCIBLE

 INPUT LIST - ATOM N.  44 NOT IRREDUCIBLE

 INPUT LIST - ATOM N.  41 NOT IRREDUCIBLE

 INPUT LIST - ATOM N.  42 NOT IRREDUCIBLE

 INPUT LIST - ATOM N.  43 NOT IRREDUCIBLE

 INPUT LIST - ATOM N.  44 NOT IRREDUCIBLE

 INPUT LIST - ATOM N.  46 NOT IRREDUCIBLE

 INPUT LIST - ATOM N.  47 NOT IRREDUCIBLE

 INPUT LIST - ATOM N.  48 NOT IRREDUCIBLE

 INPUT LIST - ATOM N.  45 NOT IRREDUCIBLE

 INPUT LIST - ATOM N.  46 NOT IRREDUCIBLE

 INPUT LIST - ATOM N.  47 NOT IRREDUCIBLE

 INPUT LIST - ATOM N.  48 NOT IRREDUCIBLE

 INPUT LIST - ATOM N.  50 NOT IRREDUCIBLE

 INPUT LIST - ATOM N.  51 NOT IRREDUCIBLE

 INPUT LIST - ATOM N.  52 NOT IRREDUCIBLE

 INPUT LIST - ATOM N.  49 NOT IRREDUCIBLE

 INPUT LIST - ATOM N.  50 NOT IRREDUCIBLE

 INPUT LIST - ATOM N.  51 NOT IRREDUCIBLE

 INPUT LIST - ATOM N.  52 NOT IRREDUCIBLE

 INPUT LIST - ATOM N.  54 NOT IRREDUCIBLE

 INPUT LIST - ATOM N.  55 NOT IRREDUCIBLE

 INPUT LIST - ATOM N.  56 NOT IRREDUCIBLE

 INPUT LIST - ATOM N.  53 NOT IRREDUCIBLE

 INPUT LIST - ATOM N.  54 NOT IRREDUCIBLE

 INPUT LIST - ATOM N.  55 NOT IRREDUCIBLE

 INPUT LIST - ATOM N.  56 NOT IRREDUCIBLE

 INPUT LIST - ATOM N.  58 NOT IRREDUCIBLE

 INPUT LIST - ATOM N.  59 NOT IRREDUCIBLE

 INPUT LIST - ATOM N.  60 NOT IRREDUCIBLE

 INPUT LIST - ATOM N.  57 NOT IRREDUCIBLE

 INPUT LIST - ATOM N.  58 NOT IRREDUCIBLE

 INPUT LIST - ATOM N.  59 NOT IRREDUCIBLE

 INPUT LIST - ATOM N.  60 NOT IRREDUCIBLE

 INPUT LIST - ATOM N.  61 NOT IRREDUCIBLE

 INPUT LIST - ATOM N.  62 NOT IRREDUCIBLE

 COORDINATES OF THE EQUIVALENT ATOMS (FRACTIONAL UNITS)

 N. ATOM EQUIV AT. N.          X                  Y                  Z

   1   1   1   35 BR   -1.25960000000E-01 -3.05720000000E-01  2.94980000000E-01
   2   1   2   35 BR    3.99300000000E-01 -4.20940000000E-01 -2.94980000000E-01
   3   1   3   35 BR    3.05720000000E-01 -3.99300000000E-01  1.79760000000E-01
   4   1   4   35 BR    4.20940000000E-01  1.25960000000E-01 -1.79760000000E-01








   5   9   1   35 BR   -2.33980000000E-01  6.67500000000E-02 -3.48890000000E-01
   6   9   2   35 BR    4.15640000000E-01  1.14910000000E-01  3.48890000000E-01
   7   9   3   35 BR   -6.67500000000E-02 -4.15640000000E-01 -3.00730000000E-01
   8   9   4   35 BR   -1.14910000000E-01  2.33980000000E-01  3.00730000000E-01








   9  17   1    1 H     1.17570000000E-01 -2.57190000000E-01 -4.13600000000E-01
  10  17   2    1 H     1.56410000000E-01 -4.68830000000E-01  4.13600000000E-01
  11  17   3    1 H     2.57190000000E-01 -1.56410000000E-01  3.74760000000E-01
  12  17   4    1 H     4.68830000000E-01 -1.17570000000E-01 -3.74760000000E-01

 NUMBER OF SYMMETRY OPERATORS         :    4
 *******************************************************************************
 * GEOMETRY EDITING - INPUT COORDINATES ARE GIVEN IN ANGSTROM         
 *******************************************************************************

 GEOMETRY NOW FULLY CONSISTENT WITH THE GROUP
 *******************************************************************************
 *  GEOMETRY EDITING
 *  THE SYMMETRY OF THE CRYSTAL IS KEPT AND APPLIED TO THE PERTURBATION
 *******************************************************************************
 INFORMATION **** NEW DEFAULT **** FINALRUN 4 FOR GEOMETRY OPTIMIZATIONS
 INFORMATION **** NEW DEFAULT **** OPTGEOM OPTIMIZES BOTH ATOMIC COORDINATES AND CELL PARAMETERS
 INFORMATION **** NEW DEFAULT **** TOL. ON ATOMIC DISP TO REDEFINE REF. GEOMETRY: 0.8 Angs
 INFORMATION **** NEW DEFAULT **** N POINTS TO REDEFINE REF. GEOMETRY: N OF OPT DEGS OF FREEDOM
 INFORMATION **** NEW DEFAULT **** TOL. ON ENERGY TO REDEFINE REF. GEOMETRY: 10**-3*(5*N. ATOMS)

 IMPORTANT INFORMATION:
 THE COORDINATE SYSTEM ADOPTED IN THE OPTIMIZATION IS NOT IN
 GENERAL HOMOGENEOUS UNITS. FOR THIS REASON THE GRADIENT AND 
 HESSIAN MATRIX IN TERMS OF THIS SYSTEM ARE GIVEN WITHOUT
 UNITS. FOR MORE DETAILS SEE THE MANUAL.

 *******************************************************************************
 COMBINED CELL/ATOM OPTIMIZATION CONTROL

 INITIAL TRUST RADIUS         0.50000 MAXIMUM TRUST RADIUS               4.00000
 MAXIMUM GRADIENT COMPONENT   0.00045 MAXIMUM DISPLACEMENT COMPONENT     0.00180
 R.M.S. OF GRADIENT COMPONENT 0.00030 R.M.S. OF DISPLACEMENT COMPONENTS  0.00120
 THRESHOLD ON ENERGY CHANGE 0.100E-06 EXTRAPOLATING POLYNOMIAL ORDER           2
 MAXIMUM ALLOWED NUMBER OF STEPS   -1 SORTING OF ENERGY POINTS:               NO
 ANALYTICAL  GRADIENT                 HESSIAN UPDATING                      BFGS
 STEP SIZE NUMERICAL GRADIENT 0.00100
 INITIAL HESSIAN MATRIX: SCHLEGEL MODEL 2
 *******************************************************************************


 GCALCO - MAX INDICES DIRECT LATTICE VECTOR    14    14    16
 NO.OF VECTORS CREATED 6999 STARS  481 RMAX   197.96270 BOHR

 GEOMETRY FOR WAVE FUNCTION - DIMENSIONALITY OF THE SYSTEM    3
 (NON PERIODIC DIRECTION: LATTICE PARAMETER FORMALLY SET TO 500)
 *******************************************************************************
 LATTICE PARAMETERS (ANGSTROMS AND DEGREES) - BOHR = 0.5291772083 ANGSTROM
 PRIMITIVE CELL - CENTRING CODE 6/0 VOLUME=   685.870456 - DENSITY  3.233 g/cm^3
         A              B              C           ALPHA      BETA       GAMMA 
     9.78647490     9.78647490     9.78647490   117.472078 117.472078  94.437262
 *******************************************************************************
 ATOMS IN THE ASYMMETRIC UNIT   17 - ATOMS IN THE UNIT CELL:   62
     ATOM                 X/A                 Y/B                 Z/C    
 *******************************************************************************
      1 T  35 BR   -1.259600000000E-01 -3.057200000000E-01  2.949800000000E-01
      2 F  35 BR    3.993000000000E-01 -4.209400000000E-01 -2.949800000000E-01
      3 F  35 BR    3.057200000000E-01 -3.993000000000E-01  1.797600000000E-01
      4 F  35 BR    4.209400000000E-01  1.259600000000E-01 -1.797600000000E-01
      5 T  35 BR   -2.339800000000E-01  6.675000000000E-02 -3.488900000000E-01
      6 F  35 BR    4.156400000000E-01  1.149100000000E-01  3.488900000000E-01
      7 F  35 BR   -6.675000000000E-02 -4.156400000000E-01 -3.007300000000E-01
      8 F  35 BR   -1.149100000000E-01  2.339800000000E-01  3.007300000000E-01
      9 T   1 H     1.175700000000E-01 -2.571900000000E-01 -4.136000000000E-01
     10 F   1 H     1.564100000000E-01 -4.688300000000E-01  4.136000000000E-01
     11 F   1 H     2.571900000000E-01 -1.564100000000E-01  3.747600000000E-01
     12 F   1 H     4.688300000000E-01 -1.175700000000E-01 -3.747600000000E-01
     13 T   1 H     1.811100000000E-01 -3.390000000000E-02 -1.008300000000E-01
     14 F   1 H     6.693000000000E-02  2.819400000000E-01  1.008300000000E-01
     15 F   1 H     3.390000000000E-02 -6.693000000000E-02  2.150100000000E-01
     16 F   1 H    -2.819400000000E-01 -1.811100000000E-01 -2.150100000000E-01
     17 T   6 C    -1.974700000000E-01 -1.188000000000E-01  4.506300000000E-01
     18 F   6 C     4.305700000000E-01  3.519000000000E-01 -4.506300000000E-01
     19 F   6 C     1.188000000000E-01 -4.305700000000E-01 -7.867000000000E-02
     20 F   6 C    -3.519000000000E-01  1.974700000000E-01  7.867000000000E-02
     21 T   6 C    -3.338300000000E-01 -1.256000000000E-01  2.945700000000E-01
     22 F   6 C    -4.201700000000E-01  3.716000000000E-01 -2.945700000000E-01
     23 F   6 C     1.256000000000E-01  4.201700000000E-01 -2.082300000000E-01
     24 F   6 C    -3.716000000000E-01  3.338300000000E-01  2.082300000000E-01
     25 T   6 C    -9.899000000000E-02 -2.142900000000E-01  4.320400000000E-01
     26 F   6 C     3.536700000000E-01  4.689700000000E-01 -4.320400000000E-01
     27 F   6 C     2.142900000000E-01 -3.536700000000E-01  1.153000000000E-01
     28 F   6 C    -4.689700000000E-01  9.899000000000E-02 -1.153000000000E-01
     29 T   6 C     7.302000000000E-02 -6.388000000000E-02 -2.317200000000E-01
     30 F   6 C     1.678400000000E-01  3.047400000000E-01  2.317200000000E-01
     31 F   6 C     6.388000000000E-02 -1.678400000000E-01  1.369000000000E-01
     32 F   6 C    -3.047400000000E-01 -7.302000000000E-02 -1.369000000000E-01
     33 T   6 C    -1.559200000000E-01 -4.140000000000E-03 -3.689200000000E-01
     34 F   6 C     3.647800000000E-01  2.130000000000E-01  3.689200000000E-01
     35 F   6 C     4.140000000000E-03 -3.647800000000E-01 -1.517800000000E-01
     36 F   6 C    -2.130000000000E-01  1.559200000000E-01  1.517800000000E-01
     37 T   6 C     2.196300000000E-01  4.432200000000E-01  4.064100000000E-01
     38 F   6 C     3.681000000000E-02 -1.867800000000E-01 -4.064100000000E-01
     39 F   6 C    -4.432200000000E-01 -3.681000000000E-02 -2.235900000000E-01
     40 F   6 C     1.867800000000E-01 -2.196300000000E-01  2.235900000000E-01
     41 T   7 N    -3.698800000000E-01  8.060000000000E-03  3.036000000000E-01
     42 F   7 N    -2.955400000000E-01  3.265200000000E-01 -3.036000000000E-01
     43 F   7 N    -8.060000000000E-03  2.955400000000E-01 -3.779400000000E-01
     44 F   7 N    -3.265200000000E-01  3.698800000000E-01  3.779400000000E-01
     45 T   7 N     4.956200000000E-01 -4.619000000000E-02  1.298900000000E-01
     46 F   7 N    -1.760800000000E-01  3.657300000000E-01 -1.298900000000E-01
     47 F   7 N     4.619000000000E-02  1.760800000000E-01 -4.581900000000E-01
     48 F   7 N    -3.657300000000E-01 -4.956200000000E-01  4.581900000000E-01
     49 T   7 N    -4.438100000000E-01 -2.597400000000E-01  1.196500000000E-01
     50 F   7 N    -3.793900000000E-01  4.365400000000E-01 -1.196500000000E-01
     51 F   7 N     2.597400000000E-01  3.793900000000E-01 -1.840700000000E-01
     52 F   7 N    -4.365400000000E-01  4.438100000000E-01  1.840700000000E-01
     53 T   7 N     4.516900000000E-01 -2.071600000000E-01  1.889000000000E-02
     54 F   7 N    -2.260500000000E-01  4.328000000000E-01 -1.889000000000E-02
     55 F   7 N     2.071600000000E-01  2.260500000000E-01 -3.411500000000E-01
     56 F   7 N    -4.328000000000E-01 -4.516900000000E-01  3.411500000000E-01
     57 T   7 N    -2.332000000000E-02  2.533000000000E-02 -2.138100000000E-01
     58 F   7 N     2.391400000000E-01  1.904900000000E-01  2.138100000000E-01
     59 F   7 N    -2.533000000000E-02 -2.391400000000E-01 -4.865000000000E-02
     60 F   7 N    -1.904900000000E-01  2.332000000000E-02  4.865000000000E-02
     61 T  30 ZN   -2.500000000000E-01  2.500000000000E-01  5.000000000000E-01
     62 T  30 ZN   -5.000000000000E-01  5.000000000000E-01  0.000000000000E+00

 TRANSFORMATION MATRIX PRIMITIVE-CRYSTALLOGRAPHIC CELL
  0.0000  1.0000  1.0000  1.0000  0.0000  1.0000  1.0000  1.0000  0.0000

 *******************************************************************************
 CRYSTALLOGRAPHIC CELL (VOLUME=       1371.74091142)
         A              B              C           ALPHA      BETA       GAMMA 
    10.15800000    10.15800000    13.29400000    90.000000  90.000000  90.000000

 COORDINATES IN THE CRYSTALLOGRAPHIC CELL
     ATOM                 X/A                 Y/B                 Z/C    
 *******************************************************************************
      1 T  35 BR    5.761000000000E-02  2.373700000000E-01 -3.633300000000E-01
      2 F  35 BR   -5.761000000000E-02 -2.373700000000E-01 -3.633300000000E-01
      3 F  35 BR    2.373700000000E-01 -5.761000000000E-02  3.633300000000E-01
      4 F  35 BR   -2.373700000000E-01  5.761000000000E-02  3.633300000000E-01
      5 T  35 BR   -2.408000000000E-02 -3.248100000000E-01  9.083000000000E-02
      6 F  35 BR    2.408000000000E-02  3.248100000000E-01  9.083000000000E-02
      7 F  35 BR   -3.248100000000E-01  2.408000000000E-02 -9.083000000000E-02
      8 F  35 BR    3.248100000000E-01 -2.408000000000E-02 -9.083000000000E-02
      9 T   1 H    -3.941800000000E-01 -1.942000000000E-02  1.369900000000E-01
     10 F   1 H     3.941800000000E-01  1.942000000000E-02  1.369900000000E-01
     11 F   1 H    -1.942000000000E-02  3.941800000000E-01 -1.369900000000E-01
     12 F   1 H     1.942000000000E-02 -3.941800000000E-01 -1.369900000000E-01
     13 T   1 H    -1.579200000000E-01  5.709000000000E-02  1.240200000000E-01
     14 F   1 H     1.579200000000E-01 -5.709000000000E-02  1.240200000000E-01
     15 F   1 H     5.709000000000E-02  1.579200000000E-01 -1.240200000000E-01
     16 F   1 H    -5.709000000000E-02 -1.579200000000E-01 -1.240200000000E-01
     17 T   6 C    -2.353500000000E-01 -3.140200000000E-01  1.165500000000E-01
     18 F   6 C     2.353500000000E-01  3.140200000000E-01  1.165500000000E-01
     19 F   6 C    -3.140200000000E-01  2.353500000000E-01 -1.165500000000E-01
     20 F   6 C     3.140200000000E-01 -2.353500000000E-01 -1.165500000000E-01
     21 T   6 C    -2.486000000000E-01 -4.568300000000E-01  1.230000000000E-01
     22 F   6 C     2.486000000000E-01  4.568300000000E-01  1.230000000000E-01
     23 F   6 C    -4.568300000000E-01  2.486000000000E-01 -1.230000000000E-01
     24 F   6 C     4.568300000000E-01 -2.486000000000E-01 -1.230000000000E-01
     25 T   6 C    -3.416300000000E-01 -2.263300000000E-01  1.273400000000E-01
     26 F   6 C     3.416300000000E-01  2.263300000000E-01  1.273400000000E-01
     27 F   6 C    -2.263300000000E-01  3.416300000000E-01 -1.273400000000E-01
     28 F   6 C     2.263300000000E-01 -3.416300000000E-01 -1.273400000000E-01
     29 T   6 C    -1.843100000000E-01 -4.741000000000E-02  1.204300000000E-01
     30 F   6 C     1.843100000000E-01  4.741000000000E-02  1.204300000000E-01
     31 F   6 C    -4.741000000000E-02  1.843100000000E-01 -1.204300000000E-01
     32 F   6 C     4.741000000000E-02 -1.843100000000E-01 -1.204300000000E-01
     33 T   6 C    -1.085700000000E-01 -2.603500000000E-01  1.044300000000E-01
     34 F   6 C     1.085700000000E-01  2.603500000000E-01  1.044300000000E-01
     35 F   6 C    -2.603500000000E-01  1.085700000000E-01 -1.044300000000E-01
     36 F   6 C     2.603500000000E-01 -1.085700000000E-01 -1.044300000000E-01
     37 T   6 C     3.150000000000E-01  9.141000000000E-02  1.282200000000E-01
     38 F   6 C    -3.150000000000E-01 -9.141000000000E-02  1.282200000000E-01
     39 F   6 C     9.141000000000E-02 -3.150000000000E-01 -1.282200000000E-01
     40 F   6 C    -9.141000000000E-02  3.150000000000E-01 -1.282200000000E-01
     41 T   7 N    -1.592300000000E-01  4.628300000000E-01  1.672900000000E-01
     42 F   7 N     1.592300000000E-01 -4.628300000000E-01  1.672900000000E-01
     43 F   7 N     4.628300000000E-01  1.592300000000E-01 -1.672900000000E-01
     44 F   7 N    -4.628300000000E-01 -1.592300000000E-01 -1.672900000000E-01
     45 T   7 N    -2.059600000000E-01  3.358500000000E-01  1.597700000000E-01
     46 F   7 N     2.059600000000E-01 -3.358500000000E-01  1.597700000000E-01
     47 F   7 N     3.358500000000E-01  2.059600000000E-01 -1.597700000000E-01
     48 F   7 N    -3.358500000000E-01 -2.059600000000E-01 -1.597700000000E-01
     49 T   7 N     1.518600000000E-01 -3.221000000000E-02 -4.116000000000E-01
     50 F   7 N    -1.518600000000E-01  3.221000000000E-02 -4.116000000000E-01
     51 F   7 N    -3.221000000000E-02 -1.518600000000E-01  4.116000000000E-01
     52 F   7 N     3.221000000000E-02  1.518600000000E-01  4.116000000000E-01
     53 T   7 N    -3.199800000000E-01  3.388700000000E-01  1.128200000000E-01
     54 F   7 N     3.199800000000E-01 -3.388700000000E-01  1.128200000000E-01
     55 F   7 N     3.388700000000E-01  3.199800000000E-01 -1.128200000000E-01
     56 F   7 N    -3.388700000000E-01 -3.199800000000E-01 -1.128200000000E-01
     57 T   7 N    -8.258000000000E-02 -1.312300000000E-01  1.079100000000E-01
     58 F   7 N     8.258000000000E-02  1.312300000000E-01  1.079100000000E-01
     59 F   7 N    -1.312300000000E-01  8.258000000000E-02 -1.079100000000E-01
     60 F   7 N     1.312300000000E-01 -8.258000000000E-02 -1.079100000000E-01
     61 T  30 ZN    4.626932236752E-17  5.000000000000E-01  2.500000000000E-01
     62 T  30 ZN    0.000000000000E+00  0.000000000000E+00  5.000000000000E-01

 T = ATOM BELONGING TO THE ASYMMETRIC UNIT

 ****    4 SYMMOPS - TRANSLATORS IN FRACTIONAL UNITS
 **** MATRICES AND TRANSLATORS IN THE CRYSTALLOGRAPHIC REFERENCE FRAME
   V INV                    ROTATION MATRICES                   TRANSLATORS
   1   1  1.00  0.00  0.00  0.00  1.00  0.00  0.00  0.00  1.00  0.00  0.00  0.00
   2   2  0.00  1.00 -1.00  1.00 -0.00 -1.00 -0.00  0.00 -1.00  0.00  0.00  0.00
   3   4 -0.00 -1.00  0.00  0.00 -1.00  1.00  1.00 -1.00  0.00  0.00  0.00  0.00
   4   3 -1.00 -0.00  1.00 -1.00  0.00 -0.00 -1.00  1.00 -0.00  0.00  0.00  0.00

 DIRECT LATTICE VECTORS CARTESIAN COMPONENTS (ANGSTROM)
          X                    Y                    Z
  -0.507900000000E+01   0.507900000000E+01   0.664700000000E+01
   0.507900000000E+01  -0.507900000000E+01   0.664700000000E+01
   0.507900000000E+01   0.507900000000E+01  -0.664700000000E+01


 CARTESIAN COORDINATES - PRIMITIVE CELL
 *******************************************************************************
 *      ATOM          X(ANGSTROM)         Y(ANGSTROM)         Z(ANGSTROM)
 *******************************************************************************
    1    35 BR    5.852023800000E-01  2.411204460000E+00 -4.830109020000E+00
    2    35 BR   -5.852023800000E-01 -2.411204460000E+00 -4.830109020000E+00
    3    35 BR    2.411204460000E+00 -5.852023800000E-01  4.830109020000E+00
    4    35 BR   -2.411204460000E+00  5.852023800000E-01  4.830109020000E+00
    5    35 BR   -2.446046400000E-01 -3.299419980000E+00  1.207494020000E+00
    6    35 BR    2.446046400000E-01  3.299419980000E+00  1.207494020000E+00
    7    35 BR   -3.299419980000E+00  2.446046400000E-01 -1.207494020000E+00
    8    35 BR    3.299419980000E+00 -2.446046400000E-01 -1.207494020000E+00
    9     1 H    -4.004080440000E+00 -1.972683600000E-01  1.821145060000E+00
   10     1 H     4.004080440000E+00  1.972683600000E-01  1.821145060000E+00
   11     1 H    -1.972683600000E-01  4.004080440000E+00 -1.821145060000E+00
   12     1 H     1.972683600000E-01 -4.004080440000E+00 -1.821145060000E+00
   13     1 H    -1.604151360000E+00  5.799202200000E-01  1.648721880000E+00
   14     1 H     1.604151360000E+00 -5.799202200000E-01  1.648721880000E+00
   15     1 H     5.799202200000E-01  1.604151360000E+00 -1.648721880000E+00
   16     1 H    -5.799202200000E-01 -1.604151360000E+00 -1.648721880000E+00
   17     6 C    -2.390685300000E+00 -3.189815160000E+00  1.549415700000E+00
   18     6 C     2.390685300000E+00  3.189815160000E+00  1.549415700000E+00
   19     6 C    -3.189815160000E+00  2.390685300000E+00 -1.549415700000E+00
   20     6 C     3.189815160000E+00 -2.390685300000E+00 -1.549415700000E+00
   21     6 C    -2.525278800000E+00 -4.640479140000E+00  1.635162000000E+00
   22     6 C     2.525278800000E+00  4.640479140000E+00  1.635162000000E+00
   23     6 C    -4.640479140000E+00  2.525278800000E+00 -1.635162000000E+00
   24     6 C     4.640479140000E+00 -2.525278800000E+00 -1.635162000000E+00
   25     6 C    -3.470277540000E+00 -2.299060140000E+00  1.692857960000E+00
   26     6 C     3.470277540000E+00  2.299060140000E+00  1.692857960000E+00
   27     6 C    -2.299060140000E+00  3.470277540000E+00 -1.692857960000E+00
   28     6 C     2.299060140000E+00 -3.470277540000E+00 -1.692857960000E+00
   29     6 C    -1.872220980000E+00 -4.815907800000E-01  1.600996420000E+00
   30     6 C     1.872220980000E+00  4.815907800000E-01  1.600996420000E+00
   31     6 C    -4.815907800000E-01  1.872220980000E+00 -1.600996420000E+00
   32     6 C     4.815907800000E-01 -1.872220980000E+00 -1.600996420000E+00
   33     6 C    -1.102854060000E+00 -2.644635300000E+00  1.388292420000E+00
   34     6 C     1.102854060000E+00  2.644635300000E+00  1.388292420000E+00
   35     6 C    -2.644635300000E+00  1.102854060000E+00 -1.388292420000E+00
   36     6 C     2.644635300000E+00 -1.102854060000E+00 -1.388292420000E+00
   37     6 C     3.199770000000E+00  9.285427800000E-01  1.704556680000E+00
   38     6 C    -3.199770000000E+00 -9.285427800000E-01  1.704556680000E+00
   39     6 C     9.285427800000E-01 -3.199770000000E+00 -1.704556680000E+00
   40     6 C    -9.285427800000E-01  3.199770000000E+00 -1.704556680000E+00
   41     7 N    -1.617458340000E+00  4.701427140000E+00  2.223953260000E+00
   42     7 N     1.617458340000E+00 -4.701427140000E+00  2.223953260000E+00
   43     7 N     4.701427140000E+00  1.617458340000E+00 -2.223953260000E+00
   44     7 N    -4.701427140000E+00 -1.617458340000E+00 -2.223953260000E+00
   45     7 N    -2.092141680000E+00  3.411564300000E+00  2.123982380000E+00
   46     7 N     2.092141680000E+00 -3.411564300000E+00  2.123982380000E+00
   47     7 N     3.411564300000E+00  2.092141680000E+00 -2.123982380000E+00
   48     7 N    -3.411564300000E+00 -2.092141680000E+00 -2.123982380000E+00
   49     7 N     1.542593880000E+00 -3.271891800000E-01 -5.471810400000E+00
   50     7 N    -1.542593880000E+00  3.271891800000E-01 -5.471810400000E+00
   51     7 N    -3.271891800000E-01 -1.542593880000E+00  5.471810400000E+00
   52     7 N     3.271891800000E-01  1.542593880000E+00  5.471810400000E+00
   53     7 N    -3.250356840000E+00  3.442241460000E+00  1.499829080000E+00
   54     7 N     3.250356840000E+00 -3.442241460000E+00  1.499829080000E+00
   55     7 N     3.442241460000E+00  3.250356840000E+00 -1.499829080000E+00
   56     7 N    -3.442241460000E+00 -3.250356840000E+00 -1.499829080000E+00
   57     7 N    -8.388476400000E-01 -1.333034340000E+00  1.434555540000E+00
   58     7 N     8.388476400000E-01  1.333034340000E+00  1.434555540000E+00
   59     7 N    -1.333034340000E+00  8.388476400000E-01 -1.434555540000E+00
   60     7 N     1.333034340000E+00 -8.388476400000E-01 -1.434555540000E+00
   61    30 ZN    4.700037766092E-16  5.079000000000E+00 -9.970500000000E+00
   62    30 ZN    0.000000000000E+00  0.000000000000E+00  6.647000000000E+00

 *******************************************************************************
 STARTING BASIS SET HANDLING 
 *******************************************************************************

 Loading internal basis set: POB-DZVPP           

 Please cite in your publication:
 Peintinger, M. F., Oliveira, D. V. and Bredow, T. (2013), Generally applicable 
 solid-state Gaussian basis sets, in preparation                                
                                                                                
                    

 *******************************************************************************
 LOCAL ATOMIC FUNCTIONS BASIS SET
 *******************************************************************************
   ATOM   X(AU)   Y(AU)   Z(AU)  N. TYPE  EXPONENT  S COEF   P COEF   D/F/G COEF
 *******************************************************************************
   1 BR   1.106   4.557  -9.128
                                  1 S  
                                         1.133E+05 1.428E-03 0.000E+00 0.000E+00
                                         1.701E+04 1.095E-02 0.000E+00 0.000E+00
                                         3.870E+03 5.442E-02 0.000E+00 0.000E+00
                                         1.093E+03 1.905E-01 0.000E+00 0.000E+00
                                         3.564E+02 3.902E-01 0.000E+00 0.000E+00
                                         1.231E+02 3.081E-01 0.000E+00 0.000E+00
                                  2 S  
                                         2.367E+02-1.123E-01 0.000E+00 0.000E+00
                                         2.847E+01 6.478E-01 0.000E+00 0.000E+00
                                         1.188E+01 4.424E-01 0.000E+00 0.000E+00
                                  3 S  
                                         2.127E+01-2.264E-01 0.000E+00 0.000E+00
                                         3.613E+00 7.382E-01 0.000E+00 0.000E+00
                                         1.663E+00 4.268E-01 0.000E+00 0.000E+00
                                  4 S  
                                         3.641E-01 1.000E+00 0.000E+00 0.000E+00
                                  5 S  
                                         1.243E-01 1.000E+00 0.000E+00 0.000E+00
                           6-     8 P  
                                         1.560E+03 0.000E+00 8.717E-03 0.000E+00
                                         3.685E+02 0.000E+00 6.624E-02 0.000E+00
                                         1.172E+02 0.000E+00 2.650E-01 0.000E+00
                                         4.265E+01 0.000E+00 5.384E-01 0.000E+00
                                         1.609E+01 0.000E+00 3.658E-01 0.000E+00
                           9-    11 P  
                                         8.635E+00 0.000E+00 3.425E-01 0.000E+00
                                         3.561E+00 0.000E+00 5.750E-01 0.000E+00
                                         1.529E+00 0.000E+00 2.433E-01 0.000E+00
                          12-    14 P  
                                         6.447E-01 0.000E+00 1.000E+00 0.000E+00
                          15-    17 P  
                                         2.103E-01 0.000E+00 1.000E+00 0.000E+00
                          18-    22 D  
                                         1.049E+02 0.000E+00 0.000E+00 2.265E-02
                                         3.028E+01 0.000E+00 0.000E+00 1.346E-01
                                         1.065E+01 0.000E+00 0.000E+00 3.647E-01
                                         3.870E+00 0.000E+00 0.000E+00 4.904E-01
                          23-    27 D  
                                         1.342E+00 0.000E+00 0.000E+00 1.000E+00
                          28-    32 D  
                                         4.101E-01 0.000E+00 0.000E+00 1.000E+00
                          33-    37 D  
                                         1.985E-01 0.000E+00 0.000E+00 1.000E+00
   2 BR  -1.106  -4.557  -9.128
   3 BR   4.557  -1.106   9.128
   4 BR  -4.557   1.106   9.128
   5 BR  -0.462  -6.235   2.282
   6 BR   0.462   6.235   2.282
   7 BR  -6.235   0.462  -2.282
   8 BR   6.235  -0.462  -2.282
   9 H   -7.567  -0.373   3.441
                                297 S  
                                         2.263E+01 1.441E-02 0.000E+00 0.000E+00
                                         3.236E+00 1.072E-01 0.000E+00 0.000E+00
                                         7.304E-01 3.846E-01 0.000E+00 0.000E+00
                                298 S  
                                         1.417E-01 1.000E+00 0.000E+00 0.000E+00
                         299-   301 P  
                                         3.944E-01 0.000E+00 1.000E+00 0.000E+00
                         302-   304 P  
                                         1.006E-01 0.000E+00 1.000E+00 0.000E+00
  10 H    7.567   0.373   3.441
  11 H   -0.373   7.567  -3.441
  12 H    0.373  -7.567  -3.441
  13 H   -3.031   1.096   3.116
  14 H    3.031  -1.096   3.116
  15 H    1.096   3.031  -3.116
  16 H   -1.096  -3.031  -3.116
  17 C   -4.518  -6.028   2.928
                                361 S  
                                         1.238E+03 5.457E-03 0.000E+00 0.000E+00
                                         1.863E+02 4.064E-02 0.000E+00 0.000E+00
                                         4.225E+01 1.803E-01 0.000E+00 0.000E+00
                                         1.168E+01 4.632E-01 0.000E+00 0.000E+00
                                         3.593E+00 4.409E-01 0.000E+00 0.000E+00
                                362 S  
                                         5.281E+00 1.000E+00 0.000E+00 0.000E+00
                                363 S  
                                         4.447E-01 1.000E+00 0.000E+00 0.000E+00
                         364-   366 P  
                                         9.468E+00 0.000E+00 3.839E-02 0.000E+00
                                         2.010E+00 0.000E+00 2.112E-01 0.000E+00
                                         5.477E-01 0.000E+00 5.133E-01 0.000E+00
                         367-   369 P  
                                         1.604E-01 0.000E+00 1.000E+00 0.000E+00
                         370-   374 D  
                                         6.070E-01 0.000E+00 0.000E+00 1.000E+00
                         375-   379 D  
                                         2.939E-01 0.000E+00 0.000E+00 1.000E+00
  18 C    4.518   6.028   2.928
  19 C   -6.028   4.518  -2.928
  20 C    6.028  -4.518  -2.928
  21 C   -4.772  -8.769   3.090
  22 C    4.772   8.769   3.090
  23 C   -8.769   4.772  -3.090
  24 C    8.769  -4.772  -3.090
  25 C   -6.558  -4.345   3.199
  26 C    6.558   4.345   3.199
  27 C   -4.345   6.558  -3.199
  28 C    4.345  -6.558  -3.199
  29 C   -3.538  -0.910   3.025
  30 C    3.538   0.910   3.025
  31 C   -0.910   3.538  -3.025
  32 C    0.910  -3.538  -3.025
  33 C   -2.084  -4.998   2.623
  34 C    2.084   4.998   2.623
  35 C   -4.998   2.084  -2.623
  36 C    4.998  -2.084  -2.623
  37 C    6.047   1.755   3.221
  38 C   -6.047  -1.755   3.221
  39 C    1.755  -6.047  -3.221
  40 C   -1.755   6.047  -3.221
  41 N   -3.057   8.884   4.203
                                817 S  
                                         1.713E+03-5.393E-03 0.000E+00 0.000E+00
                                         2.576E+02-4.022E-02 0.000E+00 0.000E+00
                                         5.846E+01-1.793E-01 0.000E+00 0.000E+00
                                         1.620E+01-4.638E-01 0.000E+00 0.000E+00
                                         5.005E+00-4.417E-01 0.000E+00 0.000E+00
                                818 S  
                                         6.217E-01 1.000E+00 0.000E+00 0.000E+00
                                819 S  
                                         2.921E-01 1.000E+00 0.000E+00 0.000E+00
                         820-   822 P  
                                         1.357E+01 0.000E+00-4.007E-02 0.000E+00
                                         2.926E+00 0.000E+00-2.181E-01 0.000E+00
                                         7.993E-01 0.000E+00-5.129E-01 0.000E+00
                         823-   825 P  
                                         2.244E-01 0.000E+00 1.000E+00 0.000E+00
                         826-   830 D  
                                         3.118E-01 0.000E+00 0.000E+00 1.000E+00
  42 N    3.057  -8.884   4.203
  43 N    8.884   3.057  -4.203
  44 N   -8.884  -3.057  -4.203
  45 N   -3.954   6.447   4.014
  46 N    3.954  -6.447   4.014
  47 N    6.447   3.954  -4.014
  48 N   -6.447  -3.954  -4.014
  49 N    2.915  -0.618 -10.340
  50 N   -2.915   0.618 -10.340
  51 N   -0.618  -2.915  10.340
  52 N    0.618   2.915  10.340
  53 N   -6.142   6.505   2.834
  54 N    6.142  -6.505   2.834
  55 N    6.505   6.142  -2.834
  56 N   -6.505  -6.142  -2.834
  57 N   -1.585  -2.519   2.711
  58 N    1.585   2.519   2.711
  59 N   -2.519   1.585  -2.711
  60 N    2.519  -1.585  -2.711
  61 ZN   0.000   9.598 -18.842
                               1097 S  
                                         8.200E+04 1.421E-03 0.000E+00 0.000E+00
                                         1.231E+04 1.089E-02 0.000E+00 0.000E+00
                                         2.801E+03 5.406E-02 0.000E+00 0.000E+00
                                         7.910E+02 1.885E-01 0.000E+00 0.000E+00
                                         2.576E+02 3.835E-01 0.000E+00 0.000E+00
                                         8.881E+01 2.972E-01 0.000E+00 0.000E+00
                               1098 S  
                                         1.719E+02-1.105E-01 0.000E+00 0.000E+00
                                         2.030E+01 6.461E-01 0.000E+00 0.000E+00
                                         8.346E+00 4.422E-01 0.000E+00 0.000E+00
                               1099 S  
                                         1.485E+01-2.271E-01 0.000E+00 0.000E+00
                                         2.450E+00 7.243E-01 0.000E+00 0.000E+00
                                         9.985E-01 4.484E-01 0.000E+00 0.000E+00
                               1100 S  
                                         1.493E+00 1.000E+00 0.000E+00 0.000E+00
                               1101 S  
                                         1.830E-01 1.000E+00 0.000E+00 0.000E+00
                        1102-  1104 P  
                                         1.072E+03 0.000E+00 9.277E-03 0.000E+00
                                         2.527E+02 0.000E+00 6.954E-02 0.000E+00
                                         8.010E+01 0.000E+00 2.716E-01 0.000E+00
                                         2.890E+01 0.000E+00 5.340E-01 0.000E+00
                                         1.077E+01 0.000E+00 3.450E-01 0.000E+00
                        1105-  1107 P  
                                         5.645E+00 0.000E+00 3.413E-01 0.000E+00
                                         2.168E+00 0.000E+00 5.639E-01 0.000E+00
                                         8.054E-01 0.000E+00 2.368E-01 0.000E+00
                        1108-  1110 P  
                                         2.721E-01 0.000E+00 1.000E+00 0.000E+00
                        1111-  1115 D  
                                         5.609E+01 0.000E+00 0.000E+00 2.959E-02
                                         1.575E+01 0.000E+00 0.000E+00 1.587E-01
                                         5.312E+00 0.000E+00 0.000E+00 3.798E-01
                                         1.774E+00 0.000E+00 0.000E+00 4.690E-01
                        1116-  1120 D  
                                         5.073E-01 0.000E+00 0.000E+00 1.000E+00
                        1121-  1127 F  
                                         2.814E+00 0.000E+00 0.000E+00 1.000E+00
                        1128-  1134 F  
                                         1.300E+00 0.000E+00 0.000E+00 1.000E+00
  62 ZN   0.000   0.000  12.561

 *******************************************************************************
 FINISHED BASIS SET HANDLING 
 *******************************************************************************

 INFORMATION **** SET_MPP **** PCRYSTAL CALCULATION
 INFORMATION **** READM2 **** NEW DEFAULT: FOCK/KS MATRIX MIXING SET TO 30 %
 INFORMATION **** READM2 **** NEW DEFAULT: FULL DIRECT SCF MODE
 INFORMATION **** READM2 **** NEW DEFAULT: COULOMB BIPOLAR BUFFER SET TO 32 Mb
 INFORMATION **** READM2 **** NEW DEFAULT: EXCHANGE BIPOLAR BUFFER SET TO 32 Mb

 *******************************************************************************
 NEW DEFAULT: DFT INTEGRATION GRID INCREASED TO XLGRID
 NEW DEFAULT: DIIS ACCELERATOR ACTIVE
 USE KEYWORD NODIIS TO TURN IT OFF
 *******************************************************************************

 INFORMATION **** DFTD3_INPUT **** PERFORM DISPERSION CORRECTION DFT-D3(BJ) IN THE BECKE-JOHNSON DAMPING SCHEME

 PLEASE CITE:
 (1) DFT-D3 Reference
  S. Grimme, J. Antony, S. Ehrlich, and H. Krieg, J. Chem. Phys. 132 (2010), 154104
 (2) BJ-Damping Reference
  S. Grimme, S. Ehrlich, and L. Goerigk, J. Comput. Chem. 32 (2011), 1456-1465
 (3) General DFT-D Review
  S. Grimme, A. Hansen, J. G. Brandenburg, and C. Bannwarth,
  Chem. Rev. 116 (2016), 5105-5154

 INFORMATION **** BIPOSIZE **** COULOMB BIPOLAR BUFFER SET TO    30000000
 INFORMATION **** EXCHSIZE **** EXCHANGE BIPOLAR BUFFER SIZE SET TO    30000000
 INFORMATION **** TOLINTEG **** COULOMB AND EXCHANGE SERIES TOLERANCES MODIFIED
 INFORMATION **** MAXCYCLE **** MAX NUMBER OF SCF CYCLES SET TO          50
 *******************************************************************************
 N. OF ATOMS PER CELL        62  COULOMB OVERLAP TOL         (T1) 10**  -12
 NUMBER OF SHELLS           448  COULOMB PENETRATION TOL     (T2) 10**  -12
 NUMBER OF AO              1172  EXCHANGE OVERLAP TOL        (T3) 10**   20
 N. OF ELECTRONS PER CELL   632  EXCHANGE PSEUDO OVP (F(G))  (T4) 10**   20
 CORE ELECTRONS PER CELL    348  EXCHANGE PSEUDO OVP (P(G))  (T5) 10**   20
 N. OF SYMMETRY OPERATORS     4  POLE ORDER IN MONO ZONE                  4
 *******************************************************************************
 TYPE OF CALCULATION :  RESTRICTED CLOSED SHELL
 KOHN-SHAM HAMILTONIAN

 (EXCHANGE)[CORRELATION] FUNCTIONAL:(PERDEW-BURKE-ERNZERHOF)[PERDEW-BURKE-ERNZERHOF]


 CAPPA:IS1  3;IS2  3;IS3  3; K PTS MONK NET   6; SYMMOPS:K SPACE   8;G SPACE   4

 *******************************************************************************
 MAX NUMBER OF SCF CYCLES      50  CONVERGENCE ON DELTAP        10**-16
 WEIGHT OF F(I) IN F(I+1)      30% CONVERGENCE ON ENERGY        10**- 7
 SHRINK. FACT.(MONKH.)    3  3  3  NUMBER OF K POINTS IN THE IBZ      6
 SHRINKING FACTOR(GILAT NET)    3  NUMBER OF K POINTS(GILAT NET)      6
 *******************************************************************************
 *** K POINTS COORDINATES (OBLIQUE COORDINATES IN UNITS OF IS =  3)
   1-R(  0  0  0)   2-C(  1  0  0)   3-C(  1  1  0)   4-C(  2  1  0)
   5-C(  2  1  1)   6-C(  2  2  1)

 DIRECT LATTICE VECTORS COMPON. (A.U.)     RECIP. LATTICE VECTORS COMPON. (A.U.) 
        X            Y            Z              X            Y            Z
   -9.5979190    9.5979190   12.5610096      0.0000000    0.3273202    0.2501067
    9.5979190   -9.5979190   12.5610096      0.3273202    0.0000000    0.2501067
    9.5979190    9.5979190  -12.5610096      0.3273202    0.3273202    0.0000000

 DISK SPACE FOR EIGENVECTORS (FTN 10)    15109424 REALS

 SYMMETRY ADAPTION OF THE BLOCH FUNCTIONS ENABLED
 TTTTTTTTTTTTTTTTTTTTTTTTTTTTTT gordsh1     TELAPSE        1.16 TCPU        0.04

 MATRIX SIZE: P(G) 2372084, F(G) 1187156, P(G) IRR  299653, F(G) IRR  299653
 MAX G-VECTOR INDEX FOR 1- AND 2-ELECTRON INTEGRALS  63

 TTTTTTTTTTTTTTTTTTTTTTTTTTTTTT INPUT       TELAPSE        1.27 TCPU        0.15

 NEIGHBORS OF THE NON-EQUIVALENT ATOMS

 N = NUMBER OF NEIGHBORS AT DISTANCE R
    ATOM  N     R/ANG      R/AU   NEIGHBORS (ATOM LABELS AND CELL INDICES)
   1 BR   1     1.0950     2.0692   25 C    0 0 1
   1 BR   1     2.1707     4.1021   38 C    0 0 1
   1 BR   1     2.1834     4.1260   17 C    0 0 1
   1 BR   1     2.5186     4.7595    9 H    0 0 1
   1 BR   1     2.5548     4.8279   54 N    0-1 0
   1 BR   1     2.7928     5.2776   21 C    0 0 1

   5 BR   1     1.0945     2.0684   33 C    0 0 0
   5 BR   1     2.0667     3.9055   57 N    0 0 0
   5 BR   1     2.1759     4.1119   17 C    0 0 0
   5 BR   1     2.5126     4.7480   46 N    0 0 0
   5 BR   1     2.5429     4.8053   42 N    0 0 0
   5 BR   1     2.6801     5.0646   21 C    0 0 0

   9 H    1     1.0933     2.0660   38 C    0 0 0
   9 H    1     2.1620     4.0855   29 C    0 0 0
   9 H    1     2.1723     4.1051   25 C    0 0 0
   9 H    1     2.1857     4.1305   10 H    0-1-1
   9 H    1     2.5186     4.7595    1 BR   0 0-1
   9 H    1     2.5285     4.7782   13 H    0 0 0

  13 H    1     1.0959     2.0709   29 C    0 0 0
  13 H    1     2.0715     3.9145   57 N    0 0 0
  13 H    1     2.1965     4.1508   38 C    0 0 0
  13 H    1     2.5285     4.7782    9 H    0 0 0
  13 H    1     2.5654     4.8479   58 N    0 0 0
  13 H    1     2.9124     5.5037   45 N    0 0 0

  17 C    1     1.4070     2.6588   25 C    0 0 0
  17 C    1     1.4077     2.6602   33 C    0 0 0
  17 C    1     1.4594     2.7579   21 C    0 0 0
  17 C    1     2.1759     4.1119    5 BR   0 0 0
  17 C    1     2.1834     4.1260    1 BR   0 0-1
  17 C    1     2.4067     4.5479   38 C    0 0 0

  21 C    1     1.3492     2.5496   49 N    0 0-1
  21 C    1     1.3553     2.5611   41 N   -1 0-1
  21 C    1     1.4594     2.7579   17 C    0 0 0
  21 C    1     2.2025     4.1620   53 N   -1 0-1
  21 C    1     2.2049     4.1667   45 N   -1 0-1
  21 C    1     2.4633     4.6549   33 C    0 0 0

  25 C    1     1.0950     2.0692    1 BR   0 0-1
  25 C    1     1.3970     2.6400   38 C    0 0 0
  25 C    1     1.4070     2.6588   17 C    0 0 0
  25 C    1     2.1723     4.1051    9 H    0 0 0
  25 C    1     2.4118     4.5577   33 C    0 0 0
  25 C    1     2.4219     4.5767   29 C    0 0 0

  29 C    1     1.0959     2.0709   13 H    0 0 0
  29 C    1     1.3493     2.5497   57 N    0 0 0
  29 C    1     1.4046     2.6543   38 C    0 0 0
  29 C    1     2.1620     4.0855    9 H    0 0 0
  29 C    1     2.3056     4.3570   33 C    0 0 0
  29 C    1     2.4219     4.5767   25 C    0 0 0

  33 C    1     1.0945     2.0684    5 BR   0 0 0
  33 C    1     1.3387     2.5298   57 N    0 0 0
  33 C    1     1.4077     2.6602   17 C    0 0 0
  33 C    1     2.3056     4.3570   29 C    0 0 0
  33 C    1     2.4118     4.5577   25 C    0 0 0
  33 C    1     2.4633     4.6549   21 C    0 0 0

  37 C    1     1.0933     2.0660   10 H    0 0 0
  37 C    1     1.3970     2.6400   26 C    0 0 0
  37 C    1     1.4046     2.6543   30 C    0 0 0
  37 C    1     2.1707     4.1021    2 BR   1 1 1
  37 C    1     2.1965     4.1508   14 H    0 0 0
  37 C    1     2.4067     4.5479   18 C    0 0 0

  41 N    1     1.3553     2.5611   21 C    1 0 1
  41 N    1     1.3781     2.6042   45 N    0 0 0
  41 N    1     1.9919     3.7642   61 ZN   1 1 0
  41 N    1     2.1855     4.1299   53 N    0 0 0
  41 N    1     2.1874     4.1336   49 N    1 0 0
  41 N    1     2.4882     4.7020   17 C    1 0 1

  45 N    1     1.3160     2.4870   53 N    0 0 0
  45 N    1     1.3781     2.6042   41 N    0 0 0
  45 N    1     2.1869     4.1326   49 N    1 0 0
  45 N    1     2.2049     4.1667   21 C    1 0 1
  45 N    1     2.5126     4.7480    6 BR   0 0 0
  45 N    1     2.9124     5.5037   13 H    0 0 0

  49 N    1     1.3492     2.5496   21 C    0 0 1
  49 N    1     1.3792     2.6063   53 N   -1 0 0
  49 N    1     1.9667     3.7164   62 ZN  -1-1 0
  49 N    1     2.1869     4.1326   45 N   -1 0 0
  49 N    1     2.1874     4.1336   41 N   -1 0 0
  49 N    1     2.5229     4.7676   17 C    0 0 1

  53 N    1     1.3160     2.4870   45 N    0 0 0
  53 N    1     1.3792     2.6063   49 N    1 0 0
  53 N    1     2.1855     4.1299   41 N    0 0 0
  53 N    1     2.2025     4.1620   21 C    1 0 1
  53 N    1     2.5548     4.8279    2 BR   1 0 0
  53 N    1     2.8762     5.4352   62 ZN   0-1 0

  57 N    1     1.3387     2.5298   33 C    0 0 0
  57 N    1     1.3493     2.5497   29 C    0 0 0
  57 N    1     2.0667     3.9055    5 BR   0 0 0
  57 N    1     2.0715     3.9145   13 H    0 0 0
  57 N    1     2.4105     4.5552   38 C    0 0 0
  57 N    1     2.4226     4.5781   17 C    0 0 0

  61 ZN   4     1.9919     3.7642   41 N   -1-1 0   42 N    0-1 1   43 N    0-1 0
                                    44 N    0 0 1
  61 ZN   4     2.7756     5.2452    5 BR   0-1 1    6 BR  -1-1 0    7 BR   0 0 1
                                     8 BR   0-1 0
  61 ZN   4     2.9319     5.5406   45 N   -1-1 0   46 N    0-1 1   47 N    0-1 0
                                    48 N    0 0 1
  61 ZN   4     3.0692     5.7999   21 C    0-1 1   22 C   -1-1 0   23 C    0 0 1
                                    24 C    0-1 0
  61 ZN   4     3.2996     6.2354   33 C    0-1 1   34 C   -1-1 0   35 C    0 0 1
                                    36 C    0-1 0
  61 ZN   4     3.5259     6.6629   17 C    0-1 1   18 C   -1-1 0   19 C    0 0 1
                                    20 C    0-1 0

  62 ZN   4     1.9667     3.7164   49 N    1 1 0   50 N    1 1 0   51 N    0 0 0
                                    52 N    0 0 0
  62 ZN   4     2.8762     5.4352   53 N    0 1 0   54 N    1 0 0   55 N    0 0-1
                                    56 N    1 1 1
  62 ZN   4     3.0639     5.7900   21 C    1 1 1   22 C    0 0-1   23 C    0 1 0
                                    24 C    1 0 0
  62 ZN   4     3.0753     5.8115    1 BR   1 1 0    2 BR   1 1 0    3 BR   0 0 0
                                     4 BR   0 0 0
  62 ZN   4     3.6307     6.8610   25 C    1 1 1   26 C    0 0-1   27 C    0 1 0
                                    28 C    1 0 0
  62 ZN   4     3.6327     6.8649   17 C    1 1 1   18 C    0 0-1   19 C    0 1 0
                                    20 C    1 0 0


 SYMMETRY ALLOWED ELASTIC DISTORTION 1
  0.5773503  0.0000000  0.0000000
  0.0000000  0.5773503  0.0000000
  0.0000000  0.0000000  0.5773503

 SYMMETRY ALLOWED ELASTIC DISTORTION 2
  0.4082483  0.0000000  0.0000000
  0.0000000  0.4082483  0.0000000
  0.0000000  0.0000000 -0.8164966

 SYMMETRY ALLOWED INTERNAL DEGREE(S) OF FREEDOM:  45
 TTTTTTTTTTTTTTTTTTTTTTTTTTTTTT SYMM        TELAPSE        3.63 TCPU        2.48
 TTTTTTTTTTTTTTTTTTTTTTTTTTTTTT INT_SCREEN  TELAPSE        3.63 TCPU        2.49

 *******************************************************************************
 *                             OPTIMIZATION STARTS                             *
 *******************************************************************************
 RECLASIFICATION OF INDICES FOR INTEGRAL CALC ACCORDING TO DIFFERENT CRITERIA:
           FIXDELTE                  FIXDELTX              FIXDELTN
          0.10000000               0.80000000                 47
 DEFAULT MAX NUM OF POINTS  100
 *******************************************************************************

 *******************************************************************************
 COORDINATE AND CELL OPTIMIZATION - POINT    1
 INFORMATION **** EXCBUF **** EXCH. BIPO BUFFER: WORDS USED =           0

 DFT PARAMETERS

     ATOM       ELECTRONS   NET CHARGE   R(ANGSTROM)
   1  35  BR     35.0000      0.0000     1.14000000
   9   1  H       1.0000      0.0000     1.11000000
  17   6  C       6.0000      0.0000     0.77000000
  41   7  N       7.0000      0.0000     0.74000000
  61  30  ZN     30.0000      0.0000     1.37000000

 SIZE OF GRID=     439847
 TTTTTTTTTTTTTTTTTTTTTTTTTTTTTT MAKE_GRID2  TELAPSE        9.58 TCPU        8.41
 BECKE WEIGHT FUNCTION
 RADSAFE =     2.00
 TOLERANCES - DENSITY:10**- 6; POTENTIAL:10**- 9; GRID WGT:10**-14

 RADIAL INTEGRATION  - INTERVALS (POINTS,UPPER LIMIT):            1( 75,  4.0*R)

 ANGULAR INTEGRATION - INTERVALS (ACCURACY LEVEL [N. POINTS] UPPER LIMIT):
  1(  4[  86]   0.2)  2(  8[ 194]   0.5)  3( 12[ 350]   0.9)  4( 16[ 974]   3.5)
  5( 12[ 350]9999.0)
 TTTTTTTTTTTTTTTTTTTTTTTTTTTTTT INT_CALC    TELAPSE        9.70 TCPU        8.53

 *******************************************************************************
 C:\Users\wilso\AppData\Local\Temp\tmp_p\newconn.mol                             
 CRYSTAL - SCF - TYPE OF CALCULATION :  RESTRICTED CLOSED SHELL
 *******************************************************************************

 CAPPA:IS1  3;IS2  3;IS3  3; K PTS MONK NET   6; SYMMOPS:K SPACE   8;G SPACE   4

 TTTTTTTTTTTTTTTTTTTTTTTTTTTTTT SDIK        TELAPSE        9.98 TCPU        8.81

 AAAAAAAAAAAAAAAAAAAAAAAAAAAAAAAAAAAAAAAAAAAAAAAAAAAAAAAAAAAAAAAAAAAAAAAAAAAAAAA
         ATOMIC WAVEFUNCTION(S)


 NUCLEAR CHARGE 35.0  SYMMETRY SPECIES            S    P    D
 N. ELECTRONS   35.0  NUMBER OF PRIMITIVE GTOS   14   10    7
                      NUMBER OF CONTRACTED GTOS   5    4    4
                      NUMBER OF CLOSED SHELLS     4    2    1
                      OPEN SHELL OCCUPATION       0    5    0

  ZNUC SCFIT  TOTAL HF ENERGY   KINETIC ENERGY   VIRIAL THEOREM ACCURACY
  35.0  13   -2.572060514E+03  2.572021521E+03 -2.000015161E+00  3.6E-06

 NUCLEAR CHARGE  1.0  SYMMETRY SPECIES            S
 N. ELECTRONS    1.0  NUMBER OF PRIMITIVE GTOS    4
                      NUMBER OF CONTRACTED GTOS   2
                      NUMBER OF CLOSED SHELLS     0
                      OPEN SHELL OCCUPATION       1

  ZNUC SCFIT  TOTAL HF ENERGY   KINETIC ENERGY   VIRIAL THEOREM ACCURACY
   1.0   1   -4.946643675E-01  4.917913167E-01 -2.005842012E+00  9.4E-17

 NUCLEAR CHARGE  6.0  SYMMETRY SPECIES            S    P
 N. ELECTRONS    6.0  NUMBER OF PRIMITIVE GTOS    7    4
                      NUMBER OF CONTRACTED GTOS   3    2
                      NUMBER OF CLOSED SHELLS     2    0
                      OPEN SHELL OCCUPATION       0    2

  ZNUC SCFIT  TOTAL HF ENERGY   KINETIC ENERGY   VIRIAL THEOREM ACCURACY
   6.0   6   -3.750912652E+01  3.905246519E+01 -1.960480378E+00  3.7E-06

 NUCLEAR CHARGE  7.0  SYMMETRY SPECIES            S    P
 N. ELECTRONS    7.0  NUMBER OF PRIMITIVE GTOS    7    4
                      NUMBER OF CONTRACTED GTOS   3    2
                      NUMBER OF CLOSED SHELLS     2    0
                      OPEN SHELL OCCUPATION       0    3

  ZNUC SCFIT  TOTAL HF ENERGY   KINETIC ENERGY   VIRIAL THEOREM ACCURACY
   7.0   9   -5.432196661E+01  5.425066284E+01 -2.001314339E+00  1.2E-06

 NUCLEAR CHARGE 30.0  SYMMETRY SPECIES            S    P    D
 N. ELECTRONS   30.0  NUMBER OF PRIMITIVE GTOS   14    9    5
                      NUMBER OF CONTRACTED GTOS   5    3    2
                      NUMBER OF CLOSED SHELLS     4    2    1
                      OPEN SHELL OCCUPATION       0    0    0

  ZNUC SCFIT  TOTAL HF ENERGY   KINETIC ENERGY   VIRIAL THEOREM ACCURACY
  30.0  10   -1.777404290E+03  1.777325716E+03 -2.000044209E+00  2.5E-06

 AAAAAAAAAAAAAAAAAAAAAAAAAAAAAAAAAAAAAAAAAAAAAAAAAAAAAAAAAAAAAAAAAAAAAAAAAAAAAAA

 CHARGE NORMALIZATION FACTOR   1.00000000
 TOTAL ATOMIC CHARGES:
  35.0000000  35.0000000  35.0000000  35.0000000  35.0000000  35.0000000
  35.0000000  35.0000000   1.0000000   1.0000000   1.0000000   1.0000000
   1.0000000   1.0000000   1.0000000   1.0000000   6.0000000   6.0000000
   6.0000000   6.0000000   6.0000000   6.0000000   6.0000000   6.0000000
   6.0000000   6.0000000   6.0000000   6.0000000   6.0000000   6.0000000
   6.0000000   6.0000000   6.0000000   6.0000000   6.0000000   6.0000000
   6.0000000   6.0000000   6.0000000   6.0000000   7.0000000   7.0000000
   7.0000000   7.0000000   7.0000000   7.0000000   7.0000000   7.0000000
   7.0000000   7.0000000   7.0000000   7.0000000   7.0000000   7.0000000
   7.0000000   7.0000000   7.0000000   7.0000000   7.0000000   7.0000000
  30.0000000  30.0000000
 TTTTTTTTTTTTTTTTTTTTTTTTTTTTTT MOQGAD      TELAPSE       12.88 TCPU       11.66
 TTTTTTTTTTTTTTTTTTTTTTTTTTTTTT SHELLXN     TELAPSE      143.28 TCPU      131.43
 TTTTTTTTTTTTTTTTTTTTTTTTTTTTTT MONMO3      TELAPSE      148.80 TCPU      136.92
 NUMERICALLY INTEGRATED DENSITY    631.9999806426
 TTTTTTTTTTTTTTTTTTTTTTTTTTTTTT NUMDFT      TELAPSE      151.70 TCPU      139.81
 CYC   0 ETOT(AU) -2.617407872558E+04 DETOT -2.62E+04 tst  0.00E+00 PX  1.00E+00
 TTTTTTTTTTTTTTTTTTTTTTTTTTTTTT DIIS        TELAPSE      151.81 TCPU      139.92
 TTTTTTTTTTTTTTTTTTTTTTTTTTTTTT FDIK        TELAPSE      214.83 TCPU      196.32
 INSULATING STATE
 TOP OF VALENCE BANDS -    BAND    316; K    1; EIG -1.3111664E-01 AU
 BOTTOM OF VIRTUAL BANDS - BAND    317; K    6; EIG -1.0158683E-01 AU
 INDIRECT ENERGY BAND GAP:   0.8035 eV
 BOTTOM OF VIRTUAL BANDS - BAND    317; K    1; EIG -1.0046554E-01 AU
 TTTTTTTTTTTTTTTTTTTTTTTTTTTTTT PDIG        TELAPSE      215.96 TCPU      197.45
 CHARGE NORMALIZATION FACTOR   1.00000000
 TOTAL ATOMIC CHARGES:
  34.2122528  34.2122528  34.2122528  34.2122528  34.1686099  34.1686099
  34.1686099  34.1686099   1.1522415   1.1522415   1.1522415   1.1522415
   1.2718757   1.2718757   1.2718757   1.2718757   6.0486341   6.0486341
   6.0486341   6.0486341   5.5483565   5.5483565   5.5483565   5.5483565
   6.8487970   6.8487970   6.8487970   6.8487970   5.7095499   5.7095499
   5.7095499   5.7095499   6.6718992   6.6718992   6.6718992   6.6718992
   5.9901029   5.9901029   5.9901029   5.9901029   7.3809877   7.3809877
   7.3809877   7.3809877   7.2040581   7.2040581   7.2040581   7.2040581
   7.4016623   7.4016623   7.4016623   7.4016623   7.1427909   7.1427909
   7.1427909   7.1427909   7.5587326   7.5587326   7.5587326   7.5587326
  27.2868388  27.4709563
 TTTTTTTTTTTTTTTTTTTTTTTTTTTTTT MOQGAD      TELAPSE      216.03 TCPU      197.51
 TTTTTTTTTTTTTTTTTTTTTTTTTTTTTT SHELLXN     TELAPSE      358.79 TCPU      337.63
 TTTTTTTTTTTTTTTTTTTTTTTTTTTTTT MONMO3      TELAPSE      365.62 TCPU      344.43
 NUMERICALLY INTEGRATED DENSITY    631.9999502704
 TTTTTTTTTTTTTTTTTTTTTTTTTTTTTT NUMDFT      TELAPSE      374.09 TCPU      352.87
 CYC   1 ETOT(AU) -2.614349876289E+04 DETOT  3.06E+01 tst  0.00E+00 PX  1.00E+00
 TTTTTTTTTTTTTTTTTTTTTTTTTTTTTT DIIS        TELAPSE      374.33 TCPU      353.12
 DIIS TEST: 0.28318E+02 AT SCF   CYCLE   1 - MIX   30 %
 TTTTTTTTTTTTTTTTTTTTTTTTTTTTTT FDIK        TELAPSE      392.76 TCPU      371.37
 POSSIBLY CONDUCTING STATE - EFERMI(AU) -1.0054298E-01 (RES. CHARGE  6.48E-12;IT. 14)
 TTTTTTTTTTTTTTTTTTTTTTTTTTTTTT PDIG        TELAPSE      393.89 TCPU      372.50
 CHARGE NORMALIZATION FACTOR   1.00000000
 TOTAL ATOMIC CHARGES:
  35.0176041  35.0176041  35.0176041  35.0176041  35.0529730  35.0529730
  35.0529730  35.0529730   1.2167299   1.2167299   1.2167299   1.2167299
   1.1529357   1.1529357   1.1529357   1.1529357   6.0829511   6.0829511
   6.0829511   6.0829511   6.6363886   6.6363886   6.6363886   6.6363886
   6.1339890   6.1339890   6.1339890   6.1339890   5.8568503   5.8568503
   5.8568503   5.8568503   6.0395685   6.0395685   6.0395685   6.0395685
   5.5589460   5.5589460   5.5589460   5.5589460   7.6770186   7.6770186
   7.6770186   7.6770186   6.9744008   6.9744008   6.9744008   6.9744008
   7.4986061   7.4986061   7.4986061   7.4986061   6.9017832   6.9017832
   6.9017832   6.9017832   4.1621428   4.1621428   4.1621428   4.1621428
  32.5853417  31.5631076
 TTTTTTTTTTTTTTTTTTTTTTTTTTTTTT MOQGAD      TELAPSE      393.95 TCPU      372.56
 TTTTTTTTTTTTTTTTTTTTTTTTTTTTTT SHELLXN     TELAPSE      536.66 TCPU      512.58
 TTTTTTTTTTTTTTTTTTTTTTTTTTTTTT MONMO3      TELAPSE      543.36 TCPU      519.25
 NUMERICALLY INTEGRATED DENSITY    631.9999524183
 TTTTTTTTTTTTTTTTTTTTTTTTTTTTTT NUMDFT      TELAPSE      551.80 TCPU      527.66
 CYC   2 ETOT(AU) -2.612165308947E+04 DETOT  2.18E+01 tst  3.18E-01 PX  4.42E+00
 TTTTTTTTTTTTTTTTTTTTTTTTTTTTTT DIIS        TELAPSE      552.04 TCPU      527.89
 DIIS TEST: 0.16573E+03 AT SCF   CYCLE   2 - DIIS ACTIVE - HISTORY:     2 CYCLES
 TTTTTTTTTTTTTTTTTTTTTTTTTTTTTT FDIK        TELAPSE      573.32 TCPU      546.96
 INSULATING STATE
 TOP OF VALENCE BANDS -    BAND    316; K    1; EIG -1.1615010E-01 AU
 BOTTOM OF VIRTUAL BANDS - BAND    317; K    6; EIG -9.6282457E-02 AU
 INDIRECT ENERGY BAND GAP:   0.5406 eV
 BOTTOM OF VIRTUAL BANDS - BAND    317; K    1; EIG -8.8108123E-02 AU
 TTTTTTTTTTTTTTTTTTTTTTTTTTTTTT PDIG        TELAPSE      574.46 TCPU      548.10
 CHARGE NORMALIZATION FACTOR   1.00000000
 TOTAL ATOMIC CHARGES:
  34.7908928  34.7908928  34.7908928  34.7908928  34.7816879  34.7816879
  34.7816879  34.7816879   1.1017237   1.1017237   1.1017237   1.1017237
   1.2394039   1.2394039   1.2394039   1.2394039   5.8491193   5.8491193
   5.8491193   5.8491193   6.1947107   6.1947107   6.1947107   6.1947107
   6.0188385   6.0188385   6.0188385   6.0188385   6.4411364   6.4411364
   6.4411364   6.4411364   5.9964989   5.9964989   5.9964989   5.9964989
   5.7770964   5.7770964   5.7770964   5.7770964   6.3850182   6.3850182
   6.3850182   6.3850182   7.1300100   7.1300100   7.1300100   7.1300100
   6.4562238   6.4562238   6.4562238   6.4562238   6.9884636   6.9884636
   6.9884636   6.9884636   7.7664160   7.7664160   7.7664160   7.7664160
  30.2300011  30.1010382
 TTTTTTTTTTTTTTTTTTTTTTTTTTTTTT MOQGAD      TELAPSE      574.53 TCPU      548.17
 TTTTTTTTTTTTTTTTTTTTTTTTTTTTTT SHELLXN     TELAPSE      716.65 TCPU      687.70
 TTTTTTTTTTTTTTTTTTTTTTTTTTTTTT MONMO3      TELAPSE      723.89 TCPU      694.93
 NUMERICALLY INTEGRATED DENSITY    631.9999762606
 TTTTTTTTTTTTTTTTTTTTTTTTTTTTTT NUMDFT      TELAPSE      732.26 TCPU      703.26
 CYC   3 ETOT(AU) -2.614299154441E+04 DETOT -2.13E+01 tst  6.50E-01 PX  3.45E+00
 TTTTTTTTTTTTTTTTTTTTTTTTTTTTTT DIIS        TELAPSE      732.55 TCPU      703.55
 DIIS TEST: 0.24109E+02 AT SCF   CYCLE   3 - DIIS ACTIVE - HISTORY:     3 CYCLES
 TTTTTTTTTTTTTTTTTTTTTTTTTTTTTT FDIK        TELAPSE      746.05 TCPU      716.91
 INSULATING STATE
 TOP OF VALENCE BANDS -    BAND    316; K    2; EIG -1.5494536E-01 AU
 TOP OF VALENCE BANDS -    BAND    316; K    1; EIG -1.5657763E-01 AU
 BOTTOM OF VIRTUAL BANDS - BAND    317; K    1; EIG -9.8831920E-02 AU
 INDIRECT ENERGY BAND GAP:   1.5269 eV
 TTTTTTTTTTTTTTTTTTTTTTTTTTTTTT PDIG        TELAPSE      747.19 TCPU      718.04
 CHARGE NORMALIZATION FACTOR   1.00000000
 TOTAL ATOMIC CHARGES:
  34.7482599  34.7482599  34.7482599  34.7482599  34.5409257  34.5409257
  34.5409257  34.5409257   1.1016067   1.1016067   1.1016067   1.1016067
   1.3045723   1.3045723   1.3045723   1.3045723   6.2628694   6.2628694
   6.2628694   6.2628694   5.7136995   5.7136995   5.7136995   5.7136995
   6.3678123   6.3678123   6.3678123   6.3678123   5.6491049   5.6491049
   5.6491049   5.6491049   6.1625730   6.1625730   6.1625730   6.1625730
   6.1351608   6.1351608   6.1351608   6.1351608   7.4391755   7.4391755
   7.4391755   7.4391755   7.0028693   7.0028693   7.0028693   7.0028693
   7.4402111   7.4402111   7.4402111   7.4402111   7.0234925   7.0234925
   7.0234925   7.0234925   6.8428808   6.8428808   6.8428808   6.8428808
  28.4750392  28.5841069
 TTTTTTTTTTTTTTTTTTTTTTTTTTTTTT MOQGAD      TELAPSE      747.26 TCPU      718.11
 TTTTTTTTTTTTTTTTTTTTTTTTTTTTTT SHELLXN     TELAPSE      891.88 TCPU      857.86
 TTTTTTTTTTTTTTTTTTTTTTTTTTTTTT MONMO3      TELAPSE      896.44 TCPU      862.40
 NUMERICALLY INTEGRATED DENSITY    631.9999388553
 TTTTTTTTTTTTTTTTTTTTTTTTTTTTTT NUMDFT      TELAPSE      904.85 TCPU      870.76
 CYC   4 ETOT(AU) -2.614655833606E+04 DETOT -3.57E+00 tst  2.97E-02 PX  9.43E-01
 TTTTTTTTTTTTTTTTTTTTTTTTTTTTTT DIIS        TELAPSE      905.09 TCPU      871.00
 DIIS TEST: 0.53924E+01 AT SCF   CYCLE   4 - DIIS ACTIVE - HISTORY:     4 CYCLES
 TTTTTTTTTTTTTTTTTTTTTTTTTTTTTT FDIK        TELAPSE      927.06 TCPU      888.19
 INSULATING STATE
 TOP OF VALENCE BANDS -    BAND    316; K    5; EIG -1.5348530E-01 AU
 TOP OF VALENCE BANDS -    BAND    316; K    1; EIG -1.5822812E-01 AU
 BOTTOM OF VIRTUAL BANDS - BAND    317; K    1; EIG -1.0997940E-01 AU
 INDIRECT ENERGY BAND GAP:   1.1839 eV
 TTTTTTTTTTTTTTTTTTTTTTTTTTTTTT PDIG        TELAPSE      928.20 TCPU      889.32
 CHARGE NORMALIZATION FACTOR   1.00000000
 TOTAL ATOMIC CHARGES:
  34.4300458  34.4300458  34.4300458  34.4300458  34.5912694  34.5912694
  34.5912694  34.5912694   1.1193083   1.1193083   1.1193083   1.1193083
   1.2284675   1.2284675   1.2284675   1.2284675   5.9461614   5.9461614
   5.9461614   5.9461614   5.7841624   5.7841624   5.7841624   5.7841624
   6.5122325   6.5122325   6.5122325   6.5122325   6.0032112   6.0032112
   6.0032112   6.0032112   6.4286642   6.4286642   6.4286642   6.4286642
   5.6312241   5.6312241   5.6312241   5.6312241   7.4243843   7.4243843
   7.4243843   7.4243843   7.2769200   7.2769200   7.2769200   7.2769200
   7.1400147   7.1400147   7.1400147   7.1400147   6.9713326   6.9713326
   6.9713326   6.9713326   7.0808895   7.0808895   7.0808895   7.0808895
  28.9545488  28.7722998
 TTTTTTTTTTTTTTTTTTTTTTTTTTTTTT MOQGAD      TELAPSE      928.27 TCPU      889.39
 TTTTTTTTTTTTTTTTTTTTTTTTTTTTTT SHELLXN     TELAPSE     1068.06 TCPU     1028.43
 TTTTTTTTTTTTTTTTTTTTTTTTTTTTTT MONMO3      TELAPSE     1077.91 TCPU     1038.25
 NUMERICALLY INTEGRATED DENSITY    631.9999367694
 TTTTTTTTTTTTTTTTTTTTTTTTTTTTTT NUMDFT      TELAPSE     1086.32 TCPU     1046.61
 CYC   5 ETOT(AU) -2.614697795983E+04 DETOT -4.20E-01 tst  1.55E-03 PX  1.77E-01
 TTTTTTTTTTTTTTTTTTTTTTTTTTTTTT DIIS        TELAPSE     1086.56 TCPU     1046.84
 DIIS TEST: 0.29408E+01 AT SCF   CYCLE   5 - DIIS ACTIVE - HISTORY:     5 CYCLES
 TTTTTTTTTTTTTTTTTTTTTTTTTTTTTT FDIK        TELAPSE     1102.91 TCPU     1060.54
 INSULATING STATE
 TOP OF VALENCE BANDS -    BAND    316; K    1; EIG -1.5604321E-01 AU
 BOTTOM OF VIRTUAL BANDS - BAND    317; K    6; EIG -9.6894483E-02 AU
 INDIRECT ENERGY BAND GAP:   1.6095 eV
 BOTTOM OF VIRTUAL BANDS - BAND    317; K    1; EIG -9.2322823E-02 AU
 TTTTTTTTTTTTTTTTTTTTTTTTTTTTTT PDIG        TELAPSE     1104.04 TCPU     1061.66
 CHARGE NORMALIZATION FACTOR   1.00000000
 TOTAL ATOMIC CHARGES:
  34.6021619  34.6021619  34.6021619  34.6021619  34.4637332  34.4637332
  34.4637332  34.4637332   1.1180282   1.1180282   1.1180282   1.1180282
   1.2311782   1.2311782   1.2311782   1.2311782   6.0306596   6.0306596
   6.0306596   6.0306596   5.8937535   5.8937535   5.8937535   5.8937535
   6.5418815   6.5418815   6.5418815   6.5418815   5.9212879   5.9212879
   5.9212879   5.9212879   6.3028670   6.3028670   6.3028670   6.3028670
   5.9414675   5.9414675   5.9414675   5.9414675   7.0536099   7.0536099
   7.0536099   7.0536099   7.0241145   7.0241145   7.0241145   7.0241145
   7.2434495   7.2434495   7.2434495   7.2434495   7.1615791   7.1615791
   7.1615791   7.1615791   7.0119637   7.0119637   7.0119637   7.0119637
  28.9024535  28.9306070
 TTTTTTTTTTTTTTTTTTTTTTTTTTTTTT MOQGAD      TELAPSE     1104.10 TCPU     1061.73
 TTTTTTTTTTTTTTTTTTTTTTTTTTTTTT SHELLXN     TELAPSE     1251.24 TCPU     1200.89
 TTTTTTTTTTTTTTTTTTTTTTTTTTTTTT MONMO3      TELAPSE     1259.61 TCPU     1209.22
 NUMERICALLY INTEGRATED DENSITY    631.9999442704
 TTTTTTTTTTTTTTTTTTTTTTTTTTTTTT NUMDFT      TELAPSE     1268.02 TCPU     1217.60
 CYC   6 ETOT(AU) -2.614729155622E+04 DETOT -3.14E-01 tst  1.56E-03 PX  1.02E-01
 TTTTTTTTTTTTTTTTTTTTTTTTTTTTTT DIIS        TELAPSE     1268.30 TCPU     1217.88
 DIIS TEST: 0.84861E+00 AT SCF   CYCLE   6 - DIIS ACTIVE - HISTORY:     6 CYCLES
 TTTTTTTTTTTTTTTTTTTTTTTTTTTTTT FDIK        TELAPSE     1285.95 TCPU     1235.35
 INSULATING STATE
 TOP OF VALENCE BANDS -    BAND    316; K    1; EIG -1.6053133E-01 AU
 BOTTOM OF VIRTUAL BANDS - BAND    317; K    4; EIG -9.3637713E-02 AU
 INDIRECT ENERGY BAND GAP:   1.8203 eV
 BOTTOM OF VIRTUAL BANDS - BAND    317; K    1; EIG -9.1362896E-02 AU
 TTTTTTTTTTTTTTTTTTTTTTTTTTTTTT PDIG        TELAPSE     1287.09 TCPU     1236.49
 CHARGE NORMALIZATION FACTOR   1.00000000
 TOTAL ATOMIC CHARGES:
  34.5950617  34.5950617  34.5950617  34.5950617  34.5823200  34.5823200
[...]
  61 ZN   4     2.9209     5.5196   45 N   -1-1 0   46 N    0-1 1   47 N    0-1 0
                                    48 N    0 0 1
  61 ZN   4     3.0746     5.8102    5 BR   0-1 1    6 BR  -1-1 0    7 BR   0 0 1
                                     8 BR   0-1 0
  61 ZN   4     3.3999     6.4249   21 C    0-1 1   22 C   -1-1 0   23 C    0 0 1
                                    24 C    0-1 0
  61 ZN   4     3.7628     7.1107   33 C    0-1 1   34 C   -1-1 0   35 C    0 0 1
                                    36 C    0-1 0
  61 ZN   4     3.9491     7.4627   17 C    0-1 1   18 C   -1-1 0   19 C    0 0 1
                                    20 C    0-1 0

  62 ZN   4     2.1194     4.0051   49 N    1 1 0   50 N    1 1 0   51 N    0 0 0
                                    52 N    0 0 0
  62 ZN   4     2.7981     5.2877   53 N    0 1 0   54 N    1 0 0   55 N    0 0-1
                                    56 N    1 1 1
  62 ZN   4     3.3758     6.3793   21 C    1 1 1   22 C    0 0-1   23 C    0 1 0
                                    24 C    1 0 0
  62 ZN   4     3.5039     6.6214    1 BR   1 1 0    2 BR   1 1 0    3 BR   0 0 0
                                     4 BR   0 0 0
  62 ZN   4     4.0400     7.6345   45 N    0 1 0   46 N    1 0 0   47 N    0 0-1
                                    48 N    1 1 1
  62 ZN   4     4.1445     7.8320   17 C    1 1 1   18 C    0 0-1   19 C    0 1 0
                                    20 C    1 0 0


 FINAL OPTIMIZED GEOMETRY - DIMENSIONALITY OF THE SYSTEM      3
 (NON PERIODIC DIRECTION: LATTICE PARAMETER FORMALLY SET TO 500)
 *******************************************************************************
 LATTICE PARAMETERS (ANGSTROMS AND DEGREES) - BOHR = 0.5291772083 ANGSTROM
 PRIMITIVE CELL - CENTRING CODE 6/0 VOLUME=   838.608241 - DENSITY  2.644 g/cm^3
         A              B              C           ALPHA      BETA       GAMMA 
    10.43971501    10.43971501    10.43971501   116.848699 116.848699  95.550781
 *******************************************************************************
 ATOMS IN THE ASYMMETRIC UNIT   17 - ATOMS IN THE UNIT CELL:   62
     ATOM                 X/A                 Y/B                 Z/C    
 *******************************************************************************
      1 T  35 BR   -9.602447339775E-02 -3.531173875050E-01  2.841803009100E-01
      2 F  35 BR    3.627023115850E-01 -3.802047743077E-01 -2.841803009100E-01
      3 F  35 BR    3.531173875050E-01 -3.627023115850E-01  2.570929141073E-01
      4 F  35 BR    3.802047743077E-01  9.602447339775E-02 -2.570929141073E-01
      5 T  35 BR   -2.766033887141E-01  8.121622436382E-02 -3.309565773275E-01
      6 F  35 BR    4.121728016914E-01  5.435318861341E-02  3.309565773275E-01
      7 F  35 BR   -8.121622436382E-02 -4.121728016914E-01 -3.578196130780E-01
      8 F  35 BR   -5.435318861341E-02  2.766033887141E-01  3.578196130780E-01
      9 T   1 H     1.591128939130E-01 -2.015174727113E-01 -3.496988284532E-01
     10 F   1 H     1.481813557420E-01 -4.911882776338E-01  3.496988284532E-01
     11 F   1 H     2.015174727113E-01 -1.481813557420E-01  3.606303666242E-01
     12 F   1 H     4.911882776338E-01 -1.591128939130E-01 -3.606303666243E-01
     13 T   1 H     2.002181661568E-01  1.098540641459E-02 -6.902670039474E-02
     14 F   1 H     8.001210680933E-02  2.692448665515E-01  6.902670039474E-02
     15 F   1 H    -1.098540641459E-02 -8.001210680933E-02  1.892327597422E-01
     16 F   1 H    -2.692448665515E-01 -2.002181661568E-01 -1.892327597422E-01
     17 T   6 C    -1.611123689243E-01 -1.128657808947E-01  4.884759164477E-01
     18 F   6 C     3.986583026576E-01  3.504117146280E-01 -4.884759164477E-01
     19 F   6 C     1.128657808947E-01 -3.986583026576E-01 -4.824658802966E-02
     20 F   6 C    -3.504117146280E-01  1.611123689243E-01  4.824658802966E-02
     21 T   6 C    -2.830829849689E-01 -1.256701531019E-01  3.333491188833E-01
     22 F   6 C    -4.590192719852E-01  3.835678961478E-01 -3.333491188833E-01
     23 F   6 C     1.256701531019E-01  4.590192719852E-01 -1.574128318670E-01
     24 F   6 C    -3.835678961478E-01  2.830829849689E-01  1.574128318670E-01
     25 T   6 C    -5.432742331436E-02 -1.868321418382E-01  4.930714269170E-01
     26 F   6 C     3.200964312448E-01  4.526011497687E-01 -4.930714269170E-01
     27 F   6 C     1.868321418382E-01 -3.200964312448E-01  1.325047185238E-01
     28 F   6 C    -4.526011497687E-01  5.432742331436E-02 -1.325047185238E-01
     29 T   6 C     9.960364371978E-02 -2.943894781302E-02 -1.965712460071E-01
     30 F   6 C     1.671322981941E-01  2.961748897269E-01  1.965712460071E-01
     31 F   6 C     2.943894781302E-02 -1.671322981941E-01  1.290425915328E-01
     32 F   6 C    -2.961748897269E-01 -9.960364371978E-02 -1.290425915328E-01
     33 T   6 C    -1.301758323255E-01 -8.320892675890E-03 -3.463343332675E-01
     34 F   6 C     3.380134405916E-01  2.161585009420E-01  3.463343332675E-01
     35 F   6 C     8.320892675890E-03 -3.380134405916E-01 -1.218549396496E-01
     36 F   6 C    -2.161585009420E-01  1.301758323255E-01  1.218549396496E-01
     37 T   6 C     2.069688791309E-01  4.281518992400E-01  3.504642170535E-01
     38 F   6 C     7.768768218643E-02 -1.434953379226E-01 -3.504642170535E-01
     39 F   6 C    -4.281518992400E-01 -7.768768218643E-02 -2.211830201091E-01
     40 F   6 C     1.434953379226E-01 -2.069688791309E-01  2.211830201091E-01
     41 T   7 N    -2.976664164229E-01  3.020798438612E-03  3.323977503081E-01
     42 F   7 N    -3.293769518695E-01  3.699358332689E-01 -3.323977503081E-01
     43 F   7 N    -3.020798438612E-03  3.293769518695E-01 -3.006872148616E-01
     44 F   7 N    -3.699358332689E-01  2.976664164229E-01  3.006872148616E-01
     45 T   7 N    -4.159103851300E-01 -4.954699360727E-02  1.680029508256E-01
     46 F   7 N    -2.175499444329E-01  4.160866640444E-01 -1.680029508256E-01
     47 F   7 N     4.954699360727E-02  2.175499444329E-01 -3.663633915227E-01
     48 F   7 N    -4.160866640444E-01  4.159103851300E-01  3.663633915227E-01
     49 T   7 N    -3.922916295432E-01 -2.552978070939E-01  1.720258350145E-01
     50 F   7 N    -4.273236421083E-01  4.356825354423E-01 -1.720258350145E-01
     51 F   7 N     2.552978070939E-01  4.273236421083E-01 -1.369938224494E-01
     52 F   7 N    -4.356825354423E-01  3.922916295432E-01  1.369938224494E-01
     53 T   7 N    -4.735298387903E-01 -2.018490745761E-01  7.405232735223E-02
     54 F   7 N    -2.759014019284E-01  4.524178338575E-01 -7.405232735223E-02
     55 F   7 N     2.018490745761E-01  2.759014019284E-01 -2.716807642141E-01
     56 F   7 N    -4.524178338575E-01  4.735298387903E-01  2.716807642141E-01
     57 T   7 N    -7.417273801807E-03  3.306219050332E-02 -1.965359533401E-01
     58 F   7 N     2.295981438434E-01  1.891186795383E-01  1.965359533401E-01
     59 F   7 N    -3.306219050332E-02 -2.295981438434E-01 -4.047946430513E-02
     60 F   7 N    -1.891186795383E-01  7.417273801807E-03  4.047946430513E-02
     61 T  30 ZN   -2.500000000000E-01  2.500000000000E-01 -5.000000000000E-01
     62 T  30 ZN   -5.000000000000E-01 -5.000000000000E-01  1.834374950860E-18

 TRANSFORMATION MATRIX PRIMITIVE-CRYSTALLOGRAPHIC CELL
  0.0000  1.0000  1.0000  1.0000  0.0000  1.0000  1.0000  1.0000  0.0000

 *******************************************************************************
 CRYSTALLOGRAPHIC CELL (VOLUME=       1677.21648228)
         A              B              C           ALPHA      BETA       GAMMA 
    10.93296843    10.93296843    14.03178538    90.000000  90.000000  90.000000

 COORDINATES IN THE CRYSTALLOGRAPHIC CELL
     ATOM                 X/A                 Y/B                 Z/C    
 *******************************************************************************
      1 T  35 BR    1.354369340136E-02  2.706366075086E-01 -3.666610809064E-01
      2 F  35 BR   -1.354369340136E-02 -2.706366075086E-01 -3.666610809064E-01
      3 F  35 BR    2.706366075086E-01 -1.354369340136E-02  3.666610809064E-01
      4 F  35 BR   -2.706366075086E-01  1.354369340136E-02  3.666610809064E-01
      5 T  35 BR    1.343151787520E-02 -3.443880952027E-01  6.778470648861E-02
      6 F  35 BR   -1.343151787520E-02  3.443880952027E-01  6.778470648861E-02
      7 F  35 BR   -3.443880952027E-01 -1.343151787520E-02 -6.778470648861E-02
      8 F  35 BR    3.443880952027E-01  1.343151787520E-02 -6.778470648861E-02
      9 T   1 H    -3.551645975387E-01  5.465769085502E-03  1.536471248275E-01
     10 F   1 H     3.551645975387E-01 -5.465769085502E-03  1.536471248275E-01
     11 F   1 H     5.465769085502E-03  3.551645975387E-01 -1.536471248275E-01
     12 F   1 H    -5.465769085502E-03 -3.551645975387E-01 -1.536471248275E-01
     13 T   1 H    -1.291297300685E-01  6.010302967372E-02  1.401151364830E-01
     14 F   1 H     1.291297300685E-01 -6.010302967372E-02  1.401151364830E-01
     15 F   1 H     6.010302967372E-02  1.291297300685E-01 -1.401151364830E-01
     16 F   1 H    -6.010302967372E-02 -1.291297300685E-01 -1.401151364830E-01
     17 T   6 C    -2.316387477613E-01 -2.798853357910E-01  1.187729668667E-01
     18 F   6 C     2.316387477613E-01  2.798853357910E-01  1.187729668667E-01
     19 F   6 C    -2.798853357910E-01  2.316387477613E-01 -1.187729668667E-01
     20 F   6 C     2.798853357910E-01 -2.316387477613E-01 -1.187729668667E-01
     21 T   6 C    -2.546190246248E-01 -4.120318564918E-01  1.289488715229E-01
     22 F   6 C     2.546190246248E-01  4.120318564918E-01  1.289488715229E-01
     23 F   6 C    -4.120318564918E-01  2.546190246248E-01 -1.289488715229E-01
     24 F   6 C     4.120318564918E-01 -2.546190246248E-01 -1.289488715229E-01
     25 T   6 C    -3.197166458034E-01 -1.872119272796E-01  1.328845039652E-01
     26 F   6 C     3.197166458034E-01  1.872119272796E-01  1.328845039652E-01
     27 F   6 C    -1.872119272796E-01  3.197166458034E-01 -1.328845039652E-01
     28 F   6 C     1.872119272796E-01 -3.197166458034E-01 -1.328845039652E-01
     29 T   6 C    -1.628069187700E-01 -3.376432723716E-02  1.333679709569E-01
     30 F   6 C     1.628069187700E-01  3.376432723716E-02  1.333679709569E-01
     31 F   6 C    -3.376432723716E-02  1.628069187700E-01 -1.333679709569E-01
     32 F   6 C     3.376432723716E-02 -1.628069187700E-01 -1.333679709569E-01
     33 T   6 C    -1.122396968089E-01 -2.340946364586E-01  1.039188041331E-01
     34 F   6 C     1.122396968089E-01  2.340946364586E-01  1.039188041331E-01
     35 F   6 C    -2.340946364586E-01  1.122396968089E-01 -1.039188041331E-01
     36 F   6 C     2.340946364586E-01 -1.122396968089E-01 -1.039188041331E-01
     37 T   6 C     2.858236185813E-01  6.464059847224E-02  1.423282806587E-01
     38 F   6 C    -2.858236185813E-01 -6.464059847224E-02  1.423282806587E-01
     39 F   6 C     6.464059847224E-02 -2.858236185813E-01 -1.423282806587E-01
     40 F   6 C    -6.464059847224E-02  2.858236185813E-01 -1.423282806587E-01
     41 T   7 N    -1.834575174151E-01 -4.841447322767E-01  1.864783158538E-01
     42 F   7 N     1.834575174151E-01  4.841447322767E-01  1.864783158538E-01
     43 F   7 N    -4.841447322767E-01  1.834575174151E-01 -1.864783158538E-01
     44 F   7 N     4.841447322767E-01 -1.834575174151E-01 -1.864783158538E-01
     45 T   7 N    -2.328168288258E-01  4.008197796514E-01  1.832698352186E-01
     46 F   7 N     2.328168288258E-01 -4.008197796514E-01  1.832698352186E-01
     47 F   7 N     4.008197796514E-01  2.328168288258E-01 -1.832698352186E-01
     48 F   7 N    -4.008197796514E-01 -2.328168288258E-01 -1.832698352186E-01
     49 T   7 N     1.545098287319E-01  1.751600628255E-02 -4.098076358258E-01
     50 F   7 N    -1.545098287319E-01 -1.751600628255E-02 -4.098076358258E-01
     51 F   7 N     1.751600628255E-02 -1.545098287319E-01  4.098076358258E-01
     52 F   7 N    -1.751600628255E-02  1.545098287319E-01  4.098076358258E-01
     53 T   7 N    -3.271334542168E-01  4.011857815691E-01  1.252843796407E-01
     54 F   7 N     3.271334542168E-01 -4.011857815691E-01  1.252843796407E-01
     55 F   7 N     4.011857815691E-01  3.271334542168E-01 -1.252843796407E-01
     56 F   7 N    -4.011857815691E-01 -3.271334542168E-01 -1.252843796407E-01
     57 T   7 N    -7.802824451750E-02 -1.185077088226E-01  1.110904350208E-01
     58 F   7 N     7.802824451750E-02  1.185077088226E-01  1.110904350208E-01
     59 F   7 N    -1.185077088226E-01  7.802824451750E-02 -1.110904350208E-01
     60 F   7 N     1.185077088226E-01 -7.802824451750E-02 -1.110904350208E-01
     61 T  30 ZN    4.626932236752E-17  5.000000000000E-01  2.500000000000E-01
     62 T  30 ZN    0.000000000000E+00  1.834374950860E-18 -5.000000000000E-01

 T = ATOM BELONGING TO THE ASYMMETRIC UNIT
 INFORMATION **** fort.34 **** GEOMETRY OUTPUT FILE

 DIRECT LATTICE VECTORS CARTESIAN COMPONENTS (ANGSTROM)
          X                    Y                    Z
  -0.546648421649E+01   0.546648421649E+01   0.701589268838E+01
   0.546648421649E+01  -0.546648421649E+01   0.701589268838E+01
   0.546648421649E+01   0.546648421649E+01  -0.701589268838E+01


 CARTESIAN COORDINATES - PRIMITIVE CELL
 *******************************************************************************
 *      ATOM          X(ANGSTROM)         Y(ANGSTROM)         Z(ANGSTROM)
 *******************************************************************************
    1    35 BR    1.480727724229E-01  2.958861486699E+00 -5.144909593288E+00
    2    35 BR   -1.480727724229E-01 -2.958861486699E+00 -5.144909593288E+00
    3    35 BR    2.958861486699E+00 -1.480727724229E-01  5.144909593288E+00
    4    35 BR   -2.958861486699E+00  1.480727724229E-01  5.144909593288E+00
    5    35 BR    1.468463609365E-01 -3.765184173544E+00  9.511404532747E-01
    6    35 BR   -1.468463609365E-01  3.765184173544E+00  9.511404532747E-01
    7    35 BR   -3.765184173544E+00 -1.468463609365E-01 -9.511404532747E-01
    8    35 BR    3.765184173544E+00  1.468463609365E-01 -9.511404532747E-01
    9     1 H    -3.883003333401E+00  5.975708087372E-02  2.155943479335E+00
   10     1 H     3.883003333401E+00 -5.975708087372E-02  2.155943479335E+00
   11     1 H     5.975708087372E-02  3.883003333401E+00 -2.155943479335E+00
   12     1 H    -5.975708087372E-02 -3.883003333401E+00 -2.155943479335E+00
   13     1 H    -1.411771262597E+00  6.571045261489E-01  1.966065523165E+00
   14     1 H     1.411771262597E+00 -6.571045261489E-01  1.966065523165E+00
   15     1 H     6.571045261489E-01  1.411771262597E+00 -1.966065523165E+00
   16     1 H    -6.571045261489E-01 -1.411771262597E+00 -1.966065523165E+00
   17     6 C    -2.532499117128E+00 -3.059977541055E+00  1.666596779634E+00
   18     6 C     2.532499117128E+00  3.059977541055E+00  1.666596779634E+00
   19     6 C    -3.059977541055E+00  2.532499117128E+00 -1.666596779634E+00
   20     6 C     3.059977541055E+00 -2.532499117128E+00 -1.666596779634E+00
   21     6 C    -2.783741758658E+00 -4.504731280405E+00  1.809382889785E+00
   22     6 C     2.783741758658E+00  4.504731280405E+00  1.809382889785E+00
   23     6 C    -4.504731280405E+00  2.783741758658E+00 -1.809382889785E+00
   24     6 C     4.504731280405E+00 -2.783741758658E+00 -1.809382889785E+00
   25     6 C    -3.495451996066E+00 -2.046782091224E+00  1.864606839537E+00
   26     6 C     3.495451996066E+00  2.046782091224E+00  1.864606839537E+00
   27     6 C    -2.046782091224E+00  3.495451996066E+00 -1.864606839537E+00
   28     6 C     2.046782091224E+00 -3.495451996066E+00 -1.864606839537E+00
   29     6 C    -1.779962903582E+00 -3.691443238445E-01  1.871390744601E+00
   30     6 C     1.779962903582E+00  3.691443238445E-01  1.871390744601E+00
   31     6 C    -3.691443238445E-01  1.779962903582E+00 -1.871390744601E+00
   32     6 C     3.691443238445E-01 -1.779962903582E+00 -1.871390744601E+00
   33     6 C    -1.227113062139E+00 -2.559349270730E+00  1.458166356204E+00
   34     6 C     1.227113062139E+00  2.559349270730E+00  1.458166356204E+00
   35     6 C    -2.559349270730E+00  1.227113062139E+00 -1.458166356204E+00
   36     6 C     2.559349270730E+00 -1.227113062139E+00 -1.458166356204E+00
   37     6 C     3.124900599348E+00  7.067136225856E-01  1.997119887245E+00
   38     6 C    -3.124900599348E+00 -7.067136225856E-01  1.997119887245E+00
   39     6 C     7.067136225856E-01 -3.124900599348E+00 -1.997119887245E+00
   40     6 C    -7.067136225856E-01  3.124900599348E+00 -1.997119887245E+00
   41     7 N    -2.005735246692E+00  5.639829358002E+00  2.616623705479E+00
   42     7 N     2.005735246692E+00 -5.639829358002E+00  2.616623705479E+00
   43     7 N     5.639829358002E+00  2.005735246692E+00 -2.616623705479E+00
   44     7 N    -5.639829358002E+00 -2.005735246692E+00 -2.616623705479E+00
   45     7 N    -2.545379040218E+00  4.382149998241E+00  2.571602993820E+00
   46     7 N     2.545379040218E+00 -4.382149998241E+00  2.571602993820E+00
   47     7 N     4.382149998241E+00  2.545379040218E+00 -2.571602993820E+00
   48     7 N    -4.382149998241E+00 -2.545379040218E+00 -2.571602993820E+00
   49     7 N     1.689251080111E+00  1.915019437589E-01 -5.750332791664E+00
   50     7 N    -1.689251080111E+00 -1.915019437589E-01 -5.750332791664E+00
   51     7 N     1.915019437589E-01 -1.689251080111E+00  5.750332791664E+00
   52     7 N    -1.915019437589E-01  1.689251080111E+00  5.750332791664E+00
   53     7 N    -3.576539728322E+00  4.386151485653E+00  1.757963526178E+00
   54     7 N     3.576539728322E+00 -4.386151485653E+00  1.757963526178E+00
   55     7 N     4.386151485653E+00  3.576539728322E+00 -1.757963526178E+00
   56     7 N    -4.386151485653E+00 -3.576539728322E+00 -1.757963526178E+00
   57     7 N    -8.530803341902E-01 -1.295641039622E+00  1.558797141623E+00
   58     7 N     8.530803341902E-01  1.295641039622E+00  1.558797141623E+00
   59     7 N    -1.295641039622E+00  8.530803341902E-01 -1.558797141623E+00
   60     7 N     1.295641039622E+00 -8.530803341902E-01 -1.558797141623E+00
   61    30 ZN    5.058610408592E-16  5.466484216487E+00 -1.052383903257E+01
   62    30 ZN    0.000000000000E+00  2.005516343199E-17  7.015892688379E+00

 ****    4 SYMMOPS - TRANSLATORS IN FRACTIONAL UNITS
 **** MATRICES AND TRANSLATORS IN THE CRYSTALLOGRAPHIC REFERENCE FRAME
   V INV                    ROTATION MATRICES                   TRANSLATORS
   1   1  1.00  0.00  0.00  0.00  1.00  0.00  0.00  0.00  1.00  0.00  0.00  0.00
   2   2  0.00  1.00 -1.00  1.00  0.00 -1.00 -0.00  0.00 -1.00  0.00  0.00  0.00
   3   4 -0.00 -1.00  0.00  0.00 -1.00  1.00  1.00 -1.00  0.00  0.00  0.00  0.00
   4   3 -1.00 -0.00  1.00 -1.00  0.00  0.00 -1.00  1.00 -0.00  0.00  0.00  0.00
 TTTTTTTTTTTTTTTTTTTTTTTTTTTTTT END         TELAPSE   135197.55 TCPU   132139.83
 EEEEEEEEEE TERMINATION  DATE 22 11 2023 TIME 19:51:49.3
NODE    0 CPU TIME =    132139.827
NODE    1 CPU TIME =    133167.944
NODE    2 CPU TIME =    132796.695
NODE    3 CPU TIME =    132530.596
NODE    4 CPU TIME =    132942.621
NODE    5 CPU TIME =    133029.810
NODE    6 CPU TIME =    132837.786
NODE    7 CPU TIME =    132573.689
NODE    8 CPU TIME =    132840.290
NODE    9 CPU TIME =    132932.616
NODE   10 CPU TIME =    132597.365
NODE   11 CPU TIME =    132446.695
NODE   12 CPU TIME =    132763.385
NODE   13 CPU TIME =    132880.812
NODE   14 CPU TIME =    132570.367
NODE   15 CPU TIME =    132347.786
NODE   16 CPU TIME =    132551.784
NODE   17 CPU TIME =    132530.616
NODE   18 CPU TIME =    132376.283
NODE   19 CPU TIME =    132335.924
NODE   20 CPU TIME =    132507.566
NODE   21 CPU TIME =    132536.398
NODE   22 CPU TIME =    132236.776
NODE   23 CPU TIME =    132332.055
    TOTAL CPU TIME =   3182805.686
trying normal rsh (/usr/bin/rsh)
exec: No such file or directory
trying normal rsh (/usr/bin/rsh)
exec: No such file or directory
trying normal rsh (/usr/bin/rsh)
exec: No such file or directory
trying normal rsh (/usr/bin/rsh)
exec: No such file or directory
