Loading crystal17/1.0.2/intel/19.0
  Loading requirement: intel/19.0 ompi/4.0.1/intel/19.0
          64 PROCESSORS WORKING

         
 *******************************************************************************
 *                                                                             *
 *                               CRYSTAL17                                     *
 *                      public : 1.0.2 - March 1st, 2018                       *
 *                       HTTP://WWW.CRYSTAL.UNITO.IT                           *
 *                                                                             *
 *                              MAIN AUTHORS                                   *
 *                                                                             *
 *  R. DOVESI(1,11), V.R. SAUNDERS(2), C. ROETTI(1,11), R. ORLANDO(1,11),      *
 *  C.M. ZICOVICH-WILSON(1,3), F. PASCALE(4), B. CIVALLERI(1,11),              *
 *  K. DOLL(5), N.M. HARRISON(2,6), I.J. BUSH(7), Ph. D'ARCO(8),               *
 *  M. LLUNELL(9), M. CAUSA'(10), Y. NOEL(8), L. MASCHIO(1,11), A. ERBA(1,11)  *
 *  M. RE'RAT(14), S. CASASSA(1,11)                                            *
 *                                                                             *
 *        CONTRIBUTIONS TO THE CODE HAVE ALSO BEEN GIVEN BY                    *
 *                                                                             *
 *  M. FERRABONE(1,11), M. DE LA PIERRE(1,11), M. FERRERO(1,11),               *
 *  J. BAIMA(1,11), E. ALBANESE(1,11), M.F. PEINTINGER(12), R. BAST(13),       *
 *  B. KIRTMAN(15), V. LACIVITA(1,11), R. DEMICHELIS(1,16)                     *
 *  G. BRANDEBURG(17), S. SALUSTRO(1,11), G. SANSONE(1,11)                     *
 *  M.T. RUGGIERO(18)                                                          *
 *                                                                             *
 * (1) THEORETICAL CHEMISTRY GROUP - UNIVERSITA' DI TORINO - TORINO (ITALY)    *
 * (2) COMPUTATIONAL SCIENCE & ENGINEERING DEPARTMENT - STFC DARESBURY (UK)    *
 * (3) UNIVERSIDAD AUTONOMA DEL ESTADO DE MORELOS - CUERNAVACA (MEXICO)        *
 * (4) UNIVERSITE' DE LORRAINE - NANCY (FRANCE)                                *
 * (5) UNIVERSITAET STUTTGART- STUTTGART (GERMANY)                             *
 * (6) IMPERIAL COLLEGE - LONDON (UK)                                          *
 * (7) OXFORD E-RESEARCH CENTRE - OXFORD (UK)                                  *
 * (8) UPMC - SORBONNE UNIVERSITES - PARIS (FRANCE)                            *
 * (9) UNIVERSIDAD DE BARCELONA - BARCELONA (SPAIN)                            *
 *(10) UNIVERSITA' DI NAPOLI "FEDERICO II" - NAPOLI (ITALY)                    *
 *(11) NIS - NANOSTRUCTURED INTERFACES AND SURFACES - TORINO (ITALY)           *
 *(12) MPI FUER CHEMISCHE ENERGIEKONVERSION - MUELHEIM AN DER RUHR (GERMANY)   *
 *(13) UNIVERSITY OF TROMSO - TROMSO (NORWAY)                                  *
 *(14) UNIVERSITE' DE PAU ET DES PAYS DE L'ADOUR - PAU (FRANCE)                *
 *(15) UNIVERSITY OF CALIFORNIA SANTA BARBARA - SANTA BARBARA (USA)            *
 *(16) CURTIN UNIVERSITY - PERTH (AUSTRALIA)                                   *
 *(17) UNIVERSITY COLLEGE LONDON - LONDON (UK)                                 *
 *(18) CAMBRIDGE UNIVERSITY - CAMBRIDGE (UK)                                   *
 *                                                                             *
 *******************************************************************************
 EEEEEEEEEE STARTING  DATE 05 03 2024 TIME 23:24:29.5
 C:\Users\wilso\AppData\Local\Temp\tmp_p\newconn.mol                             

 CRYSTAL CALCULATION
 (INPUT ACCORDING TO THE INTERNATIONAL TABLES FOR X-RAY CRYSTALLOGRAPHY)
 CRYSTAL FAMILY                       :  TETRAGONAL  
 CRYSTAL CLASS  (GROTH - 1921)        :  TETRAGONAL DISPHENOIDAL              

 SPACE GROUP (NONCENTROSYMMETRIC)     :  I -4            

 LATTICE PARAMETERS  (ANGSTROMS AND DEGREES) - CONVENTIONAL CELL
        A           B           C        ALPHA        BETA       GAMMA
    10.81900    10.81900    12.81200    90.00000    90.00000    90.00000


 NUMBER OF IRREDUCIBLE ATOMS IN THE CONVENTIONAL CELL:  124

 INPUT COORDINATES

 ATOM AT. N.              COORDINATES
   1   1     4.818800000000E-01  8.489900000000E-01  4.102100000000E-01
   2   1     4.000000000000E-01  4.746800000000E-01  3.801300000000E-01
   3   1     5.181200000000E-01  1.510100000000E-01  4.102100000000E-01
   4   1     6.000000000000E-01  5.253200000000E-01  3.801300000000E-01
   5   1     8.489900000000E-01  5.181200000000E-01  5.897900000000E-01
   6   1     4.746800000000E-01  6.000000000000E-01  6.198700000000E-01
   7   1     1.510100000000E-01  4.818800000000E-01  5.897900000000E-01
   8   1     5.253200000000E-01  4.000000000000E-01  6.198700000000E-01
   9   1     9.818800000000E-01  3.489900000000E-01  9.102100000000E-01
  10   1     9.000000000000E-01  9.746800000000E-01  8.801300000000E-01
  11   1     1.812000000000E-02  6.510100000000E-01  9.102100000000E-01
  12   1     1.000000000000E-01  2.532000000000E-02  8.801300000000E-01
  13   1     3.489900000000E-01  1.812000000000E-02  8.979000000000E-02
  14   1     9.746800000000E-01  1.000000000000E-01  1.198700000000E-01
  15   1     6.510100000000E-01  9.818800000000E-01  8.979000000000E-02
  16   1     2.532000000000E-02  9.000000000000E-01  1.198700000000E-01
  17   6     2.865600000000E-01  8.135100000000E-01  3.868000000000E-01
  18   6     2.586900000000E-01  9.452100000000E-01  3.783300000000E-01
  19   6     1.991000000000E-01  7.179400000000E-01  3.775800000000E-01
  20   6     3.673900000000E-01  5.706900000000E-01  3.830100000000E-01
  21   6     4.114800000000E-01  7.784900000000E-01  3.971800000000E-01
  22   6     7.592200000000E-01  4.047600000000E-01  3.769700000000E-01
  23   6     7.134400000000E-01  1.864900000000E-01  3.868000000000E-01
  24   6     7.413100000000E-01  5.479000000000E-02  3.783300000000E-01
  25   6     8.009000000000E-01  2.820600000000E-01  3.775800000000E-01
  26   6     6.326100000000E-01  4.293100000000E-01  3.830100000000E-01
  27   6     5.885200000000E-01  2.215100000000E-01  3.971800000000E-01
  28   6     2.407800000000E-01  5.952400000000E-01  3.769700000000E-01
  29   6     8.135100000000E-01  7.134400000000E-01  6.132000000000E-01
  30   6     9.452100000000E-01  7.413100000000E-01  6.216700000000E-01
  31   6     7.179400000000E-01  8.009000000000E-01  6.224200000000E-01
  32   6     5.706900000000E-01  6.326100000000E-01  6.169900000000E-01
  33   6     7.784900000000E-01  5.885200000000E-01  6.028200000000E-01
  34   6     4.047600000000E-01  2.407800000000E-01  6.230300000000E-01
  35   6     1.864900000000E-01  2.865600000000E-01  6.132000000000E-01
  36   6     5.479000000000E-02  2.586900000000E-01  6.216700000000E-01
  37   6     2.820600000000E-01  1.991000000000E-01  6.224200000000E-01
  38   6     4.293100000000E-01  3.673900000000E-01  6.169900000000E-01
  39   6     2.215100000000E-01  4.114800000000E-01  6.028200000000E-01
  40   6     5.952400000000E-01  7.592200000000E-01  6.230300000000E-01
  41   6     7.865600000000E-01  3.135100000000E-01  8.868000000000E-01
  42   6     7.586900000000E-01  4.452100000000E-01  8.783300000000E-01
  43   6     6.991000000000E-01  2.179400000000E-01  8.775800000000E-01
  44   6     8.673900000000E-01  7.069000000000E-02  8.830100000000E-01
  45   6     9.114800000000E-01  2.784900000000E-01  8.971800000000E-01
  46   6     2.592200000000E-01  9.047600000000E-01  8.769700000000E-01
  47   6     2.134400000000E-01  6.864900000000E-01  8.868000000000E-01
  48   6     2.413100000000E-01  5.547900000000E-01  8.783300000000E-01
  49   6     3.009000000000E-01  7.820600000000E-01  8.775800000000E-01
  50   6     1.326100000000E-01  9.293100000000E-01  8.830100000000E-01
  51   6     8.852000000000E-02  7.215100000000E-01  8.971800000000E-01
  52   6     7.407800000000E-01  9.524000000000E-02  8.769700000000E-01
  53   6     3.135100000000E-01  2.134400000000E-01  1.132000000000E-01
  54   6     4.452100000000E-01  2.413100000000E-01  1.216700000000E-01
  55   6     2.179400000000E-01  3.009000000000E-01  1.224200000000E-01
  56   6     7.069000000000E-02  1.326100000000E-01  1.169900000000E-01
  57   6     2.784900000000E-01  8.852000000000E-02  1.028200000000E-01
  58   6     9.047600000000E-01  7.407800000000E-01  1.230300000000E-01
  59   6     6.864900000000E-01  7.865600000000E-01  1.132000000000E-01
  60   6     5.547900000000E-01  7.586900000000E-01  1.216700000000E-01
  61   6     7.820600000000E-01  6.991000000000E-01  1.224200000000E-01
  62   6     9.293100000000E-01  8.673900000000E-01  1.169900000000E-01
  63   6     7.215100000000E-01  9.114800000000E-01  1.028200000000E-01
  64   6     9.524000000000E-02  2.592200000000E-01  1.230300000000E-01
  65   7     3.435400000000E-01  2.375000000000E-02  3.362400000000E-01
  66   7     2.954300000000E-01  1.410100000000E-01  3.425600000000E-01
  67   7     1.584100000000E-01  1.211000000000E-02  4.086700000000E-01
  68   7     1.852400000000E-01  1.339900000000E-01  3.856300000000E-01
  69   7     4.514800000000E-01  6.614000000000E-01  3.936000000000E-01
  70   7     6.564600000000E-01  9.762500000000E-01  3.362400000000E-01
  71   7     7.045700000000E-01  8.589900000000E-01  3.425600000000E-01
  72   7     8.415900000000E-01  9.878900000000E-01  4.086700000000E-01
  73   7     8.147600000000E-01  8.660100000000E-01  3.856300000000E-01
  74   7     5.485200000000E-01  3.386000000000E-01  3.936000000000E-01
  75   7     2.375000000000E-02  6.564600000000E-01  6.637600000000E-01
  76   7     1.410100000000E-01  7.045700000000E-01  6.574400000000E-01
  77   7     1.211000000000E-02  8.415900000000E-01  5.913300000000E-01
  78   7     1.339900000000E-01  8.147600000000E-01  6.143700000000E-01
  79   7     6.614000000000E-01  5.485200000000E-01  6.064000000000E-01
  80   7     9.762500000000E-01  3.435400000000E-01  6.637600000000E-01
  81   7     8.589900000000E-01  2.954300000000E-01  6.574400000000E-01
  82   7     9.878900000000E-01  1.584100000000E-01  5.913300000000E-01
  83   7     8.660100000000E-01  1.852400000000E-01  6.143700000000E-01
  84   7     3.386000000000E-01  4.514800000000E-01  6.064000000000E-01
  85   7     8.435400000000E-01  5.237500000000E-01  8.362400000000E-01
  86   7     7.954300000000E-01  6.410100000000E-01  8.425600000000E-01
  87   7     6.584100000000E-01  5.121100000000E-01  9.086700000000E-01
  88   7     6.852400000000E-01  6.339900000000E-01  8.856300000000E-01
  89   7     9.514800000000E-01  1.614000000000E-01  8.936000000000E-01
  90   7     1.564600000000E-01  4.762500000000E-01  8.362400000000E-01
  91   7     2.045700000000E-01  3.589900000000E-01  8.425600000000E-01
  92   7     3.415900000000E-01  4.878900000000E-01  9.086700000000E-01
  93   7     3.147600000000E-01  3.660100000000E-01  8.856300000000E-01
  94   7     4.852000000000E-02  8.386000000000E-01  8.936000000000E-01
  95   7     5.237500000000E-01  1.564600000000E-01  1.637600000000E-01
  96   7     6.410100000000E-01  2.045700000000E-01  1.574400000000E-01
  97   7     5.121100000000E-01  3.415900000000E-01  9.133000000000E-02
  98   7     6.339900000000E-01  3.147600000000E-01  1.143700000000E-01
  99   7     1.614000000000E-01  4.852000000000E-02  1.064000000000E-01
 100   7     4.762500000000E-01  8.435400000000E-01  1.637600000000E-01
 101   7     3.589900000000E-01  7.954300000000E-01  1.574400000000E-01
 102   7     4.878900000000E-01  6.584100000000E-01  9.133000000000E-02
 103   7     3.660100000000E-01  6.852400000000E-01  1.143700000000E-01
 104   7     8.386000000000E-01  9.514800000000E-01  1.064000000000E-01
 105  35     4.420000000000E-02  7.523900000000E-01  3.665400000000E-01
 106  35     1.410300000000E-01  4.715400000000E-01  3.696200000000E-01
 107  35     9.558000000000E-01  2.476100000000E-01  3.665400000000E-01
 108  35     8.589700000000E-01  5.284600000000E-01  3.696200000000E-01
 109  35     7.523900000000E-01  9.558000000000E-01  6.334600000000E-01
 110  35     4.715400000000E-01  8.589700000000E-01  6.303800000000E-01
 111  35     2.476100000000E-01  4.420000000000E-02  6.334600000000E-01
 112  35     5.284600000000E-01  1.410300000000E-01  6.303800000000E-01
 113  35     5.442000000000E-01  2.523900000000E-01  8.665400000000E-01
 114  35     6.410300000000E-01  9.715400000000E-01  8.696200000000E-01
 115  35     4.558000000000E-01  7.476100000000E-01  8.665400000000E-01
 116  35     3.589700000000E-01  2.846000000000E-02  8.696200000000E-01
 117  35     2.523900000000E-01  4.558000000000E-01  1.334600000000E-01
 118  35     9.715400000000E-01  3.589700000000E-01  1.303800000000E-01
 119  35     7.476100000000E-01  5.442000000000E-01  1.334600000000E-01
 120  35     2.846000000000E-02  6.410300000000E-01  1.303800000000E-01
 121  30     3.553962274509E-16  5.000000000000E-01  7.500000000000E-01
 122  30     2.462763676556E-16 -8.209212255187E-17  5.000000000000E-01
 123  30     5.000000000000E-01 -8.209212255187E-17  2.500000000000E-01
 124  30     5.000000000000E-01  5.000000000000E-01 -9.300260448901E-17

 *******************************************************************************

 << INFORMATION >>: FROM NOW ON, ALL COORDINATES REFER TO THE PRIMITIVE CELL

 *******************************************************************************

 LATTICE PARAMETERS  (ANGSTROMS AND DEGREES) - PRIMITIVE CELL
       A          B          C        ALPHA      BETA     GAMMA        VOLUME
    9.97809    9.97809    9.97809   114.34140 114.34140 100.11674    749.827175

 INPUT LIST - ATOM N.   2 NOT IRREDUCIBLE

 INPUT LIST - ATOM N.   6 NOT IRREDUCIBLE

 INPUT LIST - ATOM N.   3 NOT IRREDUCIBLE

 INPUT LIST - ATOM N.   7 NOT IRREDUCIBLE

 INPUT LIST - ATOM N.   4 NOT IRREDUCIBLE

 INPUT LIST - ATOM N.   8 NOT IRREDUCIBLE

 INPUT LIST - ATOM N.   1 NOT IRREDUCIBLE

 INPUT LIST - ATOM N.   5 NOT IRREDUCIBLE

 INPUT LIST - ATOM N.   2 NOT IRREDUCIBLE

 INPUT LIST - ATOM N.   6 NOT IRREDUCIBLE

 INPUT LIST - ATOM N.   3 NOT IRREDUCIBLE

 INPUT LIST - ATOM N.   7 NOT IRREDUCIBLE

 INPUT LIST - ATOM N.   4 NOT IRREDUCIBLE

 INPUT LIST - ATOM N.   8 NOT IRREDUCIBLE

 INPUT LIST - ATOM N.  10 NOT IRREDUCIBLE

 INPUT LIST - ATOM N.  14 NOT IRREDUCIBLE

 INPUT LIST - ATOM N.  18 NOT IRREDUCIBLE

 INPUT LIST - ATOM N.  22 NOT IRREDUCIBLE

 INPUT LIST - ATOM N.  26 NOT IRREDUCIBLE

 INPUT LIST - ATOM N.  30 NOT IRREDUCIBLE

 INPUT LIST - ATOM N.  11 NOT IRREDUCIBLE

 INPUT LIST - ATOM N.  15 NOT IRREDUCIBLE

 INPUT LIST - ATOM N.  19 NOT IRREDUCIBLE

 INPUT LIST - ATOM N.  23 NOT IRREDUCIBLE

 INPUT LIST - ATOM N.  27 NOT IRREDUCIBLE

 INPUT LIST - ATOM N.  31 NOT IRREDUCIBLE

 INPUT LIST - ATOM N.  12 NOT IRREDUCIBLE

 INPUT LIST - ATOM N.  16 NOT IRREDUCIBLE

 INPUT LIST - ATOM N.  20 NOT IRREDUCIBLE

 INPUT LIST - ATOM N.  24 NOT IRREDUCIBLE

 INPUT LIST - ATOM N.  28 NOT IRREDUCIBLE

 INPUT LIST - ATOM N.  32 NOT IRREDUCIBLE

 INPUT LIST - ATOM N.   9 NOT IRREDUCIBLE

 INPUT LIST - ATOM N.  13 NOT IRREDUCIBLE

 INPUT LIST - ATOM N.  17 NOT IRREDUCIBLE

 INPUT LIST - ATOM N.  21 NOT IRREDUCIBLE

 INPUT LIST - ATOM N.  25 NOT IRREDUCIBLE

 INPUT LIST - ATOM N.  29 NOT IRREDUCIBLE

 INPUT LIST - ATOM N.  10 NOT IRREDUCIBLE

 INPUT LIST - ATOM N.  14 NOT IRREDUCIBLE

 INPUT LIST - ATOM N.  18 NOT IRREDUCIBLE

 INPUT LIST - ATOM N.  22 NOT IRREDUCIBLE

 INPUT LIST - ATOM N.  26 NOT IRREDUCIBLE

 INPUT LIST - ATOM N.  30 NOT IRREDUCIBLE

 INPUT LIST - ATOM N.  11 NOT IRREDUCIBLE

 INPUT LIST - ATOM N.  15 NOT IRREDUCIBLE

 INPUT LIST - ATOM N.  19 NOT IRREDUCIBLE

 INPUT LIST - ATOM N.  23 NOT IRREDUCIBLE

 INPUT LIST - ATOM N.  27 NOT IRREDUCIBLE

 INPUT LIST - ATOM N.  31 NOT IRREDUCIBLE

 INPUT LIST - ATOM N.  12 NOT IRREDUCIBLE

 INPUT LIST - ATOM N.  16 NOT IRREDUCIBLE

 INPUT LIST - ATOM N.  20 NOT IRREDUCIBLE

 INPUT LIST - ATOM N.  24 NOT IRREDUCIBLE

 INPUT LIST - ATOM N.  28 NOT IRREDUCIBLE

 INPUT LIST - ATOM N.  32 NOT IRREDUCIBLE

 INPUT LIST - ATOM N.  34 NOT IRREDUCIBLE

 INPUT LIST - ATOM N.  38 NOT IRREDUCIBLE

 INPUT LIST - ATOM N.  42 NOT IRREDUCIBLE

 INPUT LIST - ATOM N.  46 NOT IRREDUCIBLE

 INPUT LIST - ATOM N.  50 NOT IRREDUCIBLE

 INPUT LIST - ATOM N.  35 NOT IRREDUCIBLE

 INPUT LIST - ATOM N.  39 NOT IRREDUCIBLE

 INPUT LIST - ATOM N.  43 NOT IRREDUCIBLE

 INPUT LIST - ATOM N.  47 NOT IRREDUCIBLE

 INPUT LIST - ATOM N.  51 NOT IRREDUCIBLE

 INPUT LIST - ATOM N.  36 NOT IRREDUCIBLE

 INPUT LIST - ATOM N.  40 NOT IRREDUCIBLE

 INPUT LIST - ATOM N.  44 NOT IRREDUCIBLE

 INPUT LIST - ATOM N.  48 NOT IRREDUCIBLE

 INPUT LIST - ATOM N.  52 NOT IRREDUCIBLE

 INPUT LIST - ATOM N.  33 NOT IRREDUCIBLE

 INPUT LIST - ATOM N.  37 NOT IRREDUCIBLE

 INPUT LIST - ATOM N.  41 NOT IRREDUCIBLE

 INPUT LIST - ATOM N.  45 NOT IRREDUCIBLE

 INPUT LIST - ATOM N.  49 NOT IRREDUCIBLE

 INPUT LIST - ATOM N.  34 NOT IRREDUCIBLE

 INPUT LIST - ATOM N.  38 NOT IRREDUCIBLE

 INPUT LIST - ATOM N.  42 NOT IRREDUCIBLE

 INPUT LIST - ATOM N.  46 NOT IRREDUCIBLE

 INPUT LIST - ATOM N.  50 NOT IRREDUCIBLE

 INPUT LIST - ATOM N.  35 NOT IRREDUCIBLE

 INPUT LIST - ATOM N.  39 NOT IRREDUCIBLE

 INPUT LIST - ATOM N.  43 NOT IRREDUCIBLE

 INPUT LIST - ATOM N.  47 NOT IRREDUCIBLE

 INPUT LIST - ATOM N.  51 NOT IRREDUCIBLE

 INPUT LIST - ATOM N.  36 NOT IRREDUCIBLE

 INPUT LIST - ATOM N.  40 NOT IRREDUCIBLE

 INPUT LIST - ATOM N.  44 NOT IRREDUCIBLE

 INPUT LIST - ATOM N.  48 NOT IRREDUCIBLE

 INPUT LIST - ATOM N.  52 NOT IRREDUCIBLE

 INPUT LIST - ATOM N.  54 NOT IRREDUCIBLE

 INPUT LIST - ATOM N.  58 NOT IRREDUCIBLE

 INPUT LIST - ATOM N.  55 NOT IRREDUCIBLE

 INPUT LIST - ATOM N.  59 NOT IRREDUCIBLE

 INPUT LIST - ATOM N.  56 NOT IRREDUCIBLE

 INPUT LIST - ATOM N.  60 NOT IRREDUCIBLE

 INPUT LIST - ATOM N.  53 NOT IRREDUCIBLE

 INPUT LIST - ATOM N.  57 NOT IRREDUCIBLE

 INPUT LIST - ATOM N.  54 NOT IRREDUCIBLE

 INPUT LIST - ATOM N.  58 NOT IRREDUCIBLE

 INPUT LIST - ATOM N.  55 NOT IRREDUCIBLE

 INPUT LIST - ATOM N.  59 NOT IRREDUCIBLE

 INPUT LIST - ATOM N.  56 NOT IRREDUCIBLE

 INPUT LIST - ATOM N.  60 NOT IRREDUCIBLE

 INPUT LIST - ATOM N.  61 NOT IRREDUCIBLE

 INPUT LIST - ATOM N.  62 NOT IRREDUCIBLE

 COORDINATES OF THE EQUIVALENT ATOMS (FRACTIONAL UNITS)

 N. ATOM EQUIV AT. N.          X                  Y                  Z

   1   1   1    1 H     2.59200000000E-01 -1.07910000000E-01  3.30870000000E-01
   2   1   2    1 H    -4.38780000000E-01 -7.16700000000E-02 -3.30870000000E-01
   3   1   3    1 H     1.07910000000E-01  4.38780000000E-01  3.67110000000E-01
   4   1   4    1 H     7.16700000000E-02 -2.59200000000E-01 -3.67110000000E-01

   5   2   1    1 H    -1.45190000000E-01 -2.19870000000E-01 -1.25320000000E-01
   6   2   2    1 H    -9.45500000000E-02 -1.98700000000E-02  1.25320000000E-01
   7   2   3    1 H     2.19870000000E-01  9.45500000000E-02  7.46800000000E-02
   8   2   4    1 H     1.98700000000E-02  1.45190000000E-01 -7.46800000000E-02















   9  17   1    6 C     2.00310000000E-01 -3.26640000000E-01  1.00070000000E-01
  10  17   2    6 C    -4.26710000000E-01  1.00240000000E-01 -1.00070000000E-01
  11  17   3    6 C     3.26640000000E-01  4.26710000000E-01 -4.73050000000E-01
  12  17   4    6 C    -1.00240000000E-01 -2.00310000000E-01  4.73050000000E-01

 NUMBER OF SYMMETRY OPERATORS         :    4
 *******************************************************************************
 * GEOMETRY EDITING - INPUT COORDINATES ARE GIVEN IN ANGSTROM         
 *******************************************************************************

 GEOMETRY NOW FULLY CONSISTENT WITH THE GROUP
 *******************************************************************************
 *  GEOMETRY EDITING
 *  THE SYMMETRY OF THE CRYSTAL IS KEPT AND APPLIED TO THE PERTURBATION
 *******************************************************************************
 INFORMATION **** NEW DEFAULT **** FINALRUN 4 FOR GEOMETRY OPTIMIZATIONS
 INFORMATION **** NEW DEFAULT **** OPTGEOM OPTIMIZES BOTH ATOMIC COORDINATES AND CELL PARAMETERS
 INFORMATION **** NEW DEFAULT **** TOL. ON ATOMIC DISP TO REDEFINE REF. GEOMETRY: 0.8 Angs
 INFORMATION **** NEW DEFAULT **** N POINTS TO REDEFINE REF. GEOMETRY: N OF OPT DEGS OF FREEDOM
 INFORMATION **** NEW DEFAULT **** TOL. ON ENERGY TO REDEFINE REF. GEOMETRY: 10**-3*(5*N. ATOMS)

 IMPORTANT INFORMATION:
 THE COORDINATE SYSTEM ADOPTED IN THE OPTIMIZATION IS NOT IN
 GENERAL HOMOGENEOUS UNITS. FOR THIS REASON THE GRADIENT AND 
 HESSIAN MATRIX IN TERMS OF THIS SYSTEM ARE GIVEN WITHOUT
 UNITS. FOR MORE DETAILS SEE THE MANUAL.

 *******************************************************************************
 COMBINED CELL/ATOM OPTIMIZATION CONTROL

 INITIAL TRUST RADIUS         0.50000 MAXIMUM TRUST RADIUS               4.00000
 MAXIMUM GRADIENT COMPONENT   0.00045 MAXIMUM DISPLACEMENT COMPONENT     0.00180
 R.M.S. OF GRADIENT COMPONENT 0.00030 R.M.S. OF DISPLACEMENT COMPONENTS  0.00120
 THRESHOLD ON ENERGY CHANGE 0.100E-06 EXTRAPOLATING POLYNOMIAL ORDER           2
 MAXIMUM ALLOWED NUMBER OF STEPS   -1 SORTING OF ENERGY POINTS:               NO
 ANALYTICAL  GRADIENT                 HESSIAN UPDATING                      BFGS
 STEP SIZE NUMERICAL GRADIENT 0.00100
 INITIAL HESSIAN MATRIX: SCHLEGEL MODEL 2
 *******************************************************************************


 GCALCO - MAX INDICES DIRECT LATTICE VECTOR    14    14    16
 NO.OF VECTORS CREATED 6999 STARS  486 RMAX   204.19483 BOHR

 GEOMETRY FOR WAVE FUNCTION - DIMENSIONALITY OF THE SYSTEM    3
 (NON PERIODIC DIRECTION: LATTICE PARAMETER FORMALLY SET TO 500)
 *******************************************************************************
 LATTICE PARAMETERS (ANGSTROMS AND DEGREES) - BOHR = 0.5291772083 ANGSTROM
 PRIMITIVE CELL - CENTRING CODE 6/0 VOLUME=   749.827175 - DENSITY  2.957 g/cm^3
         A              B              C           ALPHA      BETA       GAMMA 
     9.97808682     9.97808682     9.97808682   114.341399 114.341399 100.116744
 *******************************************************************************
 ATOMS IN THE ASYMMETRIC UNIT   17 - ATOMS IN THE UNIT CELL:   62
     ATOM                 X/A                 Y/B                 Z/C    
 *******************************************************************************
      1 T   1 H     2.592000000000E-01 -1.079100000000E-01  3.308700000000E-01
      2 F   1 H    -4.387800000000E-01 -7.167000000000E-02 -3.308700000000E-01
      3 F   1 H     1.079100000000E-01  4.387800000000E-01  3.671100000000E-01
      4 F   1 H     7.167000000000E-02 -2.592000000000E-01 -3.671100000000E-01
      5 T   1 H    -1.451900000000E-01 -2.198700000000E-01 -1.253200000000E-01
      6 F   1 H    -9.455000000000E-02 -1.987000000000E-02  1.253200000000E-01
      7 F   1 H     2.198700000000E-01  9.455000000000E-02  7.468000000000E-02
      8 F   1 H     1.987000000000E-02  1.451900000000E-01 -7.468000000000E-02
      9 T   6 C     2.003100000000E-01 -3.266400000000E-01  1.000700000000E-01
     10 F   6 C    -4.267100000000E-01  1.002400000000E-01 -1.000700000000E-01
     11 F   6 C     3.266400000000E-01  4.267100000000E-01 -4.730500000000E-01
     12 F   6 C    -1.002400000000E-01 -2.003100000000E-01  4.730500000000E-01
     13 T   6 C     3.235400000000E-01 -3.629800000000E-01  2.039000000000E-01
     14 F   6 C     4.331200000000E-01  1.196400000000E-01 -2.039000000000E-01
     15 F   6 C     3.629800000000E-01 -4.331200000000E-01 -3.134800000000E-01
     16 F   6 C    -1.196400000000E-01 -3.235400000000E-01  3.134800000000E-01
     17 T   6 C     9.552000000000E-02 -4.233200000000E-01 -8.296000000000E-02
     18 F   6 C    -3.403600000000E-01  1.784800000000E-01  8.296000000000E-02
     19 F   6 C     4.233200000000E-01  3.403600000000E-01 -4.811600000000E-01
     20 F   6 C    -1.784800000000E-01 -9.552000000000E-02  4.811600000000E-01
     21 T   6 C    -4.630000000000E-02 -2.496000000000E-01 -6.192000000000E-02
     22 F   6 C    -1.876800000000E-01  1.562000000000E-02  6.192000000000E-02
     23 F   6 C     2.496000000000E-01  1.876800000000E-01  2.033000000000E-01
     24 F   6 C    -1.562000000000E-02  4.630000000000E-02 -2.033000000000E-01
     25 T   6 C     1.756700000000E-01 -1.913400000000E-01  1.899700000000E-01
     26 F   6 C    -3.813100000000E-01 -1.430000000000E-02 -1.899700000000E-01
     27 F   6 C     1.913400000000E-01  3.813100000000E-01  3.670100000000E-01
     28 F   6 C     1.430000000000E-02 -1.756700000000E-01 -3.670100000000E-01
     29 T   6 C    -2.182700000000E-01  1.361900000000E-01  1.639800000000E-01
     30 F   6 C    -2.779000000000E-02 -3.822500000000E-01 -1.639800000000E-01
     31 F   6 C    -1.361900000000E-01  2.779000000000E-02 -3.544600000000E-01
     32 F   6 C     3.822500000000E-01  2.182700000000E-01  3.544600000000E-01
     33 T   7 N     3.599900000000E-01 -3.202200000000E-01  3.672900000000E-01
     34 F   7 N     3.124900000000E-01 -7.300000000000E-03 -3.672900000000E-01
     35 F   7 N     3.202200000000E-01 -3.124900000000E-01 -3.197900000000E-01
     36 F   7 N     7.300000000000E-03 -3.599900000000E-01  3.197900000000E-01
     37 T   7 N     4.835700000000E-01 -3.620100000000E-01  4.364400000000E-01
     38 F   7 N     2.015500000000E-01  4.713000000000E-02 -4.364400000000E-01
     39 F   7 N     3.620100000000E-01 -2.015500000000E-01 -1.544200000000E-01
     40 F   7 N    -4.713000000000E-02 -4.835700000000E-01  1.544200000000E-01
     41 T   7 N     4.207800000000E-01 -4.329200000000E-01  1.705200000000E-01
     42 F   7 N     3.965600000000E-01  2.502600000000E-01 -1.705200000000E-01
     43 F   7 N     4.329200000000E-01 -3.965600000000E-01 -1.463000000000E-01
     44 F   7 N    -2.502600000000E-01 -4.207800000000E-01  1.463000000000E-01
     45 T   7 N    -4.803800000000E-01 -4.291300000000E-01  3.192300000000E-01
     46 F   7 N     2.516400000000E-01  2.003900000000E-01 -3.192300000000E-01
     47 F   7 N     4.291300000000E-01 -2.516400000000E-01 -5.125000000000E-02
     48 F   7 N    -2.003900000000E-01  4.803800000000E-01  5.125000000000E-02
     49 T   7 N     5.500000000000E-02 -1.549200000000E-01  1.128800000000E-01
     50 F   7 N    -2.678000000000E-01 -5.788000000000E-02 -1.128800000000E-01
     51 F   7 N     1.549200000000E-01  2.678000000000E-01  2.099200000000E-01
     52 F   7 N     5.788000000000E-02 -5.500000000000E-02 -2.099200000000E-01
     53 T  35 BR    1.189300000000E-01  4.107400000000E-01 -2.034100000000E-01
     54 F  35 BR   -3.858500000000E-01  3.223400000000E-01  2.034100000000E-01
     55 F  35 BR   -4.107400000000E-01  3.858500000000E-01 -2.918100000000E-01
     56 F  35 BR   -3.223400000000E-01 -1.189300000000E-01  2.918100000000E-01
     57 T  35 BR   -1.588400000000E-01 -4.893500000000E-01 -3.874300000000E-01
     58 F  35 BR   -1.019200000000E-01  2.285900000000E-01  3.874300000000E-01
     59 F  35 BR    4.893500000000E-01  1.019200000000E-01  3.305100000000E-01
     60 F  35 BR   -2.285900000000E-01  1.588400000000E-01 -3.305100000000E-01
     61 T  30 ZN    2.500000000000E-01 -2.500000000000E-01 -5.000000000000E-01
     62 T  30 ZN    5.000000000000E-01  5.000000000000E-01 -2.465190328816E-32

 TRANSFORMATION MATRIX PRIMITIVE-CRYSTALLOGRAPHIC CELL
  0.0000  1.0000  1.0000  1.0000  0.0000  1.0000  1.0000  1.0000  0.0000

 *******************************************************************************
 CRYSTALLOGRAPHIC CELL (VOLUME=       1499.65434993)
         A              B              C           ALPHA      BETA       GAMMA 
    10.81900000    10.81900000    12.81200000    90.000000  90.000000  90.000000

 COORDINATES IN THE CRYSTALLOGRAPHIC CELL
     ATOM                 X/A                 Y/B                 Z/C    
 *******************************************************************************
      1 T   1 H    -1.812000000000E-02  3.489900000000E-01 -8.979000000000E-02
      2 F   1 H     1.812000000000E-02 -3.489900000000E-01 -8.979000000000E-02
      3 F   1 H     3.489900000000E-01  1.812000000000E-02  8.979000000000E-02
      4 F   1 H    -3.489900000000E-01 -1.812000000000E-02  8.979000000000E-02
      5 T   1 H    -1.000000000000E-01 -2.532000000000E-02 -1.198700000000E-01
      6 F   1 H     1.000000000000E-01  2.532000000000E-02 -1.198700000000E-01
      7 F   1 H    -2.532000000000E-02  1.000000000000E-01  1.198700000000E-01
      8 F   1 H     2.532000000000E-02 -1.000000000000E-01  1.198700000000E-01
      9 T   6 C    -2.134400000000E-01  3.135100000000E-01 -1.132000000000E-01
     10 F   6 C     2.134400000000E-01 -3.135100000000E-01 -1.132000000000E-01
     11 F   6 C     3.135100000000E-01  2.134400000000E-01  1.132000000000E-01
     12 F   6 C    -3.135100000000E-01 -2.134400000000E-01  1.132000000000E-01
     13 T   6 C     2.586900000000E-01 -5.479000000000E-02  3.783300000000E-01
     14 F   6 C    -2.586900000000E-01  5.479000000000E-02  3.783300000000E-01
     15 F   6 C    -5.479000000000E-02 -2.586900000000E-01 -3.783300000000E-01
     16 F   6 C     5.479000000000E-02  2.586900000000E-01 -3.783300000000E-01
     17 T   6 C    -3.009000000000E-01  2.179400000000E-01 -1.224200000000E-01
     18 F   6 C     3.009000000000E-01 -2.179400000000E-01 -1.224200000000E-01
     19 F   6 C     2.179400000000E-01  3.009000000000E-01  1.224200000000E-01
     20 F   6 C    -2.179400000000E-01 -3.009000000000E-01  1.224200000000E-01
     21 T   6 C    -1.326100000000E-01  7.069000000000E-02 -1.169900000000E-01
     22 F   6 C     1.326100000000E-01 -7.069000000000E-02 -1.169900000000E-01
     23 F   6 C     7.069000000000E-02  1.326100000000E-01  1.169900000000E-01
     24 F   6 C    -7.069000000000E-02 -1.326100000000E-01  1.169900000000E-01
     25 T   6 C    -8.852000000000E-02  2.784900000000E-01 -1.028200000000E-01
     26 F   6 C     8.852000000000E-02 -2.784900000000E-01 -1.028200000000E-01
     27 F   6 C     2.784900000000E-01  8.852000000000E-02  1.028200000000E-01
     28 F   6 C    -2.784900000000E-01 -8.852000000000E-02  1.028200000000E-01
     29 T   6 C     2.592200000000E-01 -9.524000000000E-02 -1.230300000000E-01
     30 F   6 C    -2.592200000000E-01  9.524000000000E-02 -1.230300000000E-01
     31 F   6 C    -9.524000000000E-02 -2.592200000000E-01  1.230300000000E-01
     32 F   6 C     9.524000000000E-02  2.592200000000E-01  1.230300000000E-01
     33 T   7 N     3.435400000000E-01  2.375000000000E-02  3.362400000000E-01
     34 F   7 N    -3.435400000000E-01 -2.375000000000E-02  3.362400000000E-01
     35 F   7 N     2.375000000000E-02 -3.435400000000E-01 -3.362400000000E-01
     36 F   7 N    -2.375000000000E-02  3.435400000000E-01 -3.362400000000E-01
     37 T   7 N    -2.045700000000E-01 -3.589900000000E-01 -1.574400000000E-01
     38 F   7 N     2.045700000000E-01  3.589900000000E-01 -1.574400000000E-01
     39 F   7 N    -3.589900000000E-01  2.045700000000E-01  1.574400000000E-01
     40 F   7 N     3.589900000000E-01 -2.045700000000E-01  1.574400000000E-01
     41 T   7 N     1.584100000000E-01  1.211000000000E-02  4.086700000000E-01
     42 F   7 N    -1.584100000000E-01 -1.211000000000E-02  4.086700000000E-01
     43 F   7 N     1.211000000000E-02 -1.584100000000E-01 -4.086700000000E-01
     44 F   7 N    -1.211000000000E-02  1.584100000000E-01 -4.086700000000E-01
     45 T   7 N    -3.147600000000E-01 -3.660100000000E-01 -1.143700000000E-01
     46 F   7 N     3.147600000000E-01  3.660100000000E-01 -1.143700000000E-01
     47 F   7 N    -3.660100000000E-01  3.147600000000E-01  1.143700000000E-01
     48 F   7 N     3.660100000000E-01 -3.147600000000E-01  1.143700000000E-01
     49 T   7 N    -4.852000000000E-02  1.614000000000E-01 -1.064000000000E-01
     50 F   7 N     4.852000000000E-02 -1.614000000000E-01 -1.064000000000E-01
     51 F   7 N     1.614000000000E-01  4.852000000000E-02  1.064000000000E-01
     52 F   7 N    -1.614000000000E-01 -4.852000000000E-02  1.064000000000E-01
     53 T  35 BR    4.420000000000E-02 -2.476100000000E-01  3.665400000000E-01
     54 F  35 BR   -4.420000000000E-02  2.476100000000E-01  3.665400000000E-01
     55 F  35 BR   -2.476100000000E-01 -4.420000000000E-02 -3.665400000000E-01
     56 F  35 BR    2.476100000000E-01  4.420000000000E-02 -3.665400000000E-01
     57 T  35 BR   -3.589700000000E-01 -2.846000000000E-02 -1.303800000000E-01
     58 F  35 BR    3.589700000000E-01  2.846000000000E-02 -1.303800000000E-01
     59 F  35 BR   -2.846000000000E-02  3.589700000000E-01  1.303800000000E-01
     60 F  35 BR    2.846000000000E-02 -3.589700000000E-01  1.303800000000E-01
     61 T  30 ZN   -5.000000000000E-01  0.000000000000E+00  2.500000000000E-01
     62 T  30 ZN   -1.232595164408E-32 -1.232595164408E-32  5.000000000000E-01

 T = ATOM BELONGING TO THE ASYMMETRIC UNIT

 ****    4 SYMMOPS - TRANSLATORS IN FRACTIONAL UNITS
 **** MATRICES AND TRANSLATORS IN THE CRYSTALLOGRAPHIC REFERENCE FRAME
   V INV                    ROTATION MATRICES                   TRANSLATORS
   1   1  1.00  0.00  0.00  0.00  1.00  0.00  0.00  0.00  1.00  0.00  0.00  0.00
   2   2  0.00  1.00 -1.00  1.00  0.00 -1.00  0.00 -0.00 -1.00  0.00  0.00  0.00
   3   4  0.00 -1.00  0.00 -0.00 -1.00  1.00  1.00 -1.00 -0.00  0.00  0.00  0.00
   4   3 -1.00  0.00  1.00 -1.00 -0.00  0.00 -1.00  1.00  0.00  0.00  0.00  0.00

 DIRECT LATTICE VECTORS CARTESIAN COMPONENTS (ANGSTROM)
          X                    Y                    Z
  -0.540950000000E+01   0.540950000000E+01   0.640600000000E+01
   0.540950000000E+01  -0.540950000000E+01   0.640600000000E+01
   0.540950000000E+01   0.540950000000E+01  -0.640600000000E+01


 CARTESIAN COORDINATES - PRIMITIVE CELL
 *******************************************************************************
 *      ATOM          X(ANGSTROM)         Y(ANGSTROM)         Z(ANGSTROM)
 *******************************************************************************
    1     1 H    -1.960402800000E-01  3.775722810000E+00 -1.150389480000E+00
    2     1 H     1.960402800000E-01 -3.775722810000E+00 -1.150389480000E+00
    3     1 H     3.775722810000E+00  1.960402800000E-01  1.150389480000E+00
    4     1 H    -3.775722810000E+00 -1.960402800000E-01  1.150389480000E+00
    5     1 H    -1.081900000000E+00 -2.739370800000E-01 -1.535774440000E+00
    6     1 H     1.081900000000E+00  2.739370800000E-01 -1.535774440000E+00
    7     1 H    -2.739370800000E-01  1.081900000000E+00  1.535774440000E+00
    8     1 H     2.739370800000E-01 -1.081900000000E+00  1.535774440000E+00
    9     6 C    -2.309207360000E+00  3.391864690000E+00 -1.450318400000E+00
   10     6 C     2.309207360000E+00 -3.391864690000E+00 -1.450318400000E+00
   11     6 C     3.391864690000E+00  2.309207360000E+00  1.450318400000E+00
   12     6 C    -3.391864690000E+00 -2.309207360000E+00  1.450318400000E+00
   13     6 C     2.798767110000E+00 -5.927730100000E-01  4.847163960000E+00
   14     6 C    -2.798767110000E+00  5.927730100000E-01  4.847163960000E+00
   15     6 C    -5.927730100000E-01 -2.798767110000E+00 -4.847163960000E+00
   16     6 C     5.927730100000E-01  2.798767110000E+00 -4.847163960000E+00
   17     6 C    -3.255437100000E+00  2.357892860000E+00 -1.568445040000E+00
   18     6 C     3.255437100000E+00 -2.357892860000E+00 -1.568445040000E+00
   19     6 C     2.357892860000E+00  3.255437100000E+00  1.568445040000E+00
   20     6 C    -2.357892860000E+00 -3.255437100000E+00  1.568445040000E+00
   21     6 C    -1.434707590000E+00  7.647951100000E-01 -1.498875880000E+00
   22     6 C     1.434707590000E+00 -7.647951100000E-01 -1.498875880000E+00
   23     6 C     7.647951100000E-01  1.434707590000E+00  1.498875880000E+00
   24     6 C    -7.647951100000E-01 -1.434707590000E+00  1.498875880000E+00
   25     6 C    -9.576978800000E-01  3.012983310000E+00 -1.317329840000E+00
   26     6 C     9.576978800000E-01 -3.012983310000E+00 -1.317329840000E+00
   27     6 C     3.012983310000E+00  9.576978800000E-01  1.317329840000E+00
   28     6 C    -3.012983310000E+00 -9.576978800000E-01  1.317329840000E+00
   29     6 C     2.804501180000E+00 -1.030401560000E+00 -1.576260360000E+00
   30     6 C    -2.804501180000E+00  1.030401560000E+00 -1.576260360000E+00
   31     6 C    -1.030401560000E+00 -2.804501180000E+00  1.576260360000E+00
   32     6 C     1.030401560000E+00  2.804501180000E+00  1.576260360000E+00
   33     7 N     3.716759260000E+00  2.569512500000E-01  4.307906880000E+00
   34     7 N    -3.716759260000E+00 -2.569512500000E-01  4.307906880000E+00
   35     7 N     2.569512500000E-01 -3.716759260000E+00 -4.307906880000E+00
   36     7 N    -2.569512500000E-01  3.716759260000E+00 -4.307906880000E+00
   37     7 N    -2.213242830000E+00 -3.883912810000E+00 -2.017121280000E+00
   38     7 N     2.213242830000E+00  3.883912810000E+00 -2.017121280000E+00
   39     7 N    -3.883912810000E+00  2.213242830000E+00  2.017121280000E+00
   40     7 N     3.883912810000E+00 -2.213242830000E+00  2.017121280000E+00
   41     7 N     1.713837790000E+00  1.310180900000E-01  5.235880040000E+00
   42     7 N    -1.713837790000E+00 -1.310180900000E-01  5.235880040000E+00
   43     7 N     1.310180900000E-01 -1.713837790000E+00 -5.235880040000E+00
   44     7 N    -1.310180900000E-01  1.713837790000E+00 -5.235880040000E+00
   45     7 N    -3.405388440000E+00 -3.959862190000E+00 -1.465308440000E+00
   46     7 N     3.405388440000E+00  3.959862190000E+00 -1.465308440000E+00
   47     7 N    -3.959862190000E+00  3.405388440000E+00  1.465308440000E+00
   48     7 N     3.959862190000E+00 -3.405388440000E+00  1.465308440000E+00
   49     7 N    -5.249378800000E-01  1.746186600000E+00 -1.363196800000E+00
   50     7 N     5.249378800000E-01 -1.746186600000E+00 -1.363196800000E+00
   51     7 N     1.746186600000E+00  5.249378800000E-01  1.363196800000E+00
   52     7 N    -1.746186600000E+00 -5.249378800000E-01  1.363196800000E+00
   53    35 BR    4.781998000000E-01 -2.678892590000E+00  4.696110480000E+00
   54    35 BR   -4.781998000000E-01  2.678892590000E+00  4.696110480000E+00
   55    35 BR   -2.678892590000E+00 -4.781998000000E-01 -4.696110480000E+00
   56    35 BR    2.678892590000E+00  4.781998000000E-01 -4.696110480000E+00
   57    35 BR   -3.883696430000E+00 -3.079087400000E-01 -1.670428560000E+00
   58    35 BR    3.883696430000E+00  3.079087400000E-01 -1.670428560000E+00
   59    35 BR   -3.079087400000E-01  3.883696430000E+00  1.670428560000E+00
   60    35 BR    3.079087400000E-01 -3.883696430000E+00  1.670428560000E+00
   61    30 ZN    5.409500000000E+00  0.000000000000E+00 -9.609000000000E+00
   62    30 ZN   -1.333544708373E-31 -1.333544708373E-31  6.406000000000E+00

 *******************************************************************************
 STARTING BASIS SET HANDLING 
 *******************************************************************************

 Loading internal basis set: POB-DZVPP           

 Please cite in your publication:
 Peintinger, M. F., Oliveira, D. V. and Bredow, T. (2013), Generally applicable 
 solid-state Gaussian basis sets, in preparation                                
                                                                                
                    

 *******************************************************************************
 LOCAL ATOMIC FUNCTIONS BASIS SET
 *******************************************************************************
   ATOM   X(AU)   Y(AU)   Z(AU)  N. TYPE  EXPONENT  S COEF   P COEF   D/F/G COEF
 *******************************************************************************
   1 H   -0.370   7.135  -2.174
                                  1 S  
                                         2.263E+01 1.441E-02 0.000E+00 0.000E+00
                                         3.236E+00 1.072E-01 0.000E+00 0.000E+00
                                         7.304E-01 3.846E-01 0.000E+00 0.000E+00
                                  2 S  
                                         1.417E-01 1.000E+00 0.000E+00 0.000E+00
                           3-     5 P  
                                         3.944E-01 0.000E+00 1.000E+00 0.000E+00
                           6-     8 P  
                                         1.006E-01 0.000E+00 1.000E+00 0.000E+00
   2 H    0.370  -7.135  -2.174
   3 H    7.135   0.370   2.174
   4 H   -7.135  -0.370   2.174
   5 H   -2.044  -0.518  -2.902
   6 H    2.044   0.518  -2.902
   7 H   -0.518   2.044   2.902
   8 H    0.518  -2.044   2.902
   9 C   -4.364   6.410  -2.741
                                 65 S  
                                         1.238E+03 5.457E-03 0.000E+00 0.000E+00
                                         1.863E+02 4.064E-02 0.000E+00 0.000E+00
                                         4.225E+01 1.803E-01 0.000E+00 0.000E+00
                                         1.168E+01 4.632E-01 0.000E+00 0.000E+00
                                         3.593E+00 4.409E-01 0.000E+00 0.000E+00
                                 66 S  
                                         5.281E+00 1.000E+00 0.000E+00 0.000E+00
                                 67 S  
                                         4.447E-01 1.000E+00 0.000E+00 0.000E+00
                          68-    70 P  
                                         9.468E+00 0.000E+00 3.839E-02 0.000E+00
                                         2.010E+00 0.000E+00 2.112E-01 0.000E+00
                                         5.477E-01 0.000E+00 5.133E-01 0.000E+00
                          71-    73 P  
                                         1.604E-01 0.000E+00 1.000E+00 0.000E+00
                          74-    78 D  
                                         6.070E-01 0.000E+00 0.000E+00 1.000E+00
                          79-    83 D  
                                         2.939E-01 0.000E+00 0.000E+00 1.000E+00
  10 C    4.364  -6.410  -2.741
  11 C    6.410   4.364   2.741
  12 C   -6.410  -4.364   2.741
  13 C    5.289  -1.120   9.160
  14 C   -5.289   1.120   9.160
  15 C   -1.120  -5.289  -9.160
  16 C    1.120   5.289  -9.160
  17 C   -6.152   4.456  -2.964
  18 C    6.152  -4.456  -2.964
  19 C    4.456   6.152   2.964
  20 C   -4.456  -6.152   2.964
  21 C   -2.711   1.445  -2.832
  22 C    2.711  -1.445  -2.832
  23 C    1.445   2.711   2.832
  24 C   -1.445  -2.711   2.832
  25 C   -1.810   5.694  -2.489
  26 C    1.810  -5.694  -2.489
  27 C    5.694   1.810   2.489
  28 C   -5.694  -1.810   2.489
  29 C    5.300  -1.947  -2.979
  30 C   -5.300   1.947  -2.979
  31 C   -1.947  -5.300   2.979
  32 C    1.947   5.300   2.979
  33 N    7.024   0.486   8.141
                                521 S  
                                         1.713E+03-5.393E-03 0.000E+00 0.000E+00
                                         2.576E+02-4.022E-02 0.000E+00 0.000E+00
                                         5.846E+01-1.793E-01 0.000E+00 0.000E+00
                                         1.620E+01-4.638E-01 0.000E+00 0.000E+00
                                         5.005E+00-4.417E-01 0.000E+00 0.000E+00
                                522 S  
                                         6.217E-01 1.000E+00 0.000E+00 0.000E+00
                                523 S  
                                         2.921E-01 1.000E+00 0.000E+00 0.000E+00
                         524-   526 P  
                                         1.357E+01 0.000E+00-4.007E-02 0.000E+00
                                         2.926E+00 0.000E+00-2.181E-01 0.000E+00
                                         7.993E-01 0.000E+00-5.129E-01 0.000E+00
                         527-   529 P  
                                         2.244E-01 0.000E+00 1.000E+00 0.000E+00
                         530-   534 D  
                                         3.118E-01 0.000E+00 0.000E+00 1.000E+00
  34 N   -7.024  -0.486   8.141
  35 N    0.486  -7.024  -8.141
  36 N   -0.486   7.024  -8.141
  37 N   -4.182  -7.340  -3.812
  38 N    4.182   7.340  -3.812
  39 N   -7.340   4.182   3.812
  40 N    7.340  -4.182   3.812
  41 N    3.239   0.248   9.894
  42 N   -3.239  -0.248   9.894
  43 N    0.248  -3.239  -9.894
  44 N   -0.248   3.239  -9.894
  45 N   -6.435  -7.483  -2.769
  46 N    6.435   7.483  -2.769
  47 N   -7.483   6.435   2.769
  48 N    7.483  -6.435   2.769
  49 N   -0.992   3.300  -2.576
  50 N    0.992  -3.300  -2.576
  51 N    3.300   0.992   2.576
  52 N   -3.300  -0.992   2.576
  53 BR   0.904  -5.062   8.874
                                801 S  
                                         1.133E+05 1.428E-03 0.000E+00 0.000E+00
                                         1.701E+04 1.095E-02 0.000E+00 0.000E+00
                                         3.870E+03 5.442E-02 0.000E+00 0.000E+00
                                         1.093E+03 1.905E-01 0.000E+00 0.000E+00
                                         3.564E+02 3.902E-01 0.000E+00 0.000E+00
                                         1.231E+02 3.081E-01 0.000E+00 0.000E+00
                                802 S  
                                         2.367E+02-1.123E-01 0.000E+00 0.000E+00
                                         2.847E+01 6.478E-01 0.000E+00 0.000E+00
                                         1.188E+01 4.424E-01 0.000E+00 0.000E+00
                                803 S  
                                         2.127E+01-2.264E-01 0.000E+00 0.000E+00
                                         3.613E+00 7.382E-01 0.000E+00 0.000E+00
                                         1.663E+00 4.268E-01 0.000E+00 0.000E+00
                                804 S  
                                         3.641E-01 1.000E+00 0.000E+00 0.000E+00
                                805 S  
                                         1.243E-01 1.000E+00 0.000E+00 0.000E+00
                         806-   808 P  
                                         1.560E+03 0.000E+00 8.717E-03 0.000E+00
                                         3.685E+02 0.000E+00 6.624E-02 0.000E+00
                                         1.172E+02 0.000E+00 2.650E-01 0.000E+00
                                         4.265E+01 0.000E+00 5.384E-01 0.000E+00
                                         1.609E+01 0.000E+00 3.658E-01 0.000E+00
                         809-   811 P  
                                         8.635E+00 0.000E+00 3.425E-01 0.000E+00
                                         3.561E+00 0.000E+00 5.750E-01 0.000E+00
                                         1.529E+00 0.000E+00 2.433E-01 0.000E+00
                         812-   814 P  
                                         6.447E-01 0.000E+00 1.000E+00 0.000E+00
                         815-   817 P  
                                         2.103E-01 0.000E+00 1.000E+00 0.000E+00
                         818-   822 D  
                                         1.049E+02 0.000E+00 0.000E+00 2.265E-02
                                         3.028E+01 0.000E+00 0.000E+00 1.346E-01
                                         1.065E+01 0.000E+00 0.000E+00 3.647E-01
                                         3.870E+00 0.000E+00 0.000E+00 4.904E-01
                         823-   827 D  
                                         1.342E+00 0.000E+00 0.000E+00 1.000E+00
                         828-   832 D  
                                         4.101E-01 0.000E+00 0.000E+00 1.000E+00
                         833-   837 D  
                                         1.985E-01 0.000E+00 0.000E+00 1.000E+00
  54 BR  -0.904   5.062   8.874
  55 BR  -5.062  -0.904  -8.874
  56 BR   5.062   0.904  -8.874
  57 BR  -7.339  -0.582  -3.157
  58 BR   7.339   0.582  -3.157
  59 BR  -0.582   7.339   3.157
  60 BR   0.582  -7.339   3.157
  61 ZN  10.222   0.000 -18.158
                               1097 S  
                                         8.200E+04 1.421E-03 0.000E+00 0.000E+00
                                         1.231E+04 1.089E-02 0.000E+00 0.000E+00
                                         2.801E+03 5.406E-02 0.000E+00 0.000E+00
                                         7.910E+02 1.885E-01 0.000E+00 0.000E+00
                                         2.576E+02 3.835E-01 0.000E+00 0.000E+00
                                         8.881E+01 2.972E-01 0.000E+00 0.000E+00
                               1098 S  
                                         1.719E+02-1.105E-01 0.000E+00 0.000E+00
                                         2.030E+01 6.461E-01 0.000E+00 0.000E+00
                                         8.346E+00 4.422E-01 0.000E+00 0.000E+00
                               1099 S  
                                         1.485E+01-2.271E-01 0.000E+00 0.000E+00
                                         2.450E+00 7.243E-01 0.000E+00 0.000E+00
                                         9.985E-01 4.484E-01 0.000E+00 0.000E+00
                               1100 S  
                                         1.493E+00 1.000E+00 0.000E+00 0.000E+00
                               1101 S  
                                         1.830E-01 1.000E+00 0.000E+00 0.000E+00
                        1102-  1104 P  
                                         1.072E+03 0.000E+00 9.277E-03 0.000E+00
                                         2.527E+02 0.000E+00 6.954E-02 0.000E+00
                                         8.010E+01 0.000E+00 2.716E-01 0.000E+00
                                         2.890E+01 0.000E+00 5.340E-01 0.000E+00
                                         1.077E+01 0.000E+00 3.450E-01 0.000E+00
                        1105-  1107 P  
                                         5.645E+00 0.000E+00 3.413E-01 0.000E+00
                                         2.168E+00 0.000E+00 5.639E-01 0.000E+00
                                         8.054E-01 0.000E+00 2.368E-01 0.000E+00
                        1108-  1110 P  
                                         2.721E-01 0.000E+00 1.000E+00 0.000E+00
                        1111-  1115 D  
                                         5.609E+01 0.000E+00 0.000E+00 2.959E-02
                                         1.575E+01 0.000E+00 0.000E+00 1.587E-01
                                         5.312E+00 0.000E+00 0.000E+00 3.798E-01
                                         1.774E+00 0.000E+00 0.000E+00 4.690E-01
                        1116-  1120 D  
                                         5.073E-01 0.000E+00 0.000E+00 1.000E+00
                        1121-  1127 F  
                                         2.814E+00 0.000E+00 0.000E+00 1.000E+00
                        1128-  1134 F  
                                         1.300E+00 0.000E+00 0.000E+00 1.000E+00
  62 ZN  -0.000  -0.000  12.106

 *******************************************************************************
 FINISHED BASIS SET HANDLING 
 *******************************************************************************

 INFORMATION **** SET_MPP **** PCRYSTAL CALCULATION
 INFORMATION **** READM2 **** NEW DEFAULT: FOCK/KS MATRIX MIXING SET TO 30 %
 INFORMATION **** READM2 **** NEW DEFAULT: FULL DIRECT SCF MODE
 INFORMATION **** READM2 **** NEW DEFAULT: COULOMB BIPOLAR BUFFER SET TO 32 Mb
 INFORMATION **** READM2 **** NEW DEFAULT: EXCHANGE BIPOLAR BUFFER SET TO 32 Mb

 *******************************************************************************
 NEW DEFAULT: DFT INTEGRATION GRID INCREASED TO XLGRID
 NEW DEFAULT: DIIS ACCELERATOR ACTIVE
 USE KEYWORD NODIIS TO TURN IT OFF
 *******************************************************************************

 INFORMATION **** DFTD3_INPUT **** PERFORM DISPERSION CORRECTION DFT-D3(BJ) IN THE BECKE-JOHNSON DAMPING SCHEME

 PLEASE CITE:
 (1) DFT-D3 Reference
  S. Grimme, J. Antony, S. Ehrlich, and H. Krieg, J. Chem. Phys. 132 (2010), 154104
 (2) BJ-Damping Reference
  S. Grimme, S. Ehrlich, and L. Goerigk, J. Comput. Chem. 32 (2011), 1456-1465
 (3) General DFT-D Review
  S. Grimme, A. Hansen, J. G. Brandenburg, and C. Bannwarth,
  Chem. Rev. 116 (2016), 5105-5154

 INFORMATION **** BIPOSIZE **** COULOMB BIPOLAR BUFFER SET TO    30000000
 INFORMATION **** EXCHSIZE **** EXCHANGE BIPOLAR BUFFER SIZE SET TO    30000000
 INFORMATION **** TOLINTEG **** COULOMB AND EXCHANGE SERIES TOLERANCES MODIFIED
 INFORMATION **** MAXCYCLE **** MAX NUMBER OF SCF CYCLES SET TO        1000
 *******************************************************************************
 N. OF ATOMS PER CELL        62  COULOMB OVERLAP TOL         (T1) 10**  -12
 NUMBER OF SHELLS           448  COULOMB PENETRATION TOL     (T2) 10**  -12
 NUMBER OF AO              1172  EXCHANGE OVERLAP TOL        (T3) 10**   20
 N. OF ELECTRONS PER CELL   632  EXCHANGE PSEUDO OVP (F(G))  (T4) 10**   20
 CORE ELECTRONS PER CELL    348  EXCHANGE PSEUDO OVP (P(G))  (T5) 10**   20
 N. OF SYMMETRY OPERATORS     4  POLE ORDER IN MONO ZONE                  4
 *******************************************************************************
 TYPE OF CALCULATION :  RESTRICTED CLOSED SHELL
 KOHN-SHAM HAMILTONIAN

 (EXCHANGE)[CORRELATION] FUNCTIONAL:(PERDEW-BURKE-ERNZERHOF)[PERDEW-BURKE-ERNZERHOF]


 CAPPA:IS1  3;IS2  3;IS3  3; K PTS MONK NET   6; SYMMOPS:K SPACE   8;G SPACE   4

 *******************************************************************************
 MAX NUMBER OF SCF CYCLES    1000  CONVERGENCE ON DELTAP        10**-16
 WEIGHT OF F(I) IN F(I+1)      30% CONVERGENCE ON ENERGY        10**- 7
 SHRINK. FACT.(MONKH.)    3  3  3  NUMBER OF K POINTS IN THE IBZ      6
 SHRINKING FACTOR(GILAT NET)    3  NUMBER OF K POINTS(GILAT NET)      6
 *******************************************************************************
 *** K POINTS COORDINATES (OBLIQUE COORDINATES IN UNITS OF IS =  3)
   1-R(  0  0  0)   2-C(  1  0  0)   3-C(  1  1  0)   4-C(  2  1  0)
   5-C(  2  1  1)   6-C(  2  2  1)

 DIRECT LATTICE VECTORS COMPON. (A.U.)     RECIP. LATTICE VECTORS COMPON. (A.U.) 
        X            Y            Z              X            Y            Z
  -10.2224735   10.2224735   12.1055856      0.0000000    0.3073222    0.2595160
   10.2224735  -10.2224735   12.1055856      0.3073222    0.0000000    0.2595160
   10.2224735   10.2224735  -12.1055856      0.3073222    0.3073222    0.0000000

 DISK SPACE FOR EIGENVECTORS (FTN 10)    15109424 REALS

 SYMMETRY ADAPTION OF THE BLOCH FUNCTIONS ENABLED
 TTTTTTTTTTTTTTTTTTTTTTTTTTTTTT gordsh1     TELAPSE        3.37 TCPU        0.07

 MATRIX SIZE: P(G) 2171296, F(G) 1086458, P(G) IRR  274193, F(G) IRR  274193
 MAX G-VECTOR INDEX FOR 1- AND 2-ELECTRON INTEGRALS  59

 TTTTTTTTTTTTTTTTTTTTTTTTTTTTTT INPUT       TELAPSE        3.42 TCPU        0.12

 NEIGHBORS OF THE NON-EQUIVALENT ATOMS

 N = NUMBER OF NEIGHBORS AT DISTANCE R
    ATOM  N     R/ANG      R/AU   NEIGHBORS (ATOM LABELS AND CELL INDICES)
   1 H    1     1.0908     2.0612   25 C    0 0 0
   1 H    1     2.0670     3.9061   49 N    0 0 0
   1 H    1     2.1686     4.0980    9 C    0 0 0
   1 H    1     2.5222     4.7662   34 N    0 0 1
   1 H    1     2.5627     4.8429   38 N    0 0 0
   1 H    1     2.5910     4.8962   33 N    0-1 0

   5 H    1     1.0976     2.0742   21 C    0 0 0
   5 H    1     2.1026     3.9733   49 N    0 0 0
   5 H    1     2.1611     4.0839   30 C    0 0 0
   5 H    1     2.1861     4.1312   50 N    0 0 0
   5 H    1     2.2321     4.2180    6 H    0 0 0
   5 H    1     2.5643     4.8458   22 C    0 0 0

   9 C    1     1.4066     2.6580   17 C    0 0 0
   9 C    1     1.4099     2.6643   25 C    0 0 0
   9 C    1     1.4605     2.7599   13 C    0-1 0
   9 C    1     2.1686     4.0980    1 H    0 0 0
   9 C    1     2.4161     4.5658   30 C    0 0 0
   9 C    1     2.4289     4.5899   49 N    0 0 0

  13 C    1     1.3609     2.5717   41 N    0 0 0
  13 C    1     1.3622     2.5742   33 N    0 0 0
  13 C    1     1.4605     2.7599    9 C    0 1 0
  13 C    1     2.1936     4.1452   45 N    1 1 1
  13 C    1     2.2035     4.1640   37 N    1 1 1
  13 C    1     2.4585     4.6459   25 C    0 1 0

  17 C    1     1.4020     2.6494   30 C    0 0 0
  17 C    1     1.4066     2.6580    9 C    0 0 0
  17 C    1     1.7226     3.2553   53 BR   0-1 0
  17 C    1     2.4025     4.5400   25 C    0 0 0
  17 C    1     2.4203     4.5737   21 C    0 0 0
  17 C    1     2.5420     4.8036   13 C    0-1 0

  21 C    1     1.0976     2.0742    5 H    0 0 0
  21 C    1     1.3451     2.5418   49 N    0 0 0
  21 C    1     1.3975     2.6408   30 C    0 0 0
  21 C    1     2.3054     4.3566   25 C    0 0 0
  21 C    1     2.4203     4.5737   17 C    0 0 0
  21 C    1     2.5643     4.8458    6 H    0 0 0

  25 C    1     1.0908     2.0612    1 H    0 0 0
  25 C    1     1.3395     2.5312   49 N    0 0 0
  25 C    1     1.4099     2.6643    9 C    0 0 0
  25 C    1     2.3054     4.3566   21 C    0 0 0
  25 C    1     2.4025     4.5400   17 C    0 0 0
  25 C    1     2.4585     4.6459   13 C    0-1 0

  29 C    1     1.3975     2.6408   22 C    0 0 0
  29 C    1     1.4020     2.6494   18 C    0 0 0
  29 C    1     1.7218     3.2537   58 BR   0 0 0
  29 C    1     2.1611     4.0839    6 H    0 0 0
  29 C    1     2.3988     4.5330   50 N    0 0 0
  29 C    1     2.4161     4.5658   10 C    0 0 0

  33 N    1     1.3622     2.5742   13 C    0 0 0
  33 N    1     1.3737     2.5958   37 N    1 1 1
  33 N    1     2.0377     3.8507   61 ZN   1 1 0
  33 N    1     2.1808     4.1212   45 N    1 1 1
  33 N    1     2.2110     4.1783   41 N    0 0 0
  33 N    1     2.4441     4.6186    9 C    0 1 0

  37 N    1     1.3159     2.4866   45 N    0 0 0
  37 N    1     1.3737     2.5958   33 N   -1-1-1
  37 N    1     2.2035     4.1640   13 C   -1-1-1
  37 N    1     2.2045     4.1659   41 N   -1-1-1
  37 N    1     2.5627     4.8429    2 H    0 0 0
  37 N    1     2.9381     5.5521   61 ZN   0 0-1

  41 N    1     1.3609     2.5717   13 C    0 0 0
  41 N    1     1.3821     2.6118   45 N    1 1 1
  41 N    1     2.0793     3.9294   62 ZN   0 0 0
  41 N    1     2.2045     4.1659   37 N    1 1 1
  41 N    1     2.2110     4.1783   33 N    0 0 0
  41 N    1     2.5724     4.8612    9 C    0 1 0

  45 N    1     1.3159     2.4866   37 N    0 0 0
  45 N    1     1.3821     2.6118   41 N   -1-1-1
  45 N    1     2.1808     4.1212   33 N   -1-1-1
  45 N    1     2.1936     4.1452   13 C   -1-1-1
  45 N    1     2.7808     5.2549   54 BR  -1-1-1
  45 N    1     2.8749     5.4328   62 ZN  -1-1-1

  49 N    1     1.3395     2.5312   25 C    0 0 0
  49 N    1     1.3451     2.5418   21 C    0 0 0
  49 N    1     2.0670     3.9061    1 H    0 0 0
  49 N    1     2.1026     3.9733    5 H    0 0 0
  49 N    1     2.1861     4.1312    6 H    0 0 0
  49 N    1     2.3988     4.5330   30 C    0 0 0

  53 BR   1     1.7226     3.2553   17 C    0 1 0
  53 BR   1     2.7166     5.1337    9 C    0 1 0
  53 BR   1     2.7261     5.1517   30 C    0 1 0
  53 BR   1     2.7808     5.2549   46 N    0 0-1
  53 BR   1     3.0572     5.7772   43 N    1 1 0
  53 BR   1     3.1167     5.8897   41 N    0 0 0

  57 BR   1     1.7218     3.2537   30 C    0 0 0
  57 BR   1     2.6791     5.0628   21 C    0 0 0
  57 BR   1     2.7407     5.1792   17 C    0 0 0
  57 BR   1     2.8052     5.3011    5 H    0 0 0
  57 BR   1     2.8251     5.3387    4 H    0 0 0
  57 BR   1     3.1131     5.8830   58 BR   0-1-1

  61 ZN   4     2.0377     3.8507   33 N   -1-1 0   34 N   -1 0 1   35 N    0 0 1
                                    36 N   -1 0 0
  61 ZN   4     2.6308     4.9714    1 H   -1 0 0    2 H    0 0 1    3 H   -1-1 0
                                     4 H   -1 0 1
  61 ZN   4     2.9381     5.5521   37 N    0 0 1   38 N   -1 0 0   39 N   -1 0 1
                                    40 N   -1-1 0
  61 ZN   4     3.1417     5.9370   13 C   -1-1 0   14 C   -1 0 1   15 C    0 0 1
                                    16 C   -1 0 0
  61 ZN   4     3.1963     6.0401   25 C   -1 0 0   26 C    0 0 1   27 C   -1-1 0
                                    28 C   -1 0 1
  61 ZN   4     3.5320     6.6746    9 C   -1 0 0   10 C    0 0 1   11 C   -1-1 0
                                    12 C   -1 0 1

  62 ZN   4     2.0793     3.9294   41 N    0 0 0   42 N    0 0 0   43 N    1 1 0
                                    44 N    1 1 0
  62 ZN   4     2.8749     5.4328   45 N    1 1 1   46 N    0 0-1   47 N    0 1 0
                                    48 N    1 0 0
  62 ZN   4     3.2139     6.0733   53 BR   0 0 0   54 BR   0 0 0   55 BR   1 1 0
                                    56 BR   1 1 0
  62 ZN   4     3.2580     6.1567   13 C    0 0 0   14 C    0 0 0   15 C    1 1 0
                                    16 C    1 1 0
  62 ZN   4     3.9732     7.5082    9 C    0 1 0   10 C    1 0 0   11 C    0 0-1
                                    12 C    1 1 1
  62 ZN   4     4.0512     7.6557   17 C    0 1 0   18 C    1 0 0   19 C    0 0-1
                                    20 C    1 1 1


 SYMMETRY ALLOWED ELASTIC DISTORTION 1
  0.5773503  0.0000000  0.0000000
  0.0000000  0.5773503  0.0000000
  0.0000000  0.0000000  0.5773503

 SYMMETRY ALLOWED ELASTIC DISTORTION 2
  0.4082483  0.0000000  0.0000000
  0.0000000  0.4082483  0.0000000
  0.0000000  0.0000000 -0.8164966

 SYMMETRY ALLOWED INTERNAL DEGREE(S) OF FREEDOM:  45
 TTTTTTTTTTTTTTTTTTTTTTTTTTTTTT SYMM        TELAPSE        3.77 TCPU        0.47
 TTTTTTTTTTTTTTTTTTTTTTTTTTTTTT INT_SCREEN  TELAPSE        3.78 TCPU        0.48

 *******************************************************************************
 *                             OPTIMIZATION STARTS                             *
 *******************************************************************************
 RECLASIFICATION OF INDICES FOR INTEGRAL CALC ACCORDING TO DIFFERENT CRITERIA:
           FIXDELTE                  FIXDELTX              FIXDELTN
          0.10000000               0.80000000                 47
 DEFAULT MAX NUM OF POINTS  100
 *******************************************************************************

 *******************************************************************************
 COORDINATE AND CELL OPTIMIZATION - POINT    1
 INFORMATION **** EXCBUF **** EXCH. BIPO BUFFER: WORDS USED =           0

 DFT PARAMETERS

     ATOM       ELECTRONS   NET CHARGE   R(ANGSTROM)
   1   1  H       1.0000      0.0000     1.11000000
   9   6  C       6.0000      0.0000     0.77000000
  33   7  N       7.0000      0.0000     0.74000000
  53  35  BR     35.0000      0.0000     1.14000000
  61  30  ZN     30.0000      0.0000     1.37000000

 SIZE OF GRID=     452854
 TTTTTTTTTTTTTTTTTTTTTTTTTTTTTT MAKE_GRID2  TELAPSE        9.79 TCPU        6.45
 BECKE WEIGHT FUNCTION
 RADSAFE =     2.00
 TOLERANCES - DENSITY:10**- 6; POTENTIAL:10**- 9; GRID WGT:10**-14

 RADIAL INTEGRATION  - INTERVALS (POINTS,UPPER LIMIT):            1( 75,  4.0*R)

 ANGULAR INTEGRATION - INTERVALS (ACCURACY LEVEL [N. POINTS] UPPER LIMIT):
  1(  4[  86]   0.2)  2(  8[ 194]   0.5)  3( 12[ 350]   0.9)  4( 16[ 974]   3.5)
  5( 12[ 350]9999.0)
 TTTTTTTTTTTTTTTTTTTTTTTTTTTTTT INT_CALC    TELAPSE        9.87 TCPU        6.53

 *******************************************************************************
 C:\Users\wilso\AppData\Local\Temp\tmp_p\newconn.mol                             
 CRYSTAL - SCF - TYPE OF CALCULATION :  RESTRICTED CLOSED SHELL
 *******************************************************************************

 CAPPA:IS1  3;IS2  3;IS3  3; K PTS MONK NET   6; SYMMOPS:K SPACE   8;G SPACE   4

 TTTTTTTTTTTTTTTTTTTTTTTTTTTTTT SDIK        TELAPSE       10.12 TCPU        6.78

 AAAAAAAAAAAAAAAAAAAAAAAAAAAAAAAAAAAAAAAAAAAAAAAAAAAAAAAAAAAAAAAAAAAAAAAAAAAAAAA
         ATOMIC WAVEFUNCTION(S)


 NUCLEAR CHARGE  1.0  SYMMETRY SPECIES            S
 N. ELECTRONS    1.0  NUMBER OF PRIMITIVE GTOS    4
                      NUMBER OF CONTRACTED GTOS   2
                      NUMBER OF CLOSED SHELLS     0
                      OPEN SHELL OCCUPATION       1

  ZNUC SCFIT  TOTAL HF ENERGY   KINETIC ENERGY   VIRIAL THEOREM ACCURACY
   1.0   1   -4.946643675E-01  4.917913167E-01 -2.005842012E+00  9.4E-17

 NUCLEAR CHARGE  6.0  SYMMETRY SPECIES            S    P
 N. ELECTRONS    6.0  NUMBER OF PRIMITIVE GTOS    7    4
                      NUMBER OF CONTRACTED GTOS   3    2
                      NUMBER OF CLOSED SHELLS     2    0
                      OPEN SHELL OCCUPATION       0    2

  ZNUC SCFIT  TOTAL HF ENERGY   KINETIC ENERGY   VIRIAL THEOREM ACCURACY
   6.0   6   -3.750912652E+01  3.905246519E+01 -1.960480378E+00  3.7E-06

 NUCLEAR CHARGE  7.0  SYMMETRY SPECIES            S    P
 N. ELECTRONS    7.0  NUMBER OF PRIMITIVE GTOS    7    4
                      NUMBER OF CONTRACTED GTOS   3    2
                      NUMBER OF CLOSED SHELLS     2    0
                      OPEN SHELL OCCUPATION       0    3

  ZNUC SCFIT  TOTAL HF ENERGY   KINETIC ENERGY   VIRIAL THEOREM ACCURACY
   7.0   9   -5.432196661E+01  5.425066284E+01 -2.001314339E+00  1.2E-06

 NUCLEAR CHARGE 35.0  SYMMETRY SPECIES            S    P    D
 N. ELECTRONS   35.0  NUMBER OF PRIMITIVE GTOS   14   10    7
                      NUMBER OF CONTRACTED GTOS   5    4    4
                      NUMBER OF CLOSED SHELLS     4    2    1
                      OPEN SHELL OCCUPATION       0    5    0

  ZNUC SCFIT  TOTAL HF ENERGY   KINETIC ENERGY   VIRIAL THEOREM ACCURACY
  35.0  13   -2.572060514E+03  2.572021521E+03 -2.000015161E+00  3.6E-06

 NUCLEAR CHARGE 30.0  SYMMETRY SPECIES            S    P    D
 N. ELECTRONS   30.0  NUMBER OF PRIMITIVE GTOS   14    9    5
                      NUMBER OF CONTRACTED GTOS   5    3    2
                      NUMBER OF CLOSED SHELLS     4    2    1
                      OPEN SHELL OCCUPATION       0    0    0

  ZNUC SCFIT  TOTAL HF ENERGY   KINETIC ENERGY   VIRIAL THEOREM ACCURACY
  30.0  10   -1.777404290E+03  1.777325716E+03 -2.000044209E+00  2.5E-06

 AAAAAAAAAAAAAAAAAAAAAAAAAAAAAAAAAAAAAAAAAAAAAAAAAAAAAAAAAAAAAAAAAAAAAAAAAAAAAAA

 CHARGE NORMALIZATION FACTOR   1.00000000
 TOTAL ATOMIC CHARGES:
   1.0000000   1.0000000   1.0000000   1.0000000   1.0000000   1.0000000
   1.0000000   1.0000000   6.0000000   6.0000000   6.0000000   6.0000000
   6.0000000   6.0000000   6.0000000   6.0000000   6.0000000   6.0000000
   6.0000000   6.0000000   6.0000000   6.0000000   6.0000000   6.0000000
   6.0000000   6.0000000   6.0000000   6.0000000   6.0000000   6.0000000
   6.0000000   6.0000000   7.0000000   7.0000000   7.0000000   7.0000000
   7.0000000   7.0000000   7.0000000   7.0000000   7.0000000   7.0000000
   7.0000000   7.0000000   7.0000000   7.0000000   7.0000000   7.0000000
   7.0000000   7.0000000   7.0000000   7.0000000  35.0000000  35.0000000
  35.0000000  35.0000000  35.0000000  35.0000000  35.0000000  35.0000000
  30.0000000  30.0000000
 TTTTTTTTTTTTTTTTTTTTTTTTTTTTTT MOQGAD      TELAPSE       13.05 TCPU        9.67
 TTTTTTTTTTTTTTTTTTTTTTTTTTTTTT SHELLXN     TELAPSE       33.78 TCPU       27.98
 TTTTTTTTTTTTTTTTTTTTTTTTTTTTTT MONMO3      TELAPSE       37.45 TCPU       31.63
 NUMERICALLY INTEGRATED DENSITY    632.0000807467
 TTTTTTTTTTTTTTTTTTTTTTTTTTTTTT NUMDFT      TELAPSE       37.99 TCPU       32.18
 CYC   0 ETOT(AU) -2.616134525256E+04 DETOT -2.62E+04 tst  0.00E+00 PX  1.00E+00
 TTTTTTTTTTTTTTTTTTTTTTTTTTTTTT DIIS        TELAPSE       38.05 TCPU       32.24
 TTTTTTTTTTTTTTTTTTTTTTTTTTTTTT FDIK        TELAPSE       55.65 TCPU       43.84
 INSULATING STATE
 TOP OF VALENCE BANDS -    BAND    316; K    4; EIG -1.3375570E-01 AU
 TOP OF VALENCE BANDS -    BAND    316; K    1; EIG -1.3395840E-01 AU
 BOTTOM OF VIRTUAL BANDS - BAND    317; K    5; EIG -9.6506915E-02 AU
 INDIRECT ENERGY BAND GAP:   1.0136 eV
 BOTTOM OF VIRTUAL BANDS - BAND    317; K    1; EIG -9.3308388E-02 AU
 TTTTTTTTTTTTTTTTTTTTTTTTTTTTTT PDIG        TELAPSE       56.29 TCPU       44.48
 CHARGE NORMALIZATION FACTOR   1.00000000
 TOTAL ATOMIC CHARGES:
   1.4040413   1.4040413   1.4040413   1.4040413   1.2530235   1.2530235
   1.2530235   1.2530235   6.1032742   6.1032742   6.1032742   6.1032742
   5.4735514   5.4735514   5.4735514   5.4735514   5.7903663   5.7903663
   5.7903663   5.7903663   5.8430718   5.8430718   5.8430718   5.8430718
   5.8735790   5.8735790   5.8735790   5.8735790   5.6923920   5.6923920
   5.6923920   5.6923920   7.3922234   7.3922234   7.3922234   7.3922234
   7.1966553   7.1966553   7.1966553   7.1966553   7.4224516   7.4224516
   7.4224516   7.4224516   7.1366660   7.1366660   7.1366660   7.1366660
   7.5032095   7.5032095   7.5032095   7.5032095  35.0072013  35.0072013
  35.0072013  35.0072013  35.0102961  35.0102961  35.0102961  35.0102961
  27.6783761  27.9136133
 TTTTTTTTTTTTTTTTTTTTTTTTTTTTTT MOQGAD      TELAPSE       56.31 TCPU       44.49
 TTTTTTTTTTTTTTTTTTTTTTTTTTTTTT SHELLXN     TELAPSE       81.92 TCPU       66.72
 TTTTTTTTTTTTTTTTTTTTTTTTTTTTTT MONMO3      TELAPSE       83.83 TCPU       68.62
 NUMERICALLY INTEGRATED DENSITY    632.0000595657
 TTTTTTTTTTTTTTTTTTTTTTTTTTTTTT NUMDFT      TELAPSE       85.27 TCPU       70.06
 CYC   1 ETOT(AU) -2.615446188651E+04 DETOT  6.88E+00 tst  0.00E+00 PX  1.00E+00
 TTTTTTTTTTTTTTTTTTTTTTTTTTTTTT DIIS        TELAPSE       85.40 TCPU       70.19
 DIIS TEST: 0.12131E+02 AT SCF   CYCLE   1 - MIX   30 %
 TTTTTTTTTTTTTTTTTTTTTTTTTTTTTT FDIK        TELAPSE       92.15 TCPU       74.81
 INSULATING STATE
 TOP OF VALENCE BANDS -    BAND    316; K    4; EIG -1.0850383E-01 AU
 TOP OF VALENCE BANDS -    BAND    316; K    1; EIG -1.1181745E-01 AU
 BOTTOM OF VIRTUAL BANDS - BAND    317; K    2; EIG -1.0759946E-01 AU
 INDIRECT ENERGY BAND GAP:   0.0246 eV
 BOTTOM OF VIRTUAL BANDS - BAND    317; K    1; EIG -1.0600786E-01 AU
 TTTTTTTTTTTTTTTTTTTTTTTTTTTTTT PDIG        TELAPSE       92.79 TCPU       75.44
 CHARGE NORMALIZATION FACTOR   1.00000000
 TOTAL ATOMIC CHARGES:
   1.4207780   1.4207780   1.4207780   1.4207780   1.1955863   1.1955863
   1.1955863   1.1955863   6.2062914   6.2062914   6.2062914   6.2062914
   6.3389047   6.3389047   6.3389047   6.3389047   6.3736155   6.3736155
   6.3736155   6.3736155   5.9071909   5.9071909   5.9071909   5.9071909
   6.2572896   6.2572896   6.2572896   6.2572896   5.9021627   5.9021627
   5.9021627   5.9021627   7.0832582   7.0832582   7.0832582   7.0832582
   6.8366565   6.8366565   6.8366565   6.8366565   7.0715270   7.0715270
   7.0715270   7.0715270   6.9111268   6.9111268   6.9111268   6.9111268
   5.4535336   5.4535336   5.4535336   5.4535336  35.1393300  35.1393300
  35.1393300  35.1393300  35.0153393  35.0153393  35.0153393  35.0153393
  29.9160544  29.6335837
 TTTTTTTTTTTTTTTTTTTTTTTTTTTTTT MOQGAD      TELAPSE       92.81 TCPU       75.46
 TTTTTTTTTTTTTTTTTTTTTTTTTTTTTT SHELLXN     TELAPSE      118.02 TCPU       97.68
 TTTTTTTTTTTTTTTTTTTTTTTTTTTTTT MONMO3      TELAPSE      120.86 TCPU      100.52
 NUMERICALLY INTEGRATED DENSITY    632.0000559870
 TTTTTTTTTTTTTTTTTTTTTTTTTTTTTT NUMDFT      TELAPSE      122.28 TCPU      101.93
 CYC   2 ETOT(AU) -2.615092619671E+04 DETOT  3.54E+00 tst  4.75E-02 PX  9.35E-01
 TTTTTTTTTTTTTTTTTTTTTTTTTTTTTT DIIS        TELAPSE      122.42 TCPU      102.06
 DIIS TEST: 0.38120E+02 AT SCF   CYCLE   2 - DIIS ACTIVE - HISTORY:     2 CYCLES
 TTTTTTTTTTTTTTTTTTTTTTTTTTTTTT FDIK        TELAPSE      128.66 TCPU      106.46
 INSULATING STATE
 TOP OF VALENCE BANDS -    BAND    316; K    4; EIG -2.1502931E-01 AU
 TOP OF VALENCE BANDS -    BAND    316; K    1; EIG -2.1930855E-01 AU
 BOTTOM OF VIRTUAL BANDS - BAND    317; K    6; EIG -1.2446904E-01 AU
 INDIRECT ENERGY BAND GAP:   2.4643 eV
 BOTTOM OF VIRTUAL BANDS - BAND    317; K    1; EIG -1.2308169E-01 AU
 TTTTTTTTTTTTTTTTTTTTTTTTTTTTTT PDIG        TELAPSE      129.30 TCPU      107.09
 CHARGE NORMALIZATION FACTOR   1.00000000
 TOTAL ATOMIC CHARGES:
   1.2994630   1.2994630   1.2994630   1.2994630   1.1681068   1.1681068
   1.1681068   1.1681068   5.8093233   5.8093233   5.8093233   5.8093233
   5.9444346   5.9444346   5.9444346   5.9444346   5.8484169   5.8484169
   5.8484169   5.8484169   6.1840133   6.1840133   6.1840133   6.1840133
   6.0234160   6.0234160   6.0234160   6.0234160   5.8023924   5.8023924
   5.8023924   5.8023924   6.8864624   6.8864624   6.8864624   6.8864624
   7.0964772   7.0964772   7.0964772   7.0964772   6.8523444   6.8523444
   6.8523444   6.8523444   7.0207765   7.0207765   7.0207765   7.0207765
   7.5035383   7.5035383   7.5035383   7.5035383  34.9595928  34.9595928
  34.9595928  34.9595928  34.8901117  34.8901117  34.8901117  34.8901117
  29.5051178  29.3394034
 TTTTTTTTTTTTTTTTTTTTTTTTTTTTTT MOQGAD      TELAPSE      129.32 TCPU      107.11
 TTTTTTTTTTTTTTTTTTTTTTTTTTTTTT SHELLXN     TELAPSE      154.45 TCPU      129.58
 TTTTTTTTTTTTTTTTTTTTTTTTTTTTTT MONMO3      TELAPSE      156.98 TCPU      132.10
 NUMERICALLY INTEGRATED DENSITY    632.0000693356
 TTTTTTTTTTTTTTTTTTTTTTTTTTTTTT NUMDFT      TELAPSE      158.44 TCPU      133.56
 CYC   3 ETOT(AU) -2.615513238071E+04 DETOT -4.21E+00 tst  1.36E+00 PX  4.09E-01
 TTTTTTTTTTTTTTTTTTTTTTTTTTTTTT DIIS        TELAPSE      158.57 TCPU      133.68
 DIIS TEST: 0.75277E+01 AT SCF   CYCLE   3 - DIIS ACTIVE - HISTORY:     3 CYCLES
 TTTTTTTTTTTTTTTTTTTTTTTTTTTTTT FDIK        TELAPSE      167.23 TCPU      142.16
 INSULATING STATE
 TOP OF VALENCE BANDS -    BAND    316; K    4; EIG -2.0292803E-01 AU
 TOP OF VALENCE BANDS -    BAND    316; K    1; EIG -2.0609911E-01 AU
 BOTTOM OF VIRTUAL BANDS - BAND    317; K    6; EIG -1.1712719E-01 AU
 INDIRECT ENERGY BAND GAP:   2.3348 eV
 BOTTOM OF VIRTUAL BANDS - BAND    317; K    1; EIG -1.1167647E-01 AU
 TTTTTTTTTTTTTTTTTTTTTTTTTTTTTT PDIG        TELAPSE      167.86 TCPU      142.79
 CHARGE NORMALIZATION FACTOR   1.00000000
 TOTAL ATOMIC CHARGES:
   1.3232302   1.3232302   1.3232302   1.3232302   1.1952606   1.1952606
   1.1952606   1.1952606   6.1644915   6.1644915   6.1644915   6.1644915
   5.7211577   5.7211577   5.7211577   5.7211577   6.0305354   6.0305354
   6.0305354   6.0305354   5.7339590   5.7339590   5.7339590   5.7339590
   6.0112144   6.0112144   6.0112144   6.0112144   5.7702556   5.7702556
   5.7702556   5.7702556   7.2150838   7.2150838   7.2150838   7.2150838
   7.0118466   7.0118466   7.0118466   7.0118466   7.3057094   7.3057094
   7.3057094   7.3057094   7.0724667   7.0724667   7.0724667   7.0724667
   6.9601326   6.9601326   6.9601326   6.9601326  35.0719134  35.0719134
  35.0719134  35.0719134  35.0425511  35.0425511  35.0425511  35.0425511
  28.7252674  28.7555009
 TTTTTTTTTTTTTTTTTTTTTTTTTTTTTT MOQGAD      TELAPSE      167.88 TCPU      142.81
 TTTTTTTTTTTTTTTTTTTTTTTTTTTTTT SHELLXN     TELAPSE      192.75 TCPU      165.30
 TTTTTTTTTTTTTTTTTTTTTTTTTTTTTT MONMO3      TELAPSE      195.61 TCPU      168.15
 NUMERICALLY INTEGRATED DENSITY    632.0000528691
 TTTTTTTTTTTTTTTTTTTTTTTTTTTTTT NUMDFT      TELAPSE      197.07 TCPU      169.60
 CYC   4 ETOT(AU) -2.615621337452E+04 DETOT -1.08E+00 tst  8.87E-03 PX  4.54E-01
 TTTTTTTTTTTTTTTTTTTTTTTTTTTTTT DIIS        TELAPSE      197.20 TCPU      169.72
 DIIS TEST: 0.14088E+01 AT SCF   CYCLE   4 - DIIS ACTIVE - HISTORY:     4 CYCLES
 TTTTTTTTTTTTTTTTTTTTTTTTTTTTTT FDIK        TELAPSE      204.72 TCPU      175.07
 INSULATING STATE
 TOP OF VALENCE BANDS -    BAND    316; K    4; EIG -2.0955983E-01 AU
 TOP OF VALENCE BANDS -    BAND    316; K    1; EIG -2.1371855E-01 AU
 BOTTOM OF VIRTUAL BANDS - BAND    317; K    6; EIG -1.2040040E-01 AU
 INDIRECT ENERGY BAND GAP:   2.4262 eV
 BOTTOM OF VIRTUAL BANDS - BAND    317; K    1; EIG -1.1489845E-01 AU
 TTTTTTTTTTTTTTTTTTTTTTTTTTTTTT PDIG        TELAPSE      205.36 TCPU      175.70
 CHARGE NORMALIZATION FACTOR   1.00000000
 TOTAL ATOMIC CHARGES:
   1.3229407   1.3229407   1.3229407   1.3229407   1.1845947   1.1845947
   1.1845947   1.1845947   6.0508048   6.0508048   6.0508048   6.0508048
   5.8053048   5.8053048   5.8053048   5.8053048   5.9980243   5.9980243
   5.9980243   5.9980243   5.9907204   5.9907204   5.9907204   5.9907204
   6.0834799   6.0834799   6.0834799   6.0834799   5.8097177   5.8097177
   5.8097177   5.8097177   7.2544053   7.2544053   7.2544053   7.2544053
   7.1629784   7.1629784   7.1629784   7.1629784   7.0679165   7.0679165
   7.0679165   7.0679165   6.9960055   6.9960055   6.9960055   6.9960055
   6.9322337   6.9322337   6.9322337   6.9322337  34.9962606  34.9962606
  34.9962606  34.9962606  34.9552585  34.9552585  34.9552585  34.9552585
  28.7936303  28.7637869
 TTTTTTTTTTTTTTTTTTTTTTTTTTTTTT MOQGAD      TELAPSE      205.38 TCPU      175.72
 TTTTTTTTTTTTTTTTTTTTTTTTTTTTTT SHELLXN     TELAPSE      229.11 TCPU      198.08
 TTTTTTTTTTTTTTTTTTTTTTTTTTTTTT MONMO3      TELAPSE      232.21 TCPU      201.16
 NUMERICALLY INTEGRATED DENSITY    632.0000564019
 TTTTTTTTTTTTTTTTTTTTTTTTTTTTTT NUMDFT      TELAPSE      233.67 TCPU      202.62
 CYC   5 ETOT(AU) -2.615635320838E+04 DETOT -1.40E-01 tst  7.30E-04 PX  1.29E-01
 TTTTTTTTTTTTTTTTTTTTTTTTTTTTTT DIIS        TELAPSE      233.80 TCPU      202.74
 DIIS TEST: 0.53242E+00 AT SCF   CYCLE   5 - DIIS ACTIVE - HISTORY:     5 CYCLES
 TTTTTTTTTTTTTTTTTTTTTTTTTTTTTT FDIK        TELAPSE      238.07 TCPU      206.79
 INSULATING STATE
 TOP OF VALENCE BANDS -    BAND    316; K    4; EIG -2.1164287E-01 AU
 TOP OF VALENCE BANDS -    BAND    316; K    1; EIG -2.1609797E-01 AU
 BOTTOM OF VIRTUAL BANDS - BAND    317; K    6; EIG -1.1811518E-01 AU
 INDIRECT ENERGY BAND GAP:   2.5450 eV
 BOTTOM OF VIRTUAL BANDS - BAND    317; K    1; EIG -1.1396845E-01 AU
 TTTTTTTTTTTTTTTTTTTTTTTTTTTTTT PDIG        TELAPSE      238.71 TCPU      207.42
 CHARGE NORMALIZATION FACTOR   1.00000000
 TOTAL ATOMIC CHARGES:
   1.3161928   1.3161928   1.3161928   1.3161928   1.1830076   1.1830076
   1.1830076   1.1830076   6.0532136   6.0532136   6.0532136   6.0532136
   5.8097697   5.8097697   5.8097697   5.8097697   6.0012803   6.0012803
   6.0012803   6.0012803   5.9144616   5.9144616   5.9144616   5.9144616
   6.0191375   6.0191375   6.0191375   6.0191375   5.7886900   5.7886900
   5.7886900   5.7886900   7.1111911   7.1111911   7.1111911   7.1111911
   7.0227374   7.0227374   7.0227374   7.0227374   7.2111434   7.2111434
   7.2111434   7.2111434   7.0992223   7.0992223   7.0992223   7.0992223
   7.0386980   7.0386980   7.0386980   7.0386980  35.0364582  35.0364582
  35.0364582  35.0364582  34.9829080  34.9829080  34.9829080  34.9829080
  28.8273071  28.8202475
 TTTTTTTTTTTTTTTTTTTTTTTTTTTTTT MOQGAD      TELAPSE      238.73 TCPU      207.43
 TTTTTTTTTTTTTTTTTTTTTTTTTTTTTT SHELLXN     TELAPSE      263.64 TCPU      229.99
 TTTTTTTTTTTTTTTTTTTTTTTTTTTTTT MONMO3      TELAPSE      266.31 TCPU      232.65
 NUMERICALLY INTEGRATED DENSITY    632.0000570611
 TTTTTTTTTTTTTTTTTTTTTTTTTTTTTT NUMDFT      TELAPSE      267.75 TCPU      234.08
 CYC   6 ETOT(AU) -2.615641685019E+04 DETOT -6.36E-02 tst  4.38E-04 PX  4.87E-02
 TTTTTTTTTTTTTTTTTTTTTTTTTTTTTT DIIS        TELAPSE      267.90 TCPU      234.22
 DIIS TEST: 0.11075E+00 AT SCF   CYCLE   6 - DIIS ACTIVE - HISTORY:     6 CYCLES
 TTTTTTTTTTTTTTTTTTTTTTTTTTTTTT FDIK        TELAPSE      272.44 TCPU      238.59
 INSULATING STATE
 TOP OF VALENCE BANDS -    BAND    316; K    4; EIG -2.1312445E-01 AU
 TOP OF VALENCE BANDS -    BAND    316; K    1; EIG -2.1793347E-01 AU
 BOTTOM OF VIRTUAL BANDS - BAND    317; K    6; EIG -1.1732574E-01 AU
 INDIRECT ENERGY BAND GAP:   2.6068 eV
 BOTTOM OF VIRTUAL BANDS - BAND    317; K    1; EIG -1.1204023E-01 AU
 TTTTTTTTTTTTTTTTTTTTTTTTTTTTTT PDIG        TELAPSE      273.08 TCPU      239.22
 CHARGE NORMALIZATION FACTOR   1.00000000
 TOTAL ATOMIC CHARGES:
   1.3131443   1.3131443   1.3131443   1.3131443   1.1793360   1.1793360
   1.1793360   1.1793360   6.0648569   6.0648569   6.0648569   6.0648569
   5.8002282   5.8002282   5.8002282   5.8002282   6.0003749   6.0003749
   6.0003749   6.0003749   5.8613705   5.8613705   5.8613705   5.8613705
   6.0389253   6.0389253   6.0389253   6.0389253   5.7819098   5.7819098
   5.7819098   5.7819098   7.1778176   7.1778176   7.1778176   7.1778176
   7.0696021   7.0696021   7.0696021   7.0696021   7.1525781   7.1525781
[...]
  45 N    1     2.9508     5.5763   62 ZN  -1-1-1

  49 N    1     1.3408     2.5338   25 C    0 0 0
  49 N    1     1.3446     2.5408   21 C    0 0 0
  49 N    1     2.0677     3.9073    1 H    0 0 0
  49 N    1     2.1068     3.9812    5 H    0 0 0
  49 N    1     2.2515     4.2547    6 H    0 0 0
  49 N    1     2.4019     4.5390   30 C    0 0 0

  53 BR   1     1.8814     3.5553   17 C    0 1 0
  53 BR   1     2.7799     5.2532   46 N    0 0-1
  53 BR   1     2.8517     5.3890    9 C    0 1 0
  53 BR   1     2.8785     5.4396   30 C    0 1 0
  53 BR   1     3.1285     5.9120   43 N    1 1 0
  53 BR   1     3.1383     5.9305   41 N    0 0 0

  57 BR   1     1.8751     3.5435   30 C    0 0 0
  57 BR   1     2.8034     5.2977   21 C    0 0 0
  57 BR   1     2.8703     5.4241    5 H    0 0 0
  57 BR   1     2.8893     5.4599   17 C    0 0 0
  57 BR   1     2.9232     5.5240    4 H    0 0 0
  57 BR   1     3.1974     6.0422   28 C    0 0 0

  61 ZN   4     2.0625     3.8976   33 N   -1-1 0   34 N   -1 0 1   35 N    0 0 1
                                    36 N   -1 0 0
  61 ZN   4     2.6228     4.9564    1 H   -1 0 0    2 H    0 0 1    3 H   -1-1 0
                                     4 H   -1 0 1
  61 ZN   4     2.9689     5.6105   37 N    0 0 1   38 N   -1 0 0   39 N   -1 0 1
                                    40 N   -1-1 0
  61 ZN   4     3.1649     5.9807   13 C   -1-1 0   14 C   -1 0 1   15 C    0 0 1
                                    16 C   -1 0 0
  61 ZN   4     3.1913     6.0306   25 C   -1 0 0   26 C    0 0 1   27 C   -1-1 0
                                    28 C   -1 0 1
  61 ZN   4     3.5356     6.6813    9 C   -1 0 0   10 C    0 0 1   11 C   -1-1 0
                                    12 C   -1 0 1

  62 ZN   4     2.1645     4.0904   41 N    0 0 0   42 N    0 0 0   43 N    1 1 0
                                    44 N    1 1 0
  62 ZN   4     2.9508     5.5763   45 N    1 1 1   46 N    0 0-1   47 N    0 1 0
                                    48 N    1 0 0
  62 ZN   4     3.2194     6.0839   53 BR   0 0 0   54 BR   0 0 0   55 BR   1 1 0
                                    56 BR   1 1 0
  62 ZN   4     3.3555     6.3410   13 C    0 0 0   14 C    0 0 0   15 C    1 1 0
                                    16 C    1 1 0
  62 ZN   4     4.0695     7.6903    9 C    0 1 0   10 C    1 0 0   11 C    0 0-1
                                    12 C    1 1 1
  62 ZN   4     4.1276     7.7999   17 C    0 1 0   18 C    1 0 0   19 C    0 0-1
                                    20 C    1 1 1


 FINAL OPTIMIZED GEOMETRY - DIMENSIONALITY OF THE SYSTEM      3
 (NON PERIODIC DIRECTION: LATTICE PARAMETER FORMALLY SET TO 500)
 *******************************************************************************
 LATTICE PARAMETERS (ANGSTROMS AND DEGREES) - BOHR = 0.5291772083 ANGSTROM
 PRIMITIVE CELL - CENTRING CODE 6/0 VOLUME=   799.093909 - DENSITY  2.775 g/cm^3
         A              B              C           ALPHA      BETA       GAMMA 
    10.21138437    10.21138437    10.21138437   115.032596 115.032596  98.843287
 *******************************************************************************
 ATOMS IN THE ASYMMETRIC UNIT   17 - ATOMS IN THE UNIT CELL:   62
     ATOM                 X/A                 Y/B                 Z/C    
 *******************************************************************************
      1 T   1 H     2.619169297435E-01 -1.083575309560E-01  3.402348801192E-01
      2 F   1 H    -4.485924110752E-01 -7.831795037568E-02 -3.402348801192E-01
      3 F   1 H     1.083575309560E-01  4.485924110752E-01  3.702744606995E-01
      4 F   1 H     7.831795037568E-02 -2.619169297435E-01 -3.702744606995E-01
      5 T   1 H    -1.314189689741E-01 -2.086040981449E-01 -1.084303882403E-01
      6 F   1 H    -1.001737099046E-01 -2.298858073375E-02  1.084303882403E-01
      7 F   1 H     2.086040981449E-01  1.001737099046E-01  7.718512917083E-02
      8 F   1 H     2.298858073375E-02  1.314189689741E-01 -7.718512917083E-02
      9 T   6 C     2.038658960772E-01 -3.211840885236E-01  1.095352603101E-01
     10 F   6 C    -4.307193488337E-01  9.433063576716E-02 -1.095352603101E-01
     11 F   6 C     3.211840885236E-01  4.307193488337E-01 -4.749500153992E-01
     12 F   6 C    -9.433063576716E-02 -2.038658960772E-01  4.749500153992E-01
     13 T   6 C     3.243413655223E-01 -3.600489217486E-01  2.089662736728E-01
     14 F   6 C     4.309848045786E-01  1.153750918495E-01 -2.089662736728E-01
     15 F   6 C     3.600489217486E-01 -4.309848045786E-01 -3.156097127291E-01
     16 F   6 C    -1.153750918495E-01 -3.243413655223E-01  3.156097127291E-01
     17 T   6 C     1.009918034196E-01 -4.139860655690E-01 -7.105190977012E-02
     18 F   6 C    -3.429341557989E-01  1.720437131897E-01  7.105190977012E-02
     19 F   6 C     4.139860655690E-01  3.429341557989E-01 -4.850221310114E-01
     20 F   6 C    -1.720437131897E-01 -1.009918034196E-01  4.850221310114E-01
     21 T   6 C    -3.504071096392E-02 -2.390804458275E-01 -4.585647942221E-02
     22 F   6 C    -1.932239664053E-01  1.081576845829E-02  4.585647942221E-02
     23 F   6 C     2.390804458275E-01  1.932239664053E-01  2.040397348636E-01
     24 F   6 C    -1.081576845829E-02  3.504071096392E-02 -2.040397348636E-01
     25 T   6 C     1.803905627798E-01 -1.878739025016E-01  2.007870906522E-01
     26 F   6 C    -3.886609931538E-01 -2.039652787243E-02 -2.007870906522E-01
     27 F   6 C     1.878739025016E-01  3.886609931538E-01  3.682644652814E-01
     28 F   6 C     2.039652787243E-02 -1.803905627798E-01 -3.682644652814E-01
     29 T   6 C    -2.214724548434E-01  1.304198912672E-01  1.485596432958E-01
     30 F   6 C    -1.813975202863E-02 -3.700320981393E-01 -1.485596432958E-01
     31 F   6 C    -1.304198912672E-01  1.813975202863E-02 -3.518923461107E-01
     32 F   6 C     3.700320981393E-01  2.214724548434E-01  3.518923461107E-01
     33 T   7 N     3.578988295981E-01 -3.229935870205E-01  3.677204502733E-01
     34 F   7 N     3.092859627062E-01 -9.821620675190E-03 -3.677204502733E-01
     35 F   7 N     3.229935870205E-01 -3.092859627062E-01 -3.191075833814E-01
     36 F   7 N     9.821620675190E-03 -3.578988295981E-01  3.191075833814E-01
     37 T   7 N     4.779462582120E-01 -3.671148335407E-01  4.335406761436E-01
     38 F   7 N     1.993444903157E-01  4.440558206835E-02 -4.335406761436E-01
     39 F   7 N     3.671148335407E-01 -1.993444903157E-01 -1.549389082474E-01
     40 F   7 N    -4.440558206835E-02 -4.779462582120E-01  1.549389082474E-01
     41 T   7 N     4.205394270582E-01 -4.283649492457E-01  1.748672055880E-01
     42 F   7 N     3.967678451662E-01  2.456722214702E-01 -1.748672055880E-01
     43 F   7 N     4.283649492457E-01 -3.967678451662E-01 -1.510956236961E-01
     44 F   7 N    -2.456722214702E-01 -4.205394270582E-01  1.510956236961E-01
     45 T   7 N    -4.849950777099E-01 -4.292698207802E-01  3.189795993291E-01
     46 F   7 N     2.517505798906E-01  1.960253229610E-01 -3.189795993291E-01
     47 F   7 N     4.292698207802E-01 -2.517505798906E-01 -5.572525692968E-02
     48 F   7 N    -1.960253229610E-01  4.849950777099E-01  5.572525692968E-02
     49 T   7 N     6.329031681935E-02 -1.487710596762E-01  1.267773418992E-01
     50 F   7 N    -2.755484015754E-01 -6.348702507983E-02 -1.267773418992E-01
     51 F   7 N     1.487710596762E-01  2.755484015754E-01  2.120613764956E-01
     52 F   7 N     6.348702507983E-02 -6.329031681935E-02 -2.120613764956E-01
     53 T  35 BR    1.247709435717E-01  4.062743563827E-01 -2.011908741002E-01
     54 F  35 BR   -3.925347695171E-01  3.259618176719E-01  2.011908741002E-01
     55 F  35 BR   -4.062743563827E-01  3.925347695171E-01 -2.815034128110E-01
     56 F  35 BR   -3.259618176719E-01 -1.247709435717E-01  2.815034128110E-01
     57 T  35 BR   -1.604553486879E-01 -4.796519732824E-01 -3.878694070320E-01
     58 F  35 BR   -9.178256625035E-02  2.274140583441E-01  3.878694070320E-01
     59 F  35 BR    4.796519732824E-01  9.178256625035E-02  3.191966245944E-01
     60 F  35 BR   -2.274140583441E-01  1.604553486879E-01 -3.191966245944E-01
     61 T  30 ZN    2.500000000000E-01 -2.500000000000E-01  5.000000000000E-01
     62 T  30 ZN    5.000000000000E-01  5.000000000000E-01  1.197006560328E-19

 TRANSFORMATION MATRIX PRIMITIVE-CRYSTALLOGRAPHIC CELL
  0.0000  1.0000  1.0000  1.0000  0.0000  1.0000  1.0000  1.0000  0.0000

 *******************************************************************************
 CRYSTALLOGRAPHIC CELL (VOLUME=       1598.18781776)
         A              B              C           ALPHA      BETA       GAMMA 
    10.96824566    10.96824566    13.28475283    90.000000  90.000000  90.000000

 COORDINATES IN THE CRYSTALLOGRAPHIC CELL
     ATOM                 X/A                 Y/B                 Z/C    
 *******************************************************************************
      1 T   1 H    -1.501979029014E-02  3.552546704094E-01 -9.333774066582E-02
      2 F   1 H     1.501979029014E-02 -3.552546704094E-01 -9.333774066582E-02
      3 F   1 H     3.552546704094E-01  1.501979029014E-02  9.333774066582E-02
      4 F   1 H    -3.552546704094E-01 -1.501979029014E-02  9.333774066582E-02
      5 T   1 H    -9.280775870558E-02 -1.562262953474E-02 -1.157963394393E-01
      6 F   1 H     9.280775870558E-02  1.562262953474E-02 -1.157963394393E-01
      7 F   1 H    -1.562262953474E-02  9.280775870558E-02  1.157963394393E-01
      8 F   1 H     1.562262953474E-02 -9.280775870558E-02  1.157963394393E-01
      9 T   6 C    -2.077573621454E-01  3.172926224554E-01 -1.134267263782E-01
     10 F   6 C     2.077573621454E-01 -3.172926224554E-01 -1.134267263782E-01
     11 F   6 C     3.172926224554E-01  2.077573621454E-01  1.134267263782E-01
     12 F   6 C    -3.172926224554E-01 -2.077573621454E-01  1.134267263782E-01
     13 T   6 C     2.622879932009E-01 -5.332171952813E-02  3.776630850505E-01
     14 F   6 C    -2.622879932009E-01  5.332171952813E-02  3.776630850505E-01
     15 F   6 C    -5.332171952813E-02 -2.622879932009E-01 -3.776630850505E-01
     16 F   6 C     5.332171952813E-02  2.622879932009E-01 -3.776630850505E-01
     17 T   6 C    -2.930148893794E-01  2.219629796093E-01 -1.209711761897E-01
     18 F   6 C     2.930148893794E-01 -2.219629796093E-01 -1.209711761897E-01
     19 F   6 C     2.219629796093E-01  2.930148893794E-01  1.209711761897E-01
     20 F   6 C    -2.219629796093E-01 -2.930148893794E-01  1.209711761897E-01
     21 T   6 C    -1.249481071429E-01  7.909162772070E-02 -1.141323386846E-01
     22 F   6 C     1.249481071429E-01 -7.909162772070E-02 -1.141323386846E-01
     23 F   6 C     7.909162772070E-02  1.249481071429E-01  1.141323386846E-01
     24 F   6 C    -7.909162772070E-02 -1.249481071429E-01  1.141323386846E-01
     25 T   6 C    -8.373868731460E-02  2.845257779668E-01 -1.041352151870E-01
     26 F   6 C     8.373868731460E-02 -2.845257779668E-01 -1.041352151870E-01
     27 F   6 C     2.845257779668E-01  8.373868731460E-02  1.041352151870E-01
     28 F   6 C    -2.845257779668E-01 -8.373868731460E-02  1.041352151870E-01
     29 T   6 C     2.502259947033E-01 -1.016663514074E-01 -1.198061034360E-01
     30 F   6 C    -2.502259947033E-01  1.016663514074E-01 -1.198061034360E-01
     31 F   6 C    -1.016663514074E-01 -2.502259947033E-01  1.198061034360E-01
     32 F   6 C     1.016663514074E-01  2.502259947033E-01  1.198061034360E-01
     33 T   7 N     3.434140168273E-01  2.430643344599E-02  3.335923961522E-01
     34 F   7 N    -3.434140168273E-01 -2.430643344599E-02  3.335923961522E-01
     35 F   7 N     2.430643344599E-02 -3.434140168273E-01 -3.335923961522E-01
     36 F   7 N    -2.430643344599E-02  3.434140168273E-01 -3.335923961522E-01
     37 T   7 N    -2.057602078045E-01 -3.606991160519E-01 -1.613546257362E-01
     38 F   7 N     2.057602078045E-01  3.606991160519E-01 -1.613546257362E-01
     39 F   7 N    -3.606991160519E-01  2.057602078045E-01  1.613546257362E-01
     40 F   7 N     3.606991160519E-01 -2.057602078045E-01  1.613546257362E-01
     41 T   7 N     1.629814146420E-01  1.188579094598E-02  4.086536361122E-01
     42 F   7 N    -1.629814146420E-01 -1.188579094598E-02  4.086536361122E-01
     43 F   7 N     1.188579094598E-02 -1.629814146420E-01 -4.086536361122E-01
     44 F   7 N    -1.188579094598E-02  1.629814146420E-01 -4.086536361122E-01
     45 T   7 N    -3.126475718706E-01 -3.683728288003E-01 -1.166222489096E-01
     46 F   7 N     3.126475718706E-01  3.683728288003E-01 -1.166222489096E-01
     47 F   7 N    -3.683728288003E-01  3.126475718706E-01  1.166222489096E-01
     48 F   7 N     3.683728288003E-01 -3.126475718706E-01  1.166222489096E-01
     49 T   7 N    -4.264201729818E-02  1.694193591974E-01 -1.061290423780E-01
     50 F   7 N     4.264201729818E-02 -1.694193591974E-01 -1.061290423780E-01
     51 F   7 N     1.694193591974E-01  4.264201729818E-02  1.061290423780E-01
     52 F   7 N    -1.694193591974E-01 -4.264201729818E-02  1.061290423780E-01
     53 T  35 BR    4.015626935542E-02 -2.413471434556E-01  3.661180870273E-01
     54 F  35 BR   -4.015626935542E-02  2.413471434556E-01  3.661180870273E-01
     55 F  35 BR   -2.413471434556E-01 -4.015626935542E-02 -3.661180870273E-01
     56 F  35 BR    2.413471434556E-01  4.015626935542E-02 -3.661180870273E-01
     57 T  35 BR   -3.535330158132E-01 -3.433639121879E-02 -1.261189574691E-01
     58 F  35 BR    3.535330158132E-01  3.433639121879E-02 -1.261189574691E-01
     59 F  35 BR   -3.433639121879E-02  3.535330158132E-01  1.261189574691E-01
     60 F  35 BR    3.433639121879E-02 -3.535330158132E-01  1.261189574691E-01
     61 T  30 ZN    5.000000000000E-01  0.000000000000E+00  2.500000000000E-01
     62 T  30 ZN    1.197006560328E-19 -1.232595164408E-32  5.000000000000E-01

 T = ATOM BELONGING TO THE ASYMMETRIC UNIT
 INFORMATION **** fort.34 **** GEOMETRY OUTPUT FILE

 DIRECT LATTICE VECTORS CARTESIAN COMPONENTS (ANGSTROM)
          X                    Y                    Z
  -0.548412282760E+01   0.548412282760E+01   0.664237641284E+01
   0.548412282760E+01  -0.548412282760E+01   0.664237641284E+01
   0.548412282760E+01   0.548412282760E+01  -0.664237641284E+01


 CARTESIAN COORDINATES - PRIMITIVE CELL
 *******************************************************************************
 *      ATOM          X(ANGSTROM)         Y(ANGSTROM)         Z(ANGSTROM)
 *******************************************************************************
    1     1 H    -1.647407495919E-01  3.896520495207E+00 -1.239968814053E+00
    2     1 H     1.647407495919E-01 -3.896520495207E+00 -1.239968814053E+00
    3     1 H     3.896520495207E+00  1.647407495919E-01  1.239968814053E+00
    4     1 H    -3.896520495207E+00 -1.647407495919E-01  1.239968814053E+00
    5     1 H    -1.017938296191E+00 -1.713528385173E-01 -1.538325747571E+00
    6     1 H     1.017938296191E+00  1.713528385173E-01 -1.538325747571E+00
    7     1 H    -1.713528385173E-01  1.017938296191E+00  1.538325747571E+00
    8     1 H     1.713528385173E-01 -1.017938296191E+00  1.538325747571E+00
    9     6 C    -2.278733784687E+00  3.480143427674E+00 -1.506846023761E+00
   10     6 C     2.278733784687E+00 -3.480143427674E+00 -1.506846023761E+00
   11     6 C     3.480143427674E+00  2.278733784687E+00  1.506846023761E+00
   12     6 C    -3.480143427674E+00 -2.278733784687E+00  1.506846023761E+00
   13     6 C     2.876839141838E+00 -5.848457185422E-01  5.017160736282E+00
   14     6 C    -2.876839141838E+00  5.848457185422E-01  5.017160736282E+00
   15     6 C    -5.848457185422E-01 -2.876839141838E+00 -5.017160736282E+00
   16     6 C     5.848457185422E-01  2.876839141838E+00 -5.017160736282E+00
   17     6 C    -3.213859287345E+00  2.434544486715E+00 -1.607072174712E+00
   18     6 C     3.213859287345E+00 -2.434544486715E+00 -1.607072174712E+00
   19     6 C     2.434544486715E+00  3.213859287345E+00  1.607072174712E+00
   20     6 C    -2.434544486715E+00 -3.213859287345E+00  1.607072174712E+00
   21     6 C    -1.370461533296E+00  8.674964021104E-01 -1.516219908843E+00
   22     6 C     1.370461533296E+00 -8.674964021104E-01 -1.516219908843E+00
   23     6 C     8.674964021104E-01  1.370461533296E+00  1.516219908843E+00
   24     6 C    -8.674964021104E-01 -1.370461533296E+00  1.516219908843E+00
   25     6 C    -9.184664933106E-01  3.120748627977E+00 -1.383410594209E+00
   26     6 C     9.184664933106E-01 -3.120748627977E+00 -1.383410594209E+00
   27     6 C     3.120748627977E+00  9.184664933106E-01  1.383410594209E+00
   28     6 C    -3.120748627977E+00 -9.184664933106E-01  1.383410594209E+00
   29     6 C     2.744540179222E+00 -1.115101517104E+00 -1.591594471156E+00
   30     6 C    -2.744540179222E+00  1.115101517104E+00 -1.591594471156E+00
   31     6 C    -1.115101517104E+00 -2.744540179222E+00  1.591594471156E+00
   32     6 C     1.115101517104E+00  2.744540179222E+00  1.591594471156E+00
   33     7 N     3.766649298002E+00  2.665989330374E-01  4.431692527410E+00
   34     7 N    -3.766649298002E+00 -2.665989330374E-01  4.431692527410E+00
   35     7 N     2.665989330374E-01 -3.766649298002E+00 -4.431692527410E+00
   36     7 N    -2.665989330374E-01  3.766649298002E+00 -4.431692527410E+00
   37     7 N    -2.256828505265E+00 -3.956236512471E+00 -2.143556320186E+00
   38     7 N     2.256828505265E+00  3.956236512471E+00 -2.143556320186E+00
   39     7 N    -3.956236512471E+00  2.256828505265E+00  2.143556320186E+00
   40     7 N     3.956236512471E+00 -2.256828505265E+00  2.143556320186E+00
   41     7 N     1.787620193026E+00  1.303662749019E-01  5.428862547069E+00
   42     7 N    -1.787620193026E+00 -1.303662749019E-01  5.428862547069E+00
   43     7 N     1.303662749019E-01 -1.787620193026E+00 -5.428862547069E+00
   44     7 N    -1.303662749019E-01  1.787620193026E+00 -5.428862547069E+00
   45     7 N    -3.429195371779E+00 -4.040403678983E+00 -1.549297750740E+00
   46     7 N     3.429195371779E+00  4.040403678983E+00 -1.549297750740E+00
   47     7 N    -4.040403678983E+00  3.429195371779E+00  1.549297750740E+00
   48     7 N     4.040403678983E+00 -3.429195371779E+00  1.549297750740E+00
   49     7 N    -4.677081209598E-01  1.858233150424E+00 -1.409898095619E+00
   50     7 N     4.677081209598E-01 -1.858233150424E+00 -1.409898095619E+00
   51     7 N     1.858233150424E+00  4.677081209598E-01  1.409898095619E+00
   52     7 N    -1.858233150424E+00 -4.677081209598E-01  1.409898095619E+00
   53    35 BR    4.404438268867E-01 -2.647154757602E+00  4.863788291171E+00
   54    35 BR   -4.404438268867E-01  2.647154757602E+00  4.863788291171E+00
   55    35 BR   -2.647154757602E+00 -4.404438268867E-01 -4.863788291171E+00
   56    35 BR    2.647154757602E+00  4.404438268867E-01 -4.863788291171E+00
   57    35 BR   -3.877636964663E+00 -3.766099738007E-01 -1.675459176611E+00
   58    35 BR    3.877636964663E+00  3.766099738007E-01 -1.675459176611E+00
   59    35 BR   -3.766099738007E-01  3.877636964663E+00  1.675459176611E+00
   60    35 BR    3.766099738007E-01 -3.877636964663E+00  1.675459176611E+00
   61    30 ZN    5.484122827601E+00  0.000000000000E+00 -9.963564619265E+00
   62    30 ZN    1.312906200457E-18 -1.351940655664E-31  6.642376412843E+00

 ****    4 SYMMOPS - TRANSLATORS IN FRACTIONAL UNITS
 **** MATRICES AND TRANSLATORS IN THE CRYSTALLOGRAPHIC REFERENCE FRAME
   V INV                    ROTATION MATRICES                   TRANSLATORS
   1   1  1.00  0.00  0.00  0.00  1.00  0.00  0.00  0.00  1.00  0.00  0.00  0.00
   2   2  0.00  1.00 -1.00  1.00  0.00 -1.00  0.00 -0.00 -1.00  0.00  0.00  0.00
   3   4 -0.00 -1.00  0.00 -0.00 -1.00  1.00  1.00 -1.00 -0.00  0.00  0.00  0.00
   4   3 -1.00 -0.00  1.00 -1.00 -0.00  0.00 -1.00  1.00  0.00  0.00  0.00  0.00
 TTTTTTTTTTTTTTTTTTTTTTTTTTTTTT END         TELAPSE    14233.04 TCPU    13459.98
 EEEEEEEEEE TERMINATION  DATE 06 03 2024 TIME 03:21:42.5
NODE    0 CPU TIME =     13459.976
    TOTAL CPU TIME =    866440.321
