Loading crystal17/1.0.2/intel/19.0
  Loading requirement: intel/19.0 ompi/4.0.1/intel/19.0
          64 PROCESSORS WORKING

         
 *******************************************************************************
 *                                                                             *
 *                               CRYSTAL17                                     *
 *                      public : 1.0.2 - March 1st, 2018                       *
 *                       HTTP://WWW.CRYSTAL.UNITO.IT                           *
 *                                                                             *
 *                              MAIN AUTHORS                                   *
 *                                                                             *
 *  R. DOVESI(1,11), V.R. SAUNDERS(2), C. ROETTI(1,11), R. ORLANDO(1,11),      *
 *  C.M. ZICOVICH-WILSON(1,3), F. PASCALE(4), B. CIVALLERI(1,11),              *
 *  K. DOLL(5), N.M. HARRISON(2,6), I.J. BUSH(7), Ph. D'ARCO(8),               *
 *  M. LLUNELL(9), M. CAUSA'(10), Y. NOEL(8), L. MASCHIO(1,11), A. ERBA(1,11)  *
 *  M. RE'RAT(14), S. CASASSA(1,11)                                            *
 *                                                                             *
 *        CONTRIBUTIONS TO THE CODE HAVE ALSO BEEN GIVEN BY                    *
 *                                                                             *
 *  M. FERRABONE(1,11), M. DE LA PIERRE(1,11), M. FERRERO(1,11),               *
 *  J. BAIMA(1,11), E. ALBANESE(1,11), M.F. PEINTINGER(12), R. BAST(13),       *
 *  B. KIRTMAN(15), V. LACIVITA(1,11), R. DEMICHELIS(1,16)                     *
 *  G. BRANDEBURG(17), S. SALUSTRO(1,11), G. SANSONE(1,11)                     *
 *  M.T. RUGGIERO(18)                                                          *
 *                                                                             *
 * (1) THEORETICAL CHEMISTRY GROUP - UNIVERSITA' DI TORINO - TORINO (ITALY)    *
 * (2) COMPUTATIONAL SCIENCE & ENGINEERING DEPARTMENT - STFC DARESBURY (UK)    *
 * (3) UNIVERSIDAD AUTONOMA DEL ESTADO DE MORELOS - CUERNAVACA (MEXICO)        *
 * (4) UNIVERSITE' DE LORRAINE - NANCY (FRANCE)                                *
 * (5) UNIVERSITAET STUTTGART- STUTTGART (GERMANY)                             *
 * (6) IMPERIAL COLLEGE - LONDON (UK)                                          *
 * (7) OXFORD E-RESEARCH CENTRE - OXFORD (UK)                                  *
 * (8) UPMC - SORBONNE UNIVERSITES - PARIS (FRANCE)                            *
 * (9) UNIVERSIDAD DE BARCELONA - BARCELONA (SPAIN)                            *
 *(10) UNIVERSITA' DI NAPOLI "FEDERICO II" - NAPOLI (ITALY)                    *
 *(11) NIS - NANOSTRUCTURED INTERFACES AND SURFACES - TORINO (ITALY)           *
 *(12) MPI FUER CHEMISCHE ENERGIEKONVERSION - MUELHEIM AN DER RUHR (GERMANY)   *
 *(13) UNIVERSITY OF TROMSO - TROMSO (NORWAY)                                  *
 *(14) UNIVERSITE' DE PAU ET DES PAYS DE L'ADOUR - PAU (FRANCE)                *
 *(15) UNIVERSITY OF CALIFORNIA SANTA BARBARA - SANTA BARBARA (USA)            *
 *(16) CURTIN UNIVERSITY - PERTH (AUSTRALIA)                                   *
 *(17) UNIVERSITY COLLEGE LONDON - LONDON (UK)                                 *
 *(18) CAMBRIDGE UNIVERSITY - CAMBRIDGE (UK)                                   *
 *                                                                             *
 *******************************************************************************
 EEEEEEEEEE STARTING  DATE 07 03 2024 TIME 13:11:58.7
 C:\Users\wilso\AppData\Local\Temp\tmp_p\newconn.mol                             

 CRYSTAL CALCULATION
 (INPUT ACCORDING TO THE INTERNATIONAL TABLES FOR X-RAY CRYSTALLOGRAPHY)
 CRYSTAL FAMILY                       :  TETRAGONAL  
 CRYSTAL CLASS  (GROTH - 1921)        :  TETRAGONAL DISPHENOIDAL              

 SPACE GROUP (NONCENTROSYMMETRIC)     :  I -4            

 LATTICE PARAMETERS  (ANGSTROMS AND DEGREES) - CONVENTIONAL CELL
        A           B           C        ALPHA        BETA       GAMMA
    10.83700    10.83700    12.85800    90.00000    90.00000    90.00000


 NUMBER OF IRREDUCIBLE ATOMS IN THE CONVENTIONAL CELL:  124

 INPUT COORDINATES

 ATOM AT. N.              COORDINATES
   1   1     4.584000000000E-01  7.824900000000E-01  3.751200000000E-01
   2   1     9.890000000000E-02  5.060900000000E-01  3.799100000000E-01
   3   1     5.416000000000E-01  2.175100000000E-01  3.751200000000E-01
   4   1     9.011000000000E-01  4.939100000000E-01  3.799100000000E-01
   5   1     7.824900000000E-01  5.416000000000E-01  6.248800000000E-01
   6   1     5.060900000000E-01  9.011000000000E-01  6.200900000000E-01
   7   1     2.175100000000E-01  4.584000000000E-01  6.248800000000E-01
   8   1     4.939100000000E-01  9.890000000000E-02  6.200900000000E-01
   9   1     9.584000000000E-01  2.824900000000E-01  8.751200000000E-01
  10   1     5.989000000000E-01  6.090000000000E-03  8.799100000000E-01
  11   1     4.160000000000E-02  7.175100000000E-01  8.751200000000E-01
  12   1     4.011000000000E-01  9.939100000000E-01  8.799100000000E-01
  13   1     2.824900000000E-01  4.160000000000E-02  1.248800000000E-01
  14   1     6.090000000000E-03  4.011000000000E-01  1.200900000000E-01
  15   1     7.175100000000E-01  9.584000000000E-01  1.248800000000E-01
  16   1     9.939100000000E-01  5.989000000000E-01  1.200900000000E-01
  17   6     2.570700000000E-01  7.807600000000E-01  3.726200000000E-01
  18   6     2.492800000000E-01  9.151200000000E-01  3.715800000000E-01
  19   6     1.560600000000E-01  6.982800000000E-01  3.741700000000E-01
  20   6     2.970600000000E-01  5.294300000000E-01  3.758900000000E-01
  21   6     3.750300000000E-01  7.252600000000E-01  3.733300000000E-01
  22   6     8.247600000000E-01  4.285300000000E-01  3.784500000000E-01
  23   6     7.429300000000E-01  2.192400000000E-01  3.726200000000E-01
  24   6     7.507200000000E-01  8.488000000000E-02  3.715800000000E-01
  25   6     8.439400000000E-01  3.017200000000E-01  3.741700000000E-01
  26   6     7.029400000000E-01  4.705700000000E-01  3.758900000000E-01
  27   6     6.249700000000E-01  2.747400000000E-01  3.733300000000E-01
  28   6     1.752400000000E-01  5.714700000000E-01  3.784500000000E-01
  29   6     7.807600000000E-01  7.429300000000E-01  6.273800000000E-01
  30   6     9.151200000000E-01  7.507200000000E-01  6.284200000000E-01
  31   6     6.982800000000E-01  8.439400000000E-01  6.258300000000E-01
  32   6     5.294300000000E-01  7.029400000000E-01  6.241100000000E-01
  33   6     7.252600000000E-01  6.249700000000E-01  6.266700000000E-01
  34   6     4.285300000000E-01  1.752400000000E-01  6.215500000000E-01
  35   6     2.192400000000E-01  2.570700000000E-01  6.273800000000E-01
  36   6     8.488000000000E-02  2.492800000000E-01  6.284200000000E-01
  37   6     3.017200000000E-01  1.560600000000E-01  6.258300000000E-01
  38   6     4.705700000000E-01  2.970600000000E-01  6.241100000000E-01
  39   6     2.747400000000E-01  3.750300000000E-01  6.266700000000E-01
  40   6     5.714700000000E-01  8.247600000000E-01  6.215500000000E-01
  41   6     7.570700000000E-01  2.807600000000E-01  8.726200000000E-01
  42   6     7.492800000000E-01  4.151200000000E-01  8.715800000000E-01
  43   6     6.560600000000E-01  1.982800000000E-01  8.741700000000E-01
  44   6     7.970600000000E-01  2.943000000000E-02  8.758900000000E-01
  45   6     8.750300000000E-01  2.252600000000E-01  8.733300000000E-01
  46   6     3.247600000000E-01  9.285300000000E-01  8.784500000000E-01
  47   6     2.429300000000E-01  7.192400000000E-01  8.726200000000E-01
  48   6     2.507200000000E-01  5.848800000000E-01  8.715800000000E-01
  49   6     3.439400000000E-01  8.017200000000E-01  8.741700000000E-01
  50   6     2.029400000000E-01  9.705700000000E-01  8.758900000000E-01
  51   6     1.249700000000E-01  7.747400000000E-01  8.733300000000E-01
  52   6     6.752400000000E-01  7.147000000000E-02  8.784500000000E-01
  53   6     2.807600000000E-01  2.429300000000E-01  1.273800000000E-01
  54   6     4.151200000000E-01  2.507200000000E-01  1.284200000000E-01
  55   6     1.982800000000E-01  3.439400000000E-01  1.258300000000E-01
  56   6     2.943000000000E-02  2.029400000000E-01  1.241100000000E-01
  57   6     2.252600000000E-01  1.249700000000E-01  1.266700000000E-01
  58   6     9.285300000000E-01  6.752400000000E-01  1.215500000000E-01
  59   6     7.192400000000E-01  7.570700000000E-01  1.273800000000E-01
  60   6     5.848800000000E-01  7.492800000000E-01  1.284200000000E-01
  61   6     8.017200000000E-01  6.560600000000E-01  1.258300000000E-01
  62   6     9.705700000000E-01  7.970600000000E-01  1.241100000000E-01
  63   6     7.747400000000E-01  8.750300000000E-01  1.266700000000E-01
  64   6     7.147000000000E-02  3.247600000000E-01  1.215500000000E-01
  65   7     3.448600000000E-01  9.880200000000E-01  3.390700000000E-01
  66   7     3.116000000000E-01  1.078500000000E-01  3.584900000000E-01
  67   7     1.579300000000E-01  9.900500000000E-01  4.081900000000E-01
  68   7     2.005000000000E-01  1.090400000000E-01  3.992000000000E-01
  69   7     3.945100000000E-01  6.033600000000E-01  3.729200000000E-01
  70   7     6.551400000000E-01  1.198000000000E-02  3.390700000000E-01
  71   7     6.884000000000E-01  8.921500000000E-01  3.584900000000E-01
  72   7     8.420700000000E-01  9.950000000000E-03  4.081900000000E-01
  73   7     7.995000000000E-01  8.909600000000E-01  3.992000000000E-01
  74   7     6.054900000000E-01  3.966400000000E-01  3.729200000000E-01
  75   7     9.880200000000E-01  6.551400000000E-01  6.609300000000E-01
  76   7     1.078500000000E-01  6.884000000000E-01  6.415100000000E-01
  77   7     9.900500000000E-01  8.420700000000E-01  5.918100000000E-01
  78   7     1.090400000000E-01  7.995000000000E-01  6.008000000000E-01
  79   7     6.033600000000E-01  6.054900000000E-01  6.270800000000E-01
  80   7     1.198000000000E-02  3.448600000000E-01  6.609300000000E-01
  81   7     8.921500000000E-01  3.116000000000E-01  6.415100000000E-01
  82   7     9.950000000000E-03  1.579300000000E-01  5.918100000000E-01
  83   7     8.909600000000E-01  2.005000000000E-01  6.008000000000E-01
  84   7     3.966400000000E-01  3.945100000000E-01  6.270800000000E-01
  85   7     8.448600000000E-01  4.880200000000E-01  8.390700000000E-01
  86   7     8.116000000000E-01  6.078500000000E-01  8.584900000000E-01
  87   7     6.579300000000E-01  4.900500000000E-01  9.081900000000E-01
  88   7     7.005000000000E-01  6.090400000000E-01  8.992000000000E-01
  89   7     8.945100000000E-01  1.033600000000E-01  8.729200000000E-01
  90   7     1.551400000000E-01  5.119800000000E-01  8.390700000000E-01
  91   7     1.884000000000E-01  3.921500000000E-01  8.584900000000E-01
  92   7     3.420700000000E-01  5.099500000000E-01  9.081900000000E-01
  93   7     2.995000000000E-01  3.909600000000E-01  8.992000000000E-01
  94   7     1.054900000000E-01  8.966400000000E-01  8.729200000000E-01
  95   7     4.880200000000E-01  1.551400000000E-01  1.609300000000E-01
  96   7     6.078500000000E-01  1.884000000000E-01  1.415100000000E-01
  97   7     4.900500000000E-01  3.420700000000E-01  9.181000000000E-02
  98   7     6.090400000000E-01  2.995000000000E-01  1.008000000000E-01
  99   7     1.033600000000E-01  1.054900000000E-01  1.270800000000E-01
 100   7     5.119800000000E-01  8.448600000000E-01  1.609300000000E-01
 101   7     3.921500000000E-01  8.116000000000E-01  1.415100000000E-01
 102   7     5.099500000000E-01  6.579300000000E-01  9.181000000000E-02
 103   7     3.909600000000E-01  7.005000000000E-01  1.008000000000E-01
 104   7     8.966400000000E-01  8.945100000000E-01  1.270800000000E-01
 105  35     4.830000000000E-03  7.486000000000E-01  3.693200000000E-01
 106  35     3.189700000000E-01  3.704400000000E-01  3.722200000000E-01
 107  35     9.951700000000E-01  2.514000000000E-01  3.693200000000E-01
 108  35     6.810300000000E-01  6.295600000000E-01  3.722200000000E-01
 109  35     7.486000000000E-01  9.951700000000E-01  6.306800000000E-01
 110  35     3.704400000000E-01  6.810300000000E-01  6.277800000000E-01
 111  35     2.514000000000E-01  4.830000000000E-03  6.306800000000E-01
 112  35     6.295600000000E-01  3.189700000000E-01  6.277800000000E-01
 113  35     5.048300000000E-01  2.486000000000E-01  8.693200000000E-01
 114  35     8.189700000000E-01  8.704400000000E-01  8.722200000000E-01
 115  35     4.951700000000E-01  7.514000000000E-01  8.693200000000E-01
 116  35     1.810300000000E-01  1.295600000000E-01  8.722200000000E-01
 117  35     2.486000000000E-01  4.951700000000E-01  1.306800000000E-01
 118  35     8.704400000000E-01  1.810300000000E-01  1.277800000000E-01
 119  35     7.514000000000E-01  5.048300000000E-01  1.306800000000E-01
 120  35     1.295600000000E-01  8.189700000000E-01  1.277800000000E-01
 121  30     2.566219785884E-17  5.000000000000E-01  7.500000000000E-01
 122  30    -1.301279845002E-31  8.195556861342E-17  5.000000000000E-01
 123  30     5.000000000000E-01  8.195556861342E-17  2.500000000000E-01
 124  30     5.000000000000E-01  5.000000000000E-01  2.504773171808E-16

 *******************************************************************************

 << INFORMATION >>: FROM NOW ON, ALL COORDINATES REFER TO THE PRIMITIVE CELL

 *******************************************************************************

 LATTICE PARAMETERS  (ANGSTROMS AND DEGREES) - PRIMITIVE CELL
       A          B          C        ALPHA      BETA     GAMMA        VOLUME
   10.00262   10.00262   10.00262   114.39999 114.39999 100.00834    755.025418

 INPUT LIST - ATOM N.   2 NOT IRREDUCIBLE

 INPUT LIST - ATOM N.   6 NOT IRREDUCIBLE

 INPUT LIST - ATOM N.   3 NOT IRREDUCIBLE

 INPUT LIST - ATOM N.   7 NOT IRREDUCIBLE

 INPUT LIST - ATOM N.   4 NOT IRREDUCIBLE

 INPUT LIST - ATOM N.   8 NOT IRREDUCIBLE

 INPUT LIST - ATOM N.   1 NOT IRREDUCIBLE

 INPUT LIST - ATOM N.   5 NOT IRREDUCIBLE

 INPUT LIST - ATOM N.   2 NOT IRREDUCIBLE

 INPUT LIST - ATOM N.   6 NOT IRREDUCIBLE

 INPUT LIST - ATOM N.   3 NOT IRREDUCIBLE

 INPUT LIST - ATOM N.   7 NOT IRREDUCIBLE

 INPUT LIST - ATOM N.   4 NOT IRREDUCIBLE

 INPUT LIST - ATOM N.   8 NOT IRREDUCIBLE

 INPUT LIST - ATOM N.  10 NOT IRREDUCIBLE

 INPUT LIST - ATOM N.  14 NOT IRREDUCIBLE

 INPUT LIST - ATOM N.  18 NOT IRREDUCIBLE

 INPUT LIST - ATOM N.  22 NOT IRREDUCIBLE

 INPUT LIST - ATOM N.  26 NOT IRREDUCIBLE

 INPUT LIST - ATOM N.  30 NOT IRREDUCIBLE

 INPUT LIST - ATOM N.  11 NOT IRREDUCIBLE

 INPUT LIST - ATOM N.  15 NOT IRREDUCIBLE

 INPUT LIST - ATOM N.  19 NOT IRREDUCIBLE

 INPUT LIST - ATOM N.  23 NOT IRREDUCIBLE

 INPUT LIST - ATOM N.  27 NOT IRREDUCIBLE

 INPUT LIST - ATOM N.  31 NOT IRREDUCIBLE

 INPUT LIST - ATOM N.  12 NOT IRREDUCIBLE

 INPUT LIST - ATOM N.  16 NOT IRREDUCIBLE

 INPUT LIST - ATOM N.  20 NOT IRREDUCIBLE

 INPUT LIST - ATOM N.  24 NOT IRREDUCIBLE

 INPUT LIST - ATOM N.  28 NOT IRREDUCIBLE

 INPUT LIST - ATOM N.  32 NOT IRREDUCIBLE

 INPUT LIST - ATOM N.   9 NOT IRREDUCIBLE

 INPUT LIST - ATOM N.  13 NOT IRREDUCIBLE

 INPUT LIST - ATOM N.  17 NOT IRREDUCIBLE

 INPUT LIST - ATOM N.  21 NOT IRREDUCIBLE

 INPUT LIST - ATOM N.  25 NOT IRREDUCIBLE

 INPUT LIST - ATOM N.  29 NOT IRREDUCIBLE

 INPUT LIST - ATOM N.  10 NOT IRREDUCIBLE

 INPUT LIST - ATOM N.  14 NOT IRREDUCIBLE

 INPUT LIST - ATOM N.  18 NOT IRREDUCIBLE

 INPUT LIST - ATOM N.  22 NOT IRREDUCIBLE

 INPUT LIST - ATOM N.  26 NOT IRREDUCIBLE

 INPUT LIST - ATOM N.  30 NOT IRREDUCIBLE

 INPUT LIST - ATOM N.  11 NOT IRREDUCIBLE

 INPUT LIST - ATOM N.  15 NOT IRREDUCIBLE

 INPUT LIST - ATOM N.  19 NOT IRREDUCIBLE

 INPUT LIST - ATOM N.  23 NOT IRREDUCIBLE

 INPUT LIST - ATOM N.  27 NOT IRREDUCIBLE

 INPUT LIST - ATOM N.  31 NOT IRREDUCIBLE

 INPUT LIST - ATOM N.  12 NOT IRREDUCIBLE

 INPUT LIST - ATOM N.  16 NOT IRREDUCIBLE

 INPUT LIST - ATOM N.  20 NOT IRREDUCIBLE

 INPUT LIST - ATOM N.  24 NOT IRREDUCIBLE

 INPUT LIST - ATOM N.  28 NOT IRREDUCIBLE

 INPUT LIST - ATOM N.  32 NOT IRREDUCIBLE

 INPUT LIST - ATOM N.  34 NOT IRREDUCIBLE

 INPUT LIST - ATOM N.  38 NOT IRREDUCIBLE

 INPUT LIST - ATOM N.  42 NOT IRREDUCIBLE

 INPUT LIST - ATOM N.  46 NOT IRREDUCIBLE

 INPUT LIST - ATOM N.  50 NOT IRREDUCIBLE

 INPUT LIST - ATOM N.  35 NOT IRREDUCIBLE

 INPUT LIST - ATOM N.  39 NOT IRREDUCIBLE

 INPUT LIST - ATOM N.  43 NOT IRREDUCIBLE

 INPUT LIST - ATOM N.  47 NOT IRREDUCIBLE

 INPUT LIST - ATOM N.  51 NOT IRREDUCIBLE

 INPUT LIST - ATOM N.  36 NOT IRREDUCIBLE

 INPUT LIST - ATOM N.  40 NOT IRREDUCIBLE

 INPUT LIST - ATOM N.  44 NOT IRREDUCIBLE

 INPUT LIST - ATOM N.  48 NOT IRREDUCIBLE

 INPUT LIST - ATOM N.  52 NOT IRREDUCIBLE

 INPUT LIST - ATOM N.  33 NOT IRREDUCIBLE

 INPUT LIST - ATOM N.  37 NOT IRREDUCIBLE

 INPUT LIST - ATOM N.  41 NOT IRREDUCIBLE

 INPUT LIST - ATOM N.  45 NOT IRREDUCIBLE

 INPUT LIST - ATOM N.  49 NOT IRREDUCIBLE

 INPUT LIST - ATOM N.  34 NOT IRREDUCIBLE

 INPUT LIST - ATOM N.  38 NOT IRREDUCIBLE

 INPUT LIST - ATOM N.  42 NOT IRREDUCIBLE

 INPUT LIST - ATOM N.  46 NOT IRREDUCIBLE

 INPUT LIST - ATOM N.  50 NOT IRREDUCIBLE

 INPUT LIST - ATOM N.  35 NOT IRREDUCIBLE

 INPUT LIST - ATOM N.  39 NOT IRREDUCIBLE

 INPUT LIST - ATOM N.  43 NOT IRREDUCIBLE

 INPUT LIST - ATOM N.  47 NOT IRREDUCIBLE

 INPUT LIST - ATOM N.  51 NOT IRREDUCIBLE

 INPUT LIST - ATOM N.  36 NOT IRREDUCIBLE

 INPUT LIST - ATOM N.  40 NOT IRREDUCIBLE

 INPUT LIST - ATOM N.  44 NOT IRREDUCIBLE

 INPUT LIST - ATOM N.  48 NOT IRREDUCIBLE

 INPUT LIST - ATOM N.  52 NOT IRREDUCIBLE

 INPUT LIST - ATOM N.  54 NOT IRREDUCIBLE

 INPUT LIST - ATOM N.  58 NOT IRREDUCIBLE

 INPUT LIST - ATOM N.  55 NOT IRREDUCIBLE

 INPUT LIST - ATOM N.  59 NOT IRREDUCIBLE

 INPUT LIST - ATOM N.  56 NOT IRREDUCIBLE

 INPUT LIST - ATOM N.  60 NOT IRREDUCIBLE

 INPUT LIST - ATOM N.  53 NOT IRREDUCIBLE

 INPUT LIST - ATOM N.  57 NOT IRREDUCIBLE

 INPUT LIST - ATOM N.  54 NOT IRREDUCIBLE

 INPUT LIST - ATOM N.  58 NOT IRREDUCIBLE

 INPUT LIST - ATOM N.  55 NOT IRREDUCIBLE

 INPUT LIST - ATOM N.  59 NOT IRREDUCIBLE

 INPUT LIST - ATOM N.  56 NOT IRREDUCIBLE

 INPUT LIST - ATOM N.  60 NOT IRREDUCIBLE

 INPUT LIST - ATOM N.  61 NOT IRREDUCIBLE

 INPUT LIST - ATOM N.  62 NOT IRREDUCIBLE

 COORDINATES OF THE EQUIVALENT ATOMS (FRACTIONAL UNITS)

 N. ATOM EQUIV AT. N.          X                  Y                  Z

   1   1   1    1 H     1.57610000000E-01 -1.66480000000E-01  2.40890000000E-01
   2   1   2    1 H    -4.07370000000E-01 -8.32800000000E-02 -2.40890000000E-01
   3   1   3    1 H     1.66480000000E-01  4.07370000000E-01  3.24090000000E-01
   4   1   4    1 H     8.32800000000E-02 -1.57610000000E-01 -3.24090000000E-01

   5   2   1    1 H    -1.14000000000E-01  4.78810000000E-01 -3.95010000000E-01
   6   2   2    1 H    -1.26180000000E-01  2.81010000000E-01  3.95010000000E-01
   7   2   3    1 H    -4.78810000000E-01  1.26180000000E-01  4.07190000000E-01
   8   2   4    1 H    -2.81010000000E-01  1.14000000000E-01 -4.07190000000E-01















   9  17   1    6 C     1.53380000000E-01 -3.70310000000E-01  3.78300000000E-02
  10  17   2    6 C    -4.08140000000E-01  1.15550000000E-01 -3.78300000000E-02
  11  17   3    6 C     3.70310000000E-01  4.08140000000E-01 -4.76310000000E-01
  12  17   4    6 C    -1.15550000000E-01 -1.53380000000E-01  4.76310000000E-01

 NUMBER OF SYMMETRY OPERATORS         :    4
 *******************************************************************************
 * GEOMETRY EDITING - INPUT COORDINATES ARE GIVEN IN ANGSTROM         
 *******************************************************************************

 GEOMETRY NOW FULLY CONSISTENT WITH THE GROUP
 *******************************************************************************
 *  GEOMETRY EDITING
 *  THE SYMMETRY OF THE CRYSTAL IS KEPT AND APPLIED TO THE PERTURBATION
 *******************************************************************************
 INFORMATION **** NEW DEFAULT **** FINALRUN 4 FOR GEOMETRY OPTIMIZATIONS
 INFORMATION **** NEW DEFAULT **** OPTGEOM OPTIMIZES BOTH ATOMIC COORDINATES AND CELL PARAMETERS
 INFORMATION **** NEW DEFAULT **** TOL. ON ATOMIC DISP TO REDEFINE REF. GEOMETRY: 0.8 Angs
 INFORMATION **** NEW DEFAULT **** N POINTS TO REDEFINE REF. GEOMETRY: N OF OPT DEGS OF FREEDOM
 INFORMATION **** NEW DEFAULT **** TOL. ON ENERGY TO REDEFINE REF. GEOMETRY: 10**-3*(5*N. ATOMS)

 IMPORTANT INFORMATION:
 THE COORDINATE SYSTEM ADOPTED IN THE OPTIMIZATION IS NOT IN
 GENERAL HOMOGENEOUS UNITS. FOR THIS REASON THE GRADIENT AND 
 HESSIAN MATRIX IN TERMS OF THIS SYSTEM ARE GIVEN WITHOUT
 UNITS. FOR MORE DETAILS SEE THE MANUAL.

 *******************************************************************************
 COMBINED CELL/ATOM OPTIMIZATION CONTROL

 INITIAL TRUST RADIUS         0.50000 MAXIMUM TRUST RADIUS               4.00000
 MAXIMUM GRADIENT COMPONENT   0.00045 MAXIMUM DISPLACEMENT COMPONENT     0.00180
 R.M.S. OF GRADIENT COMPONENT 0.00030 R.M.S. OF DISPLACEMENT COMPONENTS  0.00120
 THRESHOLD ON ENERGY CHANGE 0.100E-06 EXTRAPOLATING POLYNOMIAL ORDER           2
 MAXIMUM ALLOWED NUMBER OF STEPS   -1 SORTING OF ENERGY POINTS:               NO
 ANALYTICAL  GRADIENT                 HESSIAN UPDATING                      BFGS
 STEP SIZE NUMERICAL GRADIENT 0.00100
 INITIAL HESSIAN MATRIX: SCHLEGEL MODEL 2
 *******************************************************************************


 GCALCO - MAX INDICES DIRECT LATTICE VECTOR    14    14    16
 NO.OF VECTORS CREATED 6999 STARS  487 RMAX   204.88857 BOHR

 GEOMETRY FOR WAVE FUNCTION - DIMENSIONALITY OF THE SYSTEM    3
 (NON PERIODIC DIRECTION: LATTICE PARAMETER FORMALLY SET TO 500)
 *******************************************************************************
 LATTICE PARAMETERS (ANGSTROMS AND DEGREES) - BOHR = 0.5291772083 ANGSTROM
 PRIMITIVE CELL - CENTRING CODE 6/0 VOLUME=   755.025418 - DENSITY  2.937 g/cm^3
         A              B              C           ALPHA      BETA       GAMMA 
    10.00261593    10.00261593    10.00261593   114.399989 114.399989 100.008338
 *******************************************************************************
 ATOMS IN THE ASYMMETRIC UNIT   17 - ATOMS IN THE UNIT CELL:   62
     ATOM                 X/A                 Y/B                 Z/C    
 *******************************************************************************
      1 T   1 H     1.576100000000E-01 -1.664800000000E-01  2.408900000000E-01
      2 F   1 H    -4.073700000000E-01 -8.328000000000E-02 -2.408900000000E-01
      3 F   1 H     1.664800000000E-01  4.073700000000E-01  3.240900000000E-01
      4 F   1 H     8.328000000000E-02 -1.576100000000E-01 -3.240900000000E-01
      5 T   1 H    -1.140000000000E-01  4.788100000000E-01 -3.950100000000E-01
      6 F   1 H    -1.261800000000E-01  2.810100000000E-01  3.950100000000E-01
      7 F   1 H    -4.788100000000E-01  1.261800000000E-01  4.071900000000E-01
      8 F   1 H    -2.810100000000E-01  1.140000000000E-01 -4.071900000000E-01
      9 T   6 C     1.533800000000E-01 -3.703100000000E-01  3.783000000000E-02
     10 F   6 C    -4.081400000000E-01  1.155500000000E-01 -3.783000000000E-02
     11 F   6 C     3.703100000000E-01  4.081400000000E-01 -4.763100000000E-01
     12 F   6 C    -1.155500000000E-01 -1.533800000000E-01  4.763100000000E-01
     13 T   6 C     2.867000000000E-01 -3.791400000000E-01  1.644000000000E-01
     14 F   6 C     4.564600000000E-01  1.223000000000E-01 -1.644000000000E-01
     15 F   6 C     3.791400000000E-01 -4.564600000000E-01 -3.341600000000E-01
     16 F   6 C    -1.223000000000E-01 -2.867000000000E-01  3.341600000000E-01
     17 T   6 C     7.245000000000E-02 -4.697700000000E-01 -1.456600000000E-01
     18 F   6 C    -3.241100000000E-01  2.181100000000E-01  1.456600000000E-01
     19 F   6 C     4.697700000000E-01  3.241100000000E-01 -4.577800000000E-01
     20 F   6 C    -2.181100000000E-01 -7.245000000000E-02  4.577800000000E-01
     21 T   6 C    -9.468000000000E-02 -3.270500000000E-01 -1.735100000000E-01
     22 F   6 C    -1.535400000000E-01  7.883000000000E-02  1.735100000000E-01
     23 F   6 C     3.270500000000E-01  1.535400000000E-01  2.323700000000E-01
     24 F   6 C    -7.883000000000E-02  9.468000000000E-02 -2.323700000000E-01
     25 T   6 C     9.859000000000E-02 -2.516400000000E-01  1.002900000000E-01
     26 F   6 C    -3.519300000000E-01 -1.700000000000E-03 -1.002900000000E-01
     27 F   6 C     2.516400000000E-01  3.519300000000E-01  3.502300000000E-01
     28 F   6 C     1.700000000000E-03 -9.859000000000E-02 -3.502300000000E-01
     29 T   6 C    -1.930200000000E-01  2.032100000000E-01  2.532900000000E-01
     30 F   6 C    -5.008000000000E-02 -4.463100000000E-01 -2.532900000000E-01
     31 F   6 C    -2.032100000000E-01  5.008000000000E-02 -3.962300000000E-01
     32 F   6 C     4.463100000000E-01  1.930200000000E-01  3.962300000000E-01
     33 T   7 N     3.270900000000E-01 -3.160700000000E-01  3.328800000000E-01
     34 F   7 N     3.510500000000E-01 -5.790000000000E-03 -3.328800000000E-01
     35 F   7 N     3.160700000000E-01 -3.510500000000E-01 -3.568400000000E-01
     36 F   7 N     5.790000000000E-03 -3.270900000000E-01  3.568400000000E-01
     37 T   7 N     4.663400000000E-01 -3.299100000000E-01  4.194500000000E-01
     38 F   7 N     2.506400000000E-01  4.689000000000E-02 -4.194500000000E-01
     39 F   7 N     3.299100000000E-01 -2.506400000000E-01 -2.037500000000E-01
     40 F   7 N    -4.689000000000E-02 -4.663400000000E-01  2.037500000000E-01
     41 T   7 N     3.982400000000E-01 -4.338800000000E-01  1.479800000000E-01
     42 F   7 N     4.181400000000E-01  2.502600000000E-01 -1.479800000000E-01
     43 F   7 N     4.338800000000E-01 -4.181400000000E-01 -1.678800000000E-01
     44 F   7 N    -2.502600000000E-01 -3.982400000000E-01  1.678800000000E-01
     45 T   7 N    -4.917600000000E-01 -4.003000000000E-01  3.095400000000E-01
     46 F   7 N     2.901600000000E-01  1.987000000000E-01 -3.095400000000E-01
     47 F   7 N     4.003000000000E-01 -2.901600000000E-01 -9.146000000000E-02
     48 F   7 N    -1.987000000000E-01  4.917600000000E-01  9.146000000000E-02
     49 T   7 N    -2.372000000000E-02 -2.325700000000E-01 -2.130000000000E-03
     50 F   7 N    -2.304400000000E-01 -2.159000000000E-02  2.130000000000E-03
     51 F   7 N     2.325700000000E-01  2.304400000000E-01  2.088500000000E-01
     52 F   7 N     2.159000000000E-02  2.372000000000E-02 -2.088500000000E-01
     53 T  35 BR    1.179200000000E-01  3.741500000000E-01 -2.465700000000E-01
     54 F  35 BR   -3.792800000000E-01  3.644900000000E-01  2.465700000000E-01
     55 F  35 BR   -3.741500000000E-01  3.792800000000E-01 -2.562300000000E-01
     56 F  35 BR   -3.644900000000E-01 -1.179200000000E-01  2.562300000000E-01
     57 T  35 BR   -2.573400000000E-01 -3.088100000000E-01 -3.105900000000E-01
     58 F  35 BR    1.780000000000E-03  5.325000000000E-02  3.105900000000E-01
     59 F  35 BR    3.088100000000E-01 -1.780000000000E-03  5.147000000000E-02
     60 F  35 BR   -5.325000000000E-02  2.573400000000E-01 -5.147000000000E-02
     61 T  30 ZN    2.500000000000E-01 -2.500000000000E-01 -5.000000000000E-01
     62 T  30 ZN   -5.000000000000E-01 -5.000000000000E-01  1.848892746612E-32

 TRANSFORMATION MATRIX PRIMITIVE-CRYSTALLOGRAPHIC CELL
  0.0000  1.0000  1.0000  1.0000  0.0000  1.0000  1.0000  1.0000  0.0000

 *******************************************************************************
 CRYSTALLOGRAPHIC CELL (VOLUME=       1510.05083620)
         A              B              C           ALPHA      BETA       GAMMA 
    10.83700000    10.83700000    12.85800000    90.000000  90.000000  90.000000

 COORDINATES IN THE CRYSTALLOGRAPHIC CELL
     ATOM                 X/A                 Y/B                 Z/C    
 *******************************************************************************
      1 T   1 H    -4.160000000000E-02  2.824900000000E-01 -1.248800000000E-01
      2 F   1 H     4.160000000000E-02 -2.824900000000E-01 -1.248800000000E-01
      3 F   1 H     2.824900000000E-01  4.160000000000E-02  1.248800000000E-01
      4 F   1 H    -2.824900000000E-01 -4.160000000000E-02  1.248800000000E-01
      5 T   1 H    -4.011000000000E-01  6.090000000000E-03 -1.200900000000E-01
      6 F   1 H     4.011000000000E-01 -6.090000000000E-03 -1.200900000000E-01
      7 F   1 H     6.090000000000E-03  4.011000000000E-01  1.200900000000E-01
      8 F   1 H    -6.090000000000E-03 -4.011000000000E-01  1.200900000000E-01
      9 T   6 C    -2.429300000000E-01  2.807600000000E-01 -1.273800000000E-01
     10 F   6 C     2.429300000000E-01 -2.807600000000E-01 -1.273800000000E-01
     11 F   6 C     2.807600000000E-01  2.429300000000E-01  1.273800000000E-01
     12 F   6 C    -2.807600000000E-01 -2.429300000000E-01  1.273800000000E-01
     13 T   6 C    -2.507200000000E-01  4.151200000000E-01 -1.284200000000E-01
     14 F   6 C     2.507200000000E-01 -4.151200000000E-01 -1.284200000000E-01
     15 F   6 C     4.151200000000E-01  2.507200000000E-01  1.284200000000E-01
     16 F   6 C    -4.151200000000E-01 -2.507200000000E-01  1.284200000000E-01
     17 T   6 C    -3.439400000000E-01  1.982800000000E-01 -1.258300000000E-01
     18 F   6 C     3.439400000000E-01 -1.982800000000E-01 -1.258300000000E-01
     19 F   6 C     1.982800000000E-01  3.439400000000E-01  1.258300000000E-01
     20 F   6 C    -1.982800000000E-01 -3.439400000000E-01  1.258300000000E-01
     21 T   6 C    -2.029400000000E-01  2.943000000000E-02 -1.241100000000E-01
     22 F   6 C     2.029400000000E-01 -2.943000000000E-02 -1.241100000000E-01
     23 F   6 C     2.943000000000E-02  2.029400000000E-01  1.241100000000E-01
     24 F   6 C    -2.943000000000E-02 -2.029400000000E-01  1.241100000000E-01
     25 T   6 C    -1.249700000000E-01  2.252600000000E-01 -1.266700000000E-01
     26 F   6 C     1.249700000000E-01 -2.252600000000E-01 -1.266700000000E-01
     27 F   6 C     2.252600000000E-01  1.249700000000E-01  1.266700000000E-01
     28 F   6 C    -2.252600000000E-01 -1.249700000000E-01  1.266700000000E-01
     29 T   6 C     3.247600000000E-01 -7.147000000000E-02 -1.215500000000E-01
     30 F   6 C    -3.247600000000E-01  7.147000000000E-02 -1.215500000000E-01
     31 F   6 C    -7.147000000000E-02 -3.247600000000E-01  1.215500000000E-01
     32 F   6 C     7.147000000000E-02  3.247600000000E-01  1.215500000000E-01
     33 T   7 N     3.448600000000E-01 -1.198000000000E-02  3.390700000000E-01
     34 F   7 N    -3.448600000000E-01  1.198000000000E-02  3.390700000000E-01
     35 F   7 N    -1.198000000000E-02 -3.448600000000E-01 -3.390700000000E-01
     36 F   7 N     1.198000000000E-02  3.448600000000E-01 -3.390700000000E-01
     37 T   7 N    -1.884000000000E-01 -3.921500000000E-01 -1.415100000000E-01
     38 F   7 N     1.884000000000E-01  3.921500000000E-01 -1.415100000000E-01
     39 F   7 N    -3.921500000000E-01  1.884000000000E-01  1.415100000000E-01
     40 F   7 N     3.921500000000E-01 -1.884000000000E-01  1.415100000000E-01
     41 T   7 N     1.579300000000E-01 -9.950000000000E-03  4.081900000000E-01
     42 F   7 N    -1.579300000000E-01  9.950000000000E-03  4.081900000000E-01
     43 F   7 N    -9.950000000000E-03 -1.579300000000E-01 -4.081900000000E-01
     44 F   7 N     9.950000000000E-03  1.579300000000E-01 -4.081900000000E-01
     45 T   7 N    -2.995000000000E-01 -3.909600000000E-01 -1.008000000000E-01
     46 F   7 N     2.995000000000E-01  3.909600000000E-01 -1.008000000000E-01
     47 F   7 N    -3.909600000000E-01  2.995000000000E-01  1.008000000000E-01
     48 F   7 N     3.909600000000E-01 -2.995000000000E-01  1.008000000000E-01
     49 T   7 N    -1.054900000000E-01  1.033600000000E-01 -1.270800000000E-01
     50 F   7 N     1.054900000000E-01 -1.033600000000E-01 -1.270800000000E-01
     51 F   7 N     1.033600000000E-01  1.054900000000E-01  1.270800000000E-01
     52 F   7 N    -1.033600000000E-01 -1.054900000000E-01  1.270800000000E-01
     53 T  35 BR    4.830000000000E-03 -2.514000000000E-01  3.693200000000E-01
     54 F  35 BR   -4.830000000000E-03  2.514000000000E-01  3.693200000000E-01
     55 F  35 BR   -2.514000000000E-01 -4.830000000000E-03 -3.693200000000E-01
     56 F  35 BR    2.514000000000E-01  4.830000000000E-03 -3.693200000000E-01
     57 T  35 BR   -1.810300000000E-01 -1.295600000000E-01 -1.277800000000E-01
     58 F  35 BR    1.810300000000E-01  1.295600000000E-01 -1.277800000000E-01
     59 F  35 BR   -1.295600000000E-01  1.810300000000E-01  1.277800000000E-01
     60 F  35 BR    1.295600000000E-01 -1.810300000000E-01  1.277800000000E-01
     61 T  30 ZN   -5.000000000000E-01  0.000000000000E+00  2.500000000000E-01
     62 T  30 ZN    9.244463733059E-33  9.244463733059E-33 -5.000000000000E-01

 T = ATOM BELONGING TO THE ASYMMETRIC UNIT

 ****    4 SYMMOPS - TRANSLATORS IN FRACTIONAL UNITS
 **** MATRICES AND TRANSLATORS IN THE CRYSTALLOGRAPHIC REFERENCE FRAME
   V INV                    ROTATION MATRICES                   TRANSLATORS
   1   1  1.00  0.00  0.00  0.00  1.00  0.00  0.00  0.00  1.00  0.00  0.00  0.00
   2   2  0.00  1.00 -1.00  1.00 -0.00 -1.00  0.00  0.00 -1.00  0.00  0.00  0.00
   3   4  0.00 -1.00  0.00  0.00 -1.00  1.00  1.00 -1.00  0.00  0.00  0.00  0.00
   4   3 -1.00  0.00  1.00 -1.00  0.00 -0.00 -1.00  1.00  0.00  0.00  0.00  0.00

 DIRECT LATTICE VECTORS CARTESIAN COMPONENTS (ANGSTROM)
          X                    Y                    Z
  -0.541850000000E+01   0.541850000000E+01   0.642900000000E+01
   0.541850000000E+01  -0.541850000000E+01   0.642900000000E+01
   0.541850000000E+01   0.541850000000E+01  -0.642900000000E+01


 CARTESIAN COORDINATES - PRIMITIVE CELL
 *******************************************************************************
 *      ATOM          X(ANGSTROM)         Y(ANGSTROM)         Z(ANGSTROM)
 *******************************************************************************
    1     1 H    -4.508192000000E-01  3.061344130000E+00 -1.605707040000E+00
    2     1 H     4.508192000000E-01 -3.061344130000E+00 -1.605707040000E+00
    3     1 H     3.061344130000E+00  4.508192000000E-01  1.605707040000E+00
    4     1 H    -3.061344130000E+00 -4.508192000000E-01  1.605707040000E+00
    5     1 H    -4.346720700000E+00  6.599733000000E-02 -1.544117220000E+00
    6     1 H     4.346720700000E+00 -6.599733000000E-02 -1.544117220000E+00
    7     1 H     6.599733000000E-02  4.346720700000E+00  1.544117220000E+00
    8     1 H    -6.599733000000E-02 -4.346720700000E+00  1.544117220000E+00
    9     6 C    -2.632632410000E+00  3.042596120000E+00 -1.637852040000E+00
   10     6 C     2.632632410000E+00 -3.042596120000E+00 -1.637852040000E+00
   11     6 C     3.042596120000E+00  2.632632410000E+00  1.637852040000E+00
   12     6 C    -3.042596120000E+00 -2.632632410000E+00  1.637852040000E+00
   13     6 C    -2.717052640000E+00  4.498655440000E+00 -1.651224360000E+00
   14     6 C     2.717052640000E+00 -4.498655440000E+00 -1.651224360000E+00
   15     6 C     4.498655440000E+00  2.717052640000E+00  1.651224360000E+00
   16     6 C    -4.498655440000E+00 -2.717052640000E+00  1.651224360000E+00
   17     6 C    -3.727277780000E+00  2.148760360000E+00 -1.617922140000E+00
   18     6 C     3.727277780000E+00 -2.148760360000E+00 -1.617922140000E+00
   19     6 C     2.148760360000E+00  3.727277780000E+00  1.617922140000E+00
   20     6 C    -2.148760360000E+00 -3.727277780000E+00  1.617922140000E+00
   21     6 C    -2.199260780000E+00  3.189329100000E-01 -1.595806380000E+00
   22     6 C     2.199260780000E+00 -3.189329100000E-01 -1.595806380000E+00
   23     6 C     3.189329100000E-01  2.199260780000E+00  1.595806380000E+00
   24     6 C    -3.189329100000E-01 -2.199260780000E+00  1.595806380000E+00
   25     6 C    -1.354299890000E+00  2.441142620000E+00 -1.628722860000E+00
   26     6 C     1.354299890000E+00 -2.441142620000E+00 -1.628722860000E+00
   27     6 C     2.441142620000E+00  1.354299890000E+00  1.628722860000E+00
   28     6 C    -2.441142620000E+00 -1.354299890000E+00  1.628722860000E+00
   29     6 C     3.519424120000E+00 -7.745203900000E-01 -1.562889900000E+00
   30     6 C    -3.519424120000E+00  7.745203900000E-01 -1.562889900000E+00
   31     6 C    -7.745203900000E-01 -3.519424120000E+00  1.562889900000E+00
   32     6 C     7.745203900000E-01  3.519424120000E+00  1.562889900000E+00
   33     7 N     3.737247820000E+00 -1.298272600000E-01  4.359762060000E+00
   34     7 N    -3.737247820000E+00  1.298272600000E-01  4.359762060000E+00
   35     7 N    -1.298272600000E-01 -3.737247820000E+00 -4.359762060000E+00
   36     7 N     1.298272600000E-01  3.737247820000E+00 -4.359762060000E+00
   37     7 N    -2.041690800000E+00 -4.249729550000E+00 -1.819535580000E+00
   38     7 N     2.041690800000E+00  4.249729550000E+00 -1.819535580000E+00
   39     7 N    -4.249729550000E+00  2.041690800000E+00  1.819535580000E+00
   40     7 N     4.249729550000E+00 -2.041690800000E+00  1.819535580000E+00
   41     7 N     1.711487410000E+00 -1.078281500000E-01  5.248507020000E+00
   42     7 N    -1.711487410000E+00  1.078281500000E-01  5.248507020000E+00
   43     7 N    -1.078281500000E-01 -1.711487410000E+00 -5.248507020000E+00
   44     7 N     1.078281500000E-01  1.711487410000E+00 -5.248507020000E+00
   45     7 N    -3.245681500000E+00 -4.236833520000E+00 -1.296086400000E+00
   46     7 N     3.245681500000E+00  4.236833520000E+00 -1.296086400000E+00
   47     7 N    -4.236833520000E+00  3.245681500000E+00  1.296086400000E+00
   48     7 N     4.236833520000E+00 -3.245681500000E+00  1.296086400000E+00
   49     7 N    -1.143195130000E+00  1.120112320000E+00 -1.633994640000E+00
   50     7 N     1.143195130000E+00 -1.120112320000E+00 -1.633994640000E+00
   51     7 N     1.120112320000E+00  1.143195130000E+00  1.633994640000E+00
   52     7 N    -1.120112320000E+00 -1.143195130000E+00  1.633994640000E+00
   53    35 BR    5.234271000000E-02 -2.724421800000E+00  4.748716560000E+00
   54    35 BR   -5.234271000000E-02  2.724421800000E+00  4.748716560000E+00
   55    35 BR   -2.724421800000E+00 -5.234271000000E-02 -4.748716560000E+00
   56    35 BR    2.724421800000E+00  5.234271000000E-02 -4.748716560000E+00
   57    35 BR   -1.961822110000E+00 -1.404041720000E+00 -1.642995240000E+00
   58    35 BR    1.961822110000E+00  1.404041720000E+00 -1.642995240000E+00
   59    35 BR   -1.404041720000E+00  1.961822110000E+00  1.642995240000E+00
   60    35 BR    1.404041720000E+00 -1.961822110000E+00  1.642995240000E+00
   61    30 ZN    5.418500000000E+00  0.000000000000E+00 -9.643500000000E+00
   62    30 ZN    1.001822534752E-31  1.001822534752E-31  6.429000000000E+00

 *******************************************************************************
 STARTING BASIS SET HANDLING 
 *******************************************************************************

 Loading internal basis set: POB-DZVPP           

 Please cite in your publication:
 Peintinger, M. F., Oliveira, D. V. and Bredow, T. (2013), Generally applicable 
 solid-state Gaussian basis sets, in preparation                                
                                                                                
                    

 *******************************************************************************
 LOCAL ATOMIC FUNCTIONS BASIS SET
 *******************************************************************************
   ATOM   X(AU)   Y(AU)   Z(AU)  N. TYPE  EXPONENT  S COEF   P COEF   D/F/G COEF
 *******************************************************************************
   1 H   -0.852   5.785  -3.034
                                  1 S  
                                         2.263E+01 1.441E-02 0.000E+00 0.000E+00
                                         3.236E+00 1.072E-01 0.000E+00 0.000E+00
                                         7.304E-01 3.846E-01 0.000E+00 0.000E+00
                                  2 S  
                                         1.417E-01 1.000E+00 0.000E+00 0.000E+00
                           3-     5 P  
                                         3.944E-01 0.000E+00 1.000E+00 0.000E+00
                           6-     8 P  
                                         1.006E-01 0.000E+00 1.000E+00 0.000E+00
   2 H    0.852  -5.785  -3.034
   3 H    5.785   0.852   3.034
   4 H   -5.785  -0.852   3.034
   5 H   -8.214   0.125  -2.918
   6 H    8.214  -0.125  -2.918
   7 H    0.125   8.214   2.918
   8 H   -0.125  -8.214   2.918
   9 C   -4.975   5.750  -3.095
                                 65 S  
                                         1.238E+03 5.457E-03 0.000E+00 0.000E+00
                                         1.863E+02 4.064E-02 0.000E+00 0.000E+00
                                         4.225E+01 1.803E-01 0.000E+00 0.000E+00
                                         1.168E+01 4.632E-01 0.000E+00 0.000E+00
                                         3.593E+00 4.409E-01 0.000E+00 0.000E+00
                                 66 S  
                                         5.281E+00 1.000E+00 0.000E+00 0.000E+00
                                 67 S  
                                         4.447E-01 1.000E+00 0.000E+00 0.000E+00
                          68-    70 P  
                                         9.468E+00 0.000E+00 3.839E-02 0.000E+00
                                         2.010E+00 0.000E+00 2.112E-01 0.000E+00
                                         5.477E-01 0.000E+00 5.133E-01 0.000E+00
                          71-    73 P  
                                         1.604E-01 0.000E+00 1.000E+00 0.000E+00
                          74-    78 D  
                                         6.070E-01 0.000E+00 0.000E+00 1.000E+00
                          79-    83 D  
                                         2.939E-01 0.000E+00 0.000E+00 1.000E+00
  10 C    4.975  -5.750  -3.095
  11 C    5.750   4.975   3.095
  12 C   -5.750  -4.975   3.095
  13 C   -5.134   8.501  -3.120
  14 C    5.134  -8.501  -3.120
  15 C    8.501   5.134   3.120
  16 C   -8.501  -5.134   3.120
  17 C   -7.044   4.061  -3.057
  18 C    7.044  -4.061  -3.057
  19 C    4.061   7.044   3.057
  20 C   -4.061  -7.044   3.057
  21 C   -4.156   0.603  -3.016
  22 C    4.156  -0.603  -3.016
  23 C    0.603   4.156   3.016
  24 C   -0.603  -4.156   3.016
  25 C   -2.559   4.613  -3.078
  26 C    2.559  -4.613  -3.078
  27 C    4.613   2.559   3.078
  28 C   -4.613  -2.559   3.078
  29 C    6.651  -1.464  -2.953
  30 C   -6.651   1.464  -2.953
  31 C   -1.464  -6.651   2.953
  32 C    1.464   6.651   2.953
  33 N    7.062  -0.245   8.239
                                521 S  
                                         1.713E+03-5.393E-03 0.000E+00 0.000E+00
                                         2.576E+02-4.022E-02 0.000E+00 0.000E+00
                                         5.846E+01-1.793E-01 0.000E+00 0.000E+00
                                         1.620E+01-4.638E-01 0.000E+00 0.000E+00
                                         5.005E+00-4.417E-01 0.000E+00 0.000E+00
                                522 S  
                                         6.217E-01 1.000E+00 0.000E+00 0.000E+00
                                523 S  
                                         2.921E-01 1.000E+00 0.000E+00 0.000E+00
                         524-   526 P  
                                         1.357E+01 0.000E+00-4.007E-02 0.000E+00
                                         2.926E+00 0.000E+00-2.181E-01 0.000E+00
                                         7.993E-01 0.000E+00-5.129E-01 0.000E+00
                         527-   529 P  
                                         2.244E-01 0.000E+00 1.000E+00 0.000E+00
                         530-   534 D  
                                         3.118E-01 0.000E+00 0.000E+00 1.000E+00
  34 N   -7.062   0.245   8.239
  35 N   -0.245  -7.062  -8.239
  36 N    0.245   7.062  -8.239
  37 N   -3.858  -8.031  -3.438
  38 N    3.858   8.031  -3.438
  39 N   -8.031   3.858   3.438
  40 N    8.031  -3.858   3.438
  41 N    3.234  -0.204   9.918
  42 N   -3.234   0.204   9.918
  43 N   -0.204  -3.234  -9.918
  44 N    0.204   3.234  -9.918
  45 N   -6.133  -8.006  -2.449
  46 N    6.133   8.006  -2.449
  47 N   -8.006   6.133   2.449
  48 N    8.006  -6.133   2.449
  49 N   -2.160   2.117  -3.088
  50 N    2.160  -2.117  -3.088
  51 N    2.117   2.160   3.088
  52 N   -2.117  -2.160   3.088
  53 BR   0.099  -5.148   8.974
                                801 S  
                                         1.133E+05 1.428E-03 0.000E+00 0.000E+00
                                         1.701E+04 1.095E-02 0.000E+00 0.000E+00
                                         3.870E+03 5.442E-02 0.000E+00 0.000E+00
                                         1.093E+03 1.905E-01 0.000E+00 0.000E+00
                                         3.564E+02 3.902E-01 0.000E+00 0.000E+00
                                         1.231E+02 3.081E-01 0.000E+00 0.000E+00
                                802 S  
                                         2.367E+02-1.123E-01 0.000E+00 0.000E+00
                                         2.847E+01 6.478E-01 0.000E+00 0.000E+00
                                         1.188E+01 4.424E-01 0.000E+00 0.000E+00
                                803 S  
                                         2.127E+01-2.264E-01 0.000E+00 0.000E+00
                                         3.613E+00 7.382E-01 0.000E+00 0.000E+00
                                         1.663E+00 4.268E-01 0.000E+00 0.000E+00
                                804 S  
                                         3.641E-01 1.000E+00 0.000E+00 0.000E+00
                                805 S  
                                         1.243E-01 1.000E+00 0.000E+00 0.000E+00
                         806-   808 P  
                                         1.560E+03 0.000E+00 8.717E-03 0.000E+00
                                         3.685E+02 0.000E+00 6.624E-02 0.000E+00
                                         1.172E+02 0.000E+00 2.650E-01 0.000E+00
                                         4.265E+01 0.000E+00 5.384E-01 0.000E+00
                                         1.609E+01 0.000E+00 3.658E-01 0.000E+00
                         809-   811 P  
                                         8.635E+00 0.000E+00 3.425E-01 0.000E+00
                                         3.561E+00 0.000E+00 5.750E-01 0.000E+00
                                         1.529E+00 0.000E+00 2.433E-01 0.000E+00
                         812-   814 P  
                                         6.447E-01 0.000E+00 1.000E+00 0.000E+00
                         815-   817 P  
                                         2.103E-01 0.000E+00 1.000E+00 0.000E+00
                         818-   822 D  
                                         1.049E+02 0.000E+00 0.000E+00 2.265E-02
                                         3.028E+01 0.000E+00 0.000E+00 1.346E-01
                                         1.065E+01 0.000E+00 0.000E+00 3.647E-01
                                         3.870E+00 0.000E+00 0.000E+00 4.904E-01
                         823-   827 D  
                                         1.342E+00 0.000E+00 0.000E+00 1.000E+00
                         828-   832 D  
                                         4.101E-01 0.000E+00 0.000E+00 1.000E+00
                         833-   837 D  
                                         1.985E-01 0.000E+00 0.000E+00 1.000E+00
  54 BR  -0.099   5.148   8.974
  55 BR  -5.148  -0.099  -8.974
  56 BR   5.148   0.099  -8.974
  57 BR  -3.707  -2.653  -3.105
  58 BR   3.707   2.653  -3.105
  59 BR  -2.653   3.707   3.105
  60 BR   2.653  -3.707   3.105
  61 ZN  10.239   0.000 -18.224
                               1097 S  
                                         8.200E+04 1.421E-03 0.000E+00 0.000E+00
                                         1.231E+04 1.089E-02 0.000E+00 0.000E+00
                                         2.801E+03 5.406E-02 0.000E+00 0.000E+00
                                         7.910E+02 1.885E-01 0.000E+00 0.000E+00
                                         2.576E+02 3.835E-01 0.000E+00 0.000E+00
                                         8.881E+01 2.972E-01 0.000E+00 0.000E+00
                               1098 S  
                                         1.719E+02-1.105E-01 0.000E+00 0.000E+00
                                         2.030E+01 6.461E-01 0.000E+00 0.000E+00
                                         8.346E+00 4.422E-01 0.000E+00 0.000E+00
                               1099 S  
                                         1.485E+01-2.271E-01 0.000E+00 0.000E+00
                                         2.450E+00 7.243E-01 0.000E+00 0.000E+00
                                         9.985E-01 4.484E-01 0.000E+00 0.000E+00
                               1100 S  
                                         1.493E+00 1.000E+00 0.000E+00 0.000E+00
                               1101 S  
                                         1.830E-01 1.000E+00 0.000E+00 0.000E+00
                        1102-  1104 P  
                                         1.072E+03 0.000E+00 9.277E-03 0.000E+00
                                         2.527E+02 0.000E+00 6.954E-02 0.000E+00
                                         8.010E+01 0.000E+00 2.716E-01 0.000E+00
                                         2.890E+01 0.000E+00 5.340E-01 0.000E+00
                                         1.077E+01 0.000E+00 3.450E-01 0.000E+00
                        1105-  1107 P  
                                         5.645E+00 0.000E+00 3.413E-01 0.000E+00
                                         2.168E+00 0.000E+00 5.639E-01 0.000E+00
                                         8.054E-01 0.000E+00 2.368E-01 0.000E+00
                        1108-  1110 P  
                                         2.721E-01 0.000E+00 1.000E+00 0.000E+00
                        1111-  1115 D  
                                         5.609E+01 0.000E+00 0.000E+00 2.959E-02
                                         1.575E+01 0.000E+00 0.000E+00 1.587E-01
                                         5.312E+00 0.000E+00 0.000E+00 3.798E-01
                                         1.774E+00 0.000E+00 0.000E+00 4.690E-01
                        1116-  1120 D  
                                         5.073E-01 0.000E+00 0.000E+00 1.000E+00
                        1121-  1127 F  
                                         2.814E+00 0.000E+00 0.000E+00 1.000E+00
                        1128-  1134 F  
                                         1.300E+00 0.000E+00 0.000E+00 1.000E+00
  62 ZN   0.000   0.000  12.149

 *******************************************************************************
 FINISHED BASIS SET HANDLING 
 *******************************************************************************

 INFORMATION **** SET_MPP **** PCRYSTAL CALCULATION
 INFORMATION **** READM2 **** NEW DEFAULT: FOCK/KS MATRIX MIXING SET TO 30 %
 INFORMATION **** READM2 **** NEW DEFAULT: FULL DIRECT SCF MODE
 INFORMATION **** READM2 **** NEW DEFAULT: COULOMB BIPOLAR BUFFER SET TO 32 Mb
 INFORMATION **** READM2 **** NEW DEFAULT: EXCHANGE BIPOLAR BUFFER SET TO 32 Mb

 *******************************************************************************
 NEW DEFAULT: DFT INTEGRATION GRID INCREASED TO XLGRID
 NEW DEFAULT: DIIS ACCELERATOR ACTIVE
 USE KEYWORD NODIIS TO TURN IT OFF
 *******************************************************************************

 INFORMATION **** DFTD3_INPUT **** PERFORM DISPERSION CORRECTION DFT-D3(BJ) IN THE BECKE-JOHNSON DAMPING SCHEME

 PLEASE CITE:
 (1) DFT-D3 Reference
  S. Grimme, J. Antony, S. Ehrlich, and H. Krieg, J. Chem. Phys. 132 (2010), 154104
 (2) BJ-Damping Reference
  S. Grimme, S. Ehrlich, and L. Goerigk, J. Comput. Chem. 32 (2011), 1456-1465
 (3) General DFT-D Review
  S. Grimme, A. Hansen, J. G. Brandenburg, and C. Bannwarth,
  Chem. Rev. 116 (2016), 5105-5154

 INFORMATION **** BIPOSIZE **** COULOMB BIPOLAR BUFFER SET TO    30000000
 INFORMATION **** EXCHSIZE **** EXCHANGE BIPOLAR BUFFER SIZE SET TO    30000000
 INFORMATION **** TOLINTEG **** COULOMB AND EXCHANGE SERIES TOLERANCES MODIFIED
 INFORMATION **** MAXCYCLE **** MAX NUMBER OF SCF CYCLES SET TO        1000
 *******************************************************************************
 N. OF ATOMS PER CELL        62  COULOMB OVERLAP TOL         (T1) 10**  -12
 NUMBER OF SHELLS           448  COULOMB PENETRATION TOL     (T2) 10**  -12
 NUMBER OF AO              1172  EXCHANGE OVERLAP TOL        (T3) 10**   20
 N. OF ELECTRONS PER CELL   632  EXCHANGE PSEUDO OVP (F(G))  (T4) 10**   20
 CORE ELECTRONS PER CELL    348  EXCHANGE PSEUDO OVP (P(G))  (T5) 10**   20
 N. OF SYMMETRY OPERATORS     4  POLE ORDER IN MONO ZONE                  4
 *******************************************************************************
 TYPE OF CALCULATION :  RESTRICTED CLOSED SHELL
 KOHN-SHAM HAMILTONIAN

 (EXCHANGE)[CORRELATION] FUNCTIONAL:(PERDEW-BURKE-ERNZERHOF)[PERDEW-BURKE-ERNZERHOF]


 CAPPA:IS1  3;IS2  3;IS3  3; K PTS MONK NET   6; SYMMOPS:K SPACE   8;G SPACE   4

 *******************************************************************************
 MAX NUMBER OF SCF CYCLES    1000  CONVERGENCE ON DELTAP        10**-16
 WEIGHT OF F(I) IN F(I+1)      30% CONVERGENCE ON ENERGY        10**- 7
 SHRINK. FACT.(MONKH.)    3  3  3  NUMBER OF K POINTS IN THE IBZ      6
 SHRINKING FACTOR(GILAT NET)    3  NUMBER OF K POINTS(GILAT NET)      6
 *******************************************************************************
 *** K POINTS COORDINATES (OBLIQUE COORDINATES IN UNITS OF IS =  3)
   1-R(  0  0  0)   2-C(  1  0  0)   3-C(  1  1  0)   4-C(  2  1  0)
   5-C(  2  1  1)   6-C(  2  2  1)

 DIRECT LATTICE VECTORS COMPON. (A.U.)     RECIP. LATTICE VECTORS COMPON. (A.U.) 
        X            Y            Z              X            Y            Z
  -10.2394811   10.2394811   12.1490493      0.0000000    0.3068117    0.2585875
   10.2394811  -10.2394811   12.1490493      0.3068117    0.0000000    0.2585875
   10.2394811   10.2394811  -12.1490493      0.3068117    0.3068117    0.0000000

 DISK SPACE FOR EIGENVECTORS (FTN 10)    15109424 REALS

 SYMMETRY ADAPTION OF THE BLOCH FUNCTIONS ENABLED
 TTTTTTTTTTTTTTTTTTTTTTTTTTTTTT gordsh1     TELAPSE        3.98 TCPU        0.05

 MATRIX SIZE: P(G) 2164212, F(G) 1082916, P(G) IRR  273291, F(G) IRR  273291
 MAX G-VECTOR INDEX FOR 1- AND 2-ELECTRON INTEGRALS  59

 TTTTTTTTTTTTTTTTTTTTTTTTTTTTTT INPUT       TELAPSE        4.12 TCPU        0.11

 NEIGHBORS OF THE NON-EQUIVALENT ATOMS

 N = NUMBER OF NEIGHBORS AT DISTANCE R
    ATOM  N     R/ANG      R/AU   NEIGHBORS (ATOM LABELS AND CELL INDICES)
   1 H    1     1.0961     2.0713   25 C    0 0 0
   1 H    1     2.0612     3.8951   49 N    0 0 0
   1 H    1     2.1821     4.1236    9 C    0 0 0
   1 H    1     2.5865     4.8877   33 N    0-1 0
   1 H    1     2.6840     5.0720   13 C    0 0 0
   1 H    1     2.7696     5.2338   38 N    0 0 0

   5 H    1     1.0894     2.0587   30 C    0 0 0
   5 H    1     2.1476     4.0584    6 H    0-1-1
   5 H    1     2.1629     4.0873   21 C    0 0 0
   5 H    1     2.1742     4.1086   17 C    0 0 0
   5 H    1     2.8033     5.2975   57 BR   0 0 0
   5 H    1     2.8222     5.3331   53 BR   0-1 0

   9 C    1     1.4128     2.6698   25 C    0 0 0
   9 C    1     1.4134     2.6709   17 C    0 0 0
   9 C    1     1.4586     2.7563   13 C    0 0 0
   9 C    1     2.1821     4.1236    1 H    0 0 0
   9 C    1     2.4320     4.5957   49 N    0 0 0
   9 C    1     2.4364     4.6042   30 C    0 0 0

  13 C    1     1.3642     2.5779   41 N    0-1 0
  13 C    1     1.3681     2.5854   33 N    0-1 0
  13 C    1     1.4586     2.7563    9 C    0 0 0
  13 C    1     2.1959     4.1496   45 N    1 0 1
  13 C    1     2.2015     4.1603   37 N    1 0 1
  13 C    1     2.4680     4.6638   25 C    0 0 0

  17 C    1     1.3910     2.6285   30 C    0 0 0
  17 C    1     1.4134     2.6709    9 C    0 0 0
  17 C    1     1.7283     3.2661   53 BR   0-1 0
  17 C    1     2.1742     4.1086    5 H    0 0 0
  17 C    1     2.3840     4.5052   21 C    0 0 0
  17 C    1     2.3909     4.5182   25 C    0 0 0

  21 C    1     1.3261     2.5060   49 N    0 0 0
  21 C    1     1.3970     2.6399   30 C    0 0 0
  21 C    1     1.7399     3.2879   57 BR   0 0 0
  21 C    1     2.1629     4.0873    5 H    0 0 0
  21 C    1     2.2845     4.3170   25 C    0 0 0
  21 C    1     2.3840     4.5052   17 C    0 0 0

  25 C    1     1.0961     2.0713    1 H    0 0 0
  25 C    1     1.3378     2.5281   49 N    0 0 0
  25 C    1     1.4128     2.6698    9 C    0 0 0
  25 C    1     2.2845     4.3170   21 C    0 0 0
  25 C    1     2.3909     4.5182   17 C    0 0 0
  25 C    1     2.4680     4.6638   13 C    0 0 0

  29 C    1     1.0894     2.0587    6 H    0 0 0
  29 C    1     1.3910     2.6285   18 C    0 0 0
  29 C    1     1.3970     2.6399   22 C    0 0 0
  29 C    1     2.4023     4.5397   50 N    0 0 0
  29 C    1     2.4364     4.6042   10 C    0 0 0
  29 C    1     2.6663     5.0385   54 BR  -1 0 0

  33 N    1     1.3681     2.5854   13 C    0 1 0
  33 N    1     1.3706     2.5901   37 N    1 1 1
  33 N    1     2.0384     3.8520   61 ZN   1 1 0
  33 N    1     2.1829     4.1252   45 N    1 1 1
  33 N    1     2.2123     4.1805   41 N    0 0 0
  33 N    1     2.4771     4.6811    9 C    0 1 0

  37 N    1     1.3129     2.4811   45 N    0 0 0
  37 N    1     1.3706     2.5901   33 N   -1-1-1
  37 N    1     2.1935     4.1451   41 N   -1-1-1
  37 N    1     2.2015     4.1603   13 C   -1 0-1
  37 N    1     2.7350     5.1685   61 ZN   0 0-1
  37 N    1     2.7696     5.2338    2 H    0 0 0

  41 N    1     1.3642     2.5779   13 C    0 1 0
  41 N    1     1.3744     2.5972   45 N    1 1 1
  41 N    1     2.0819     3.9343   62 ZN   0 0 0
  41 N    1     2.1935     4.1451   37 N    1 1 1
  41 N    1     2.2123     4.1805   33 N    0 0 0
  41 N    1     2.5510     4.8207    9 C    0 1 0

  45 N    1     1.3129     2.4811   37 N    0 0 0
  45 N    1     1.3744     2.5972   41 N   -1-1-1
  45 N    1     2.1829     4.1252   33 N   -1-1-1
  45 N    1     2.1959     4.1496   13 C   -1 0-1
  45 N    1     2.7348     5.1680   54 BR  -1-1-1
  45 N    1     2.7924     5.2768   62 ZN  -1-1-1

  49 N    1     1.3261     2.5060   21 C    0 0 0
  49 N    1     1.3378     2.5281   25 C    0 0 0
  49 N    1     2.0612     3.8951    1 H    0 0 0
  49 N    1     2.4023     4.5397   30 C    0 0 0
  49 N    1     2.4320     4.5957    9 C    0 0 0
  49 N    1     2.6536     5.0146   57 BR   0 0 0

  53 BR   1     1.7283     3.2661   17 C    0 1 0
  53 BR   1     2.6663     5.0385   30 C    0 1 0
  53 BR   1     2.7348     5.1680   46 N    0 0-1
  53 BR   1     2.7560     5.2080    9 C    0 1 0
  53 BR   1     2.8222     5.3331    5 H    0 1 0
  53 BR   1     2.9833     5.6377    6 H    0 0-1

  57 BR   1     1.7399     3.2879   21 C    0 0 0
  57 BR   1     2.6536     5.0146   49 N    0 0 0
  57 BR   1     2.6793     5.0632   30 C    0 0 0
  57 BR   1     2.8033     5.2975    5 H    0 0 0
  57 BR   1     2.8523     5.3900   37 N    0 0 0
  57 BR   1     2.9273     5.5317    2 H    0 0 0

  61 ZN   4     2.0384     3.8520   33 N   -1-1 0   34 N   -1 0 1   35 N    0 0 1
                                    36 N   -1 0 0
  61 ZN   4     2.7350     5.1685   37 N    0 0 1   38 N   -1 0 0   39 N   -1 0 1
                                    40 N   -1-1 0
  61 ZN   4     2.8892     5.4598    1 H   -1 0 0    2 H    0 0 1    3 H   -1-1 0
                                     4 H   -1 0 1
  61 ZN   4     3.2669     6.1735   13 C   -1 0 0   14 C    0 0 1   15 C   -1-1 0
                                    16 C   -1 0 1
  61 ZN   4     3.6350     6.8692   25 C   -1 0 0   26 C    0 0 1   27 C   -1-1 0
                                    28 C   -1 0 1
  61 ZN   4     3.8809     7.3339    9 C   -1 0 0   10 C    0 0 1   11 C   -1-1 0
                                    12 C   -1 0 1

  62 ZN   4     2.0819     3.9343   41 N    0 0 0   42 N    0 0 0   43 N    1 1 0
                                    44 N    1 1 0
  62 ZN   4     2.7924     5.2768   45 N    1 1 1   46 N    0 0-1   47 N    0 1 0
                                    48 N    1 0 0
  62 ZN   4     3.2013     6.0497   53 BR   0 0 0   54 BR   0 0 0   55 BR   1 1 0
                                    56 BR   1 1 0
  62 ZN   4     3.2970     6.2305   13 C    0 1 0   14 C    1 0 0   15 C    0 0-1
                                    16 C    1 1 1
  62 ZN   4     4.0099     7.5777   37 N    1 1 1   38 N    0 0-1   39 N    0 1 0
                                    40 N    1 0 0
  62 ZN   4     4.0111     7.5798    9 C    0 1 0   10 C    1 0 0   11 C    0 0-1
                                    12 C    1 1 1


 SYMMETRY ALLOWED ELASTIC DISTORTION 1
  0.5773503  0.0000000  0.0000000
  0.0000000  0.5773503  0.0000000
  0.0000000  0.0000000  0.5773503

 SYMMETRY ALLOWED ELASTIC DISTORTION 2
  0.4082483  0.0000000  0.0000000
  0.0000000  0.4082483  0.0000000
  0.0000000  0.0000000 -0.8164966

 SYMMETRY ALLOWED INTERNAL DEGREE(S) OF FREEDOM:  45
 TTTTTTTTTTTTTTTTTTTTTTTTTTTTTT SYMM        TELAPSE        4.16 TCPU        0.14
 TTTTTTTTTTTTTTTTTTTTTTTTTTTTTT INT_SCREEN  TELAPSE        4.17 TCPU        0.15

 *******************************************************************************
 *                             OPTIMIZATION STARTS                             *
 *******************************************************************************
 RECLASIFICATION OF INDICES FOR INTEGRAL CALC ACCORDING TO DIFFERENT CRITERIA:
           FIXDELTE                  FIXDELTX              FIXDELTN
          0.10000000               0.80000000                 47
 DEFAULT MAX NUM OF POINTS  100
 *******************************************************************************

 *******************************************************************************
 COORDINATE AND CELL OPTIMIZATION - POINT    1
 INFORMATION **** EXCBUF **** EXCH. BIPO BUFFER: WORDS USED =           0

 DFT PARAMETERS

     ATOM       ELECTRONS   NET CHARGE   R(ANGSTROM)
   1   1  H       1.0000      0.0000     1.11000000
   9   6  C       6.0000      0.0000     0.77000000
  33   7  N       7.0000      0.0000     0.74000000
  53  35  BR     35.0000      0.0000     1.14000000
  61  30  ZN     30.0000      0.0000     1.37000000

 SIZE OF GRID=     454619
 TTTTTTTTTTTTTTTTTTTTTTTTTTTTTT MAKE_GRID2  TELAPSE        5.05 TCPU        1.02
 BECKE WEIGHT FUNCTION
 RADSAFE =     2.00
 TOLERANCES - DENSITY:10**- 6; POTENTIAL:10**- 9; GRID WGT:10**-14

 RADIAL INTEGRATION  - INTERVALS (POINTS,UPPER LIMIT):            1( 75,  4.0*R)

 ANGULAR INTEGRATION - INTERVALS (ACCURACY LEVEL [N. POINTS] UPPER LIMIT):
  1(  4[  86]   0.2)  2(  8[ 194]   0.5)  3( 12[ 350]   0.9)  4( 16[ 974]   3.5)
  5( 12[ 350]9999.0)
 TTTTTTTTTTTTTTTTTTTTTTTTTTTTTT INT_CALC    TELAPSE        5.09 TCPU        1.07

 *******************************************************************************
 C:\Users\wilso\AppData\Local\Temp\tmp_p\newconn.mol                             
 CRYSTAL - SCF - TYPE OF CALCULATION :  RESTRICTED CLOSED SHELL
 *******************************************************************************

 CAPPA:IS1  3;IS2  3;IS3  3; K PTS MONK NET   6; SYMMOPS:K SPACE   8;G SPACE   4

 TTTTTTTTTTTTTTTTTTTTTTTTTTTTTT SDIK        TELAPSE        5.24 TCPU        1.22

 AAAAAAAAAAAAAAAAAAAAAAAAAAAAAAAAAAAAAAAAAAAAAAAAAAAAAAAAAAAAAAAAAAAAAAAAAAAAAAA
         ATOMIC WAVEFUNCTION(S)


 NUCLEAR CHARGE  1.0  SYMMETRY SPECIES            S
 N. ELECTRONS    1.0  NUMBER OF PRIMITIVE GTOS    4
                      NUMBER OF CONTRACTED GTOS   2
                      NUMBER OF CLOSED SHELLS     0
                      OPEN SHELL OCCUPATION       1

  ZNUC SCFIT  TOTAL HF ENERGY   KINETIC ENERGY   VIRIAL THEOREM ACCURACY
   1.0   1   -4.946643675E-01  4.917913167E-01 -2.005842012E+00  9.4E-17

 NUCLEAR CHARGE  6.0  SYMMETRY SPECIES            S    P
 N. ELECTRONS    6.0  NUMBER OF PRIMITIVE GTOS    7    4
                      NUMBER OF CONTRACTED GTOS   3    2
                      NUMBER OF CLOSED SHELLS     2    0
                      OPEN SHELL OCCUPATION       0    2

  ZNUC SCFIT  TOTAL HF ENERGY   KINETIC ENERGY   VIRIAL THEOREM ACCURACY
   6.0   6   -3.750912652E+01  3.905246519E+01 -1.960480378E+00  3.7E-06

 NUCLEAR CHARGE  7.0  SYMMETRY SPECIES            S    P
 N. ELECTRONS    7.0  NUMBER OF PRIMITIVE GTOS    7    4
                      NUMBER OF CONTRACTED GTOS   3    2
                      NUMBER OF CLOSED SHELLS     2    0
                      OPEN SHELL OCCUPATION       0    3

  ZNUC SCFIT  TOTAL HF ENERGY   KINETIC ENERGY   VIRIAL THEOREM ACCURACY
   7.0   9   -5.432196661E+01  5.425066284E+01 -2.001314339E+00  1.2E-06

 NUCLEAR CHARGE 35.0  SYMMETRY SPECIES            S    P    D
 N. ELECTRONS   35.0  NUMBER OF PRIMITIVE GTOS   14   10    7
                      NUMBER OF CONTRACTED GTOS   5    4    4
                      NUMBER OF CLOSED SHELLS     4    2    1
                      OPEN SHELL OCCUPATION       0    5    0

  ZNUC SCFIT  TOTAL HF ENERGY   KINETIC ENERGY   VIRIAL THEOREM ACCURACY
  35.0  13   -2.572060514E+03  2.572021521E+03 -2.000015161E+00  3.6E-06

 NUCLEAR CHARGE 30.0  SYMMETRY SPECIES            S    P    D
 N. ELECTRONS   30.0  NUMBER OF PRIMITIVE GTOS   14    9    5
                      NUMBER OF CONTRACTED GTOS   5    3    2
                      NUMBER OF CLOSED SHELLS     4    2    1
                      OPEN SHELL OCCUPATION       0    0    0

  ZNUC SCFIT  TOTAL HF ENERGY   KINETIC ENERGY   VIRIAL THEOREM ACCURACY
  30.0  10   -1.777404290E+03  1.777325716E+03 -2.000044209E+00  2.5E-06

 AAAAAAAAAAAAAAAAAAAAAAAAAAAAAAAAAAAAAAAAAAAAAAAAAAAAAAAAAAAAAAAAAAAAAAAAAAAAAAA

 CHARGE NORMALIZATION FACTOR   1.00000000
 TOTAL ATOMIC CHARGES:
   1.0000000   1.0000000   1.0000000   1.0000000   1.0000000   1.0000000
   1.0000000   1.0000000   6.0000000   6.0000000   6.0000000   6.0000000
   6.0000000   6.0000000   6.0000000   6.0000000   6.0000000   6.0000000
   6.0000000   6.0000000   6.0000000   6.0000000   6.0000000   6.0000000
   6.0000000   6.0000000   6.0000000   6.0000000   6.0000000   6.0000000
   6.0000000   6.0000000   7.0000000   7.0000000   7.0000000   7.0000000
   7.0000000   7.0000000   7.0000000   7.0000000   7.0000000   7.0000000
   7.0000000   7.0000000   7.0000000   7.0000000   7.0000000   7.0000000
   7.0000000   7.0000000   7.0000000   7.0000000  35.0000000  35.0000000
  35.0000000  35.0000000  35.0000000  35.0000000  35.0000000  35.0000000
  30.0000000  30.0000000
 TTTTTTTTTTTTTTTTTTTTTTTTTTTTTT MOQGAD      TELAPSE        8.12 TCPU        4.08
 TTTTTTTTTTTTTTTTTTTTTTTTTTTTTT SHELLXN     TELAPSE       32.05 TCPU       23.64
 TTTTTTTTTTTTTTTTTTTTTTTTTTTTTT MONMO3      TELAPSE       36.37 TCPU       27.93
 NUMERICALLY INTEGRATED DENSITY    632.0001250645
 TTTTTTTTTTTTTTTTTTTTTTTTTTTTTT NUMDFT      TELAPSE       36.90 TCPU       28.46
 CYC   0 ETOT(AU) -2.616127630640E+04 DETOT -2.62E+04 tst  0.00E+00 PX  1.00E+00
 TTTTTTTTTTTTTTTTTTTTTTTTTTTTTT DIIS        TELAPSE       36.96 TCPU       28.52
 TTTTTTTTTTTTTTTTTTTTTTTTTTTTTT FDIK        TELAPSE       56.22 TCPU       45.38
 INSULATING STATE
 TOP OF VALENCE BANDS -    BAND    316; K    1; EIG -1.3260887E-01 AU
 BOTTOM OF VIRTUAL BANDS - BAND    317; K    4; EIG -9.6776380E-02 AU
 INDIRECT ENERGY BAND GAP:   0.9751 eV
 BOTTOM OF VIRTUAL BANDS - BAND    317; K    1; EIG -9.6674078E-02 AU
 TTTTTTTTTTTTTTTTTTTTTTTTTTTTTT PDIG        TELAPSE       56.87 TCPU       46.02
 CHARGE NORMALIZATION FACTOR   1.00000000
 TOTAL ATOMIC CHARGES:
   1.3642836   1.3642836   1.3642836   1.3642836   1.1877403   1.1877403
   1.1877403   1.1877403   6.1541868   6.1541868   6.1541868   6.1541868
   5.4588987   5.4588987   5.4588987   5.4588987   5.6698837   5.6698837
   5.6698837   5.6698837   5.3952989   5.3952989   5.3952989   5.3952989
   5.7983873   5.7983873   5.7983873   5.7983873   6.3104326   6.3104326
   6.3104326   6.3104326   7.4260226   7.4260226   7.4260226   7.4260226
   7.1345127   7.1345127   7.1345127   7.1345127   7.4323672   7.4323672
   7.4323672   7.4323672   7.1657213   7.1657213   7.1657213   7.1657213
   7.5725528   7.5725528   7.5725528   7.5725528  34.9903749  34.9903749
  34.9903749  34.9903749  34.9913763  34.9913763  34.9913763  34.9913763
  27.8614230  27.9304185
 TTTTTTTTTTTTTTTTTTTTTTTTTTTTTT MOQGAD      TELAPSE       56.89 TCPU       46.04
 TTTTTTTTTTTTTTTTTTTTTTTTTTTTTT SHELLXN     TELAPSE       83.29 TCPU       69.97
 TTTTTTTTTTTTTTTTTTTTTTTTTTTTTT MONMO3      TELAPSE       84.07 TCPU       70.74
 NUMERICALLY INTEGRATED DENSITY    632.0001635008
 TTTTTTTTTTTTTTTTTTTTTTTTTTTTTT NUMDFT      TELAPSE       85.51 TCPU       72.17
 CYC   1 ETOT(AU) -2.615468441045E+04 DETOT  6.59E+00 tst  0.00E+00 PX  1.00E+00
 TTTTTTTTTTTTTTTTTTTTTTTTTTTTTT DIIS        TELAPSE       85.63 TCPU       72.30
 DIIS TEST: 0.99022E+01 AT SCF   CYCLE   1 - MIX   30 %
 TTTTTTTTTTTTTTTTTTTTTTTTTTTTTT FDIK        TELAPSE       91.84 TCPU       77.11
 INSULATING STATE
 TOP OF VALENCE BANDS -    BAND    316; K    1; EIG -1.1746127E-01 AU
 BOTTOM OF VIRTUAL BANDS - BAND    317; K    1; EIG -1.1581062E-01 AU
 DIRECT ENERGY BAND GAP:   0.0449 eV
 TTTTTTTTTTTTTTTTTTTTTTTTTTTTTT PDIG        TELAPSE       92.49 TCPU       77.76
 CHARGE NORMALIZATION FACTOR   1.00000000
 TOTAL ATOMIC CHARGES:
   1.3767445   1.3767445   1.3767445   1.3767445   1.1724271   1.1724271
   1.1724271   1.1724271   6.1741580   6.1741580   6.1741580   6.1741580
   6.2841140   6.2841140   6.2841140   6.2841140   6.3228024   6.3228024
   6.3228024   6.3228024   6.2362034   6.2362034   6.2362034   6.2362034
   6.2195688   6.2195688   6.2195688   6.2195688   5.8854106   5.8854106
   5.8854106   5.8854106   6.9731665   6.9731665   6.9731665   6.9731665
   6.8687438   6.8687438   6.8687438   6.8687438   6.9432102   6.9432102
   6.9432102   6.9432102   6.9537383   6.9537383   6.9537383   6.9537383
   5.7950072   5.7950072   5.7950072   5.7950072  35.0830447  35.0830447
  35.0830447  35.0830447  34.9275902  34.9275902  34.9275902  34.9275902
  29.5795054  29.5567761
 TTTTTTTTTTTTTTTTTTTTTTTTTTTTTT MOQGAD      TELAPSE       92.51 TCPU       77.77
 TTTTTTTTTTTTTTTTTTTTTTTTTTTTTT SHELLXN     TELAPSE      118.67 TCPU      101.58
 TTTTTTTTTTTTTTTTTTTTTTTTTTTTTT MONMO3      TELAPSE      119.03 TCPU      101.93
 NUMERICALLY INTEGRATED DENSITY    632.0001797722
 TTTTTTTTTTTTTTTTTTTTTTTTTTTTTT NUMDFT      TELAPSE      120.43 TCPU      103.32
 CYC   2 ETOT(AU) -2.615303336995E+04 DETOT  1.65E+00 tst  6.37E-02 PX  6.82E-01
 TTTTTTTTTTTTTTTTTTTTTTTTTTTTTT DIIS        TELAPSE      120.66 TCPU      103.55
 DIIS TEST: 0.20896E+02 AT SCF   CYCLE   2 - DIIS ACTIVE - HISTORY:     2 CYCLES
 TTTTTTTTTTTTTTTTTTTTTTTTTTTTTT FDIK        TELAPSE      127.84 TCPU      108.45
 INSULATING STATE
 TOP OF VALENCE BANDS -    BAND    316; K    2; EIG -2.2443478E-01 AU
 TOP OF VALENCE BANDS -    BAND    316; K    1; EIG -2.2553696E-01 AU
 BOTTOM OF VIRTUAL BANDS - BAND    317; K    6; EIG -1.1556798E-01 AU
 INDIRECT ENERGY BAND GAP:   2.9624 eV
 BOTTOM OF VIRTUAL BANDS - BAND    317; K    1; EIG -1.1535456E-01 AU
 TTTTTTTTTTTTTTTTTTTTTTTTTTTTTT PDIG        TELAPSE      128.49 TCPU      109.10
 CHARGE NORMALIZATION FACTOR   1.00000000
 TOTAL ATOMIC CHARGES:
   1.2841694   1.2841694   1.2841694   1.2841694   1.1162321   1.1162321
   1.1162321   1.1162321   5.8629452   5.8629452   5.8629452   5.8629452
   5.8521857   5.8521857   5.8521857   5.8521857   5.7609838   5.7609838
   5.7609838   5.7609838   6.0189067   6.0189067   6.0189067   6.0189067
   6.0553127   6.0553127   6.0553127   6.0553127   5.9699038   5.9699038
   5.9699038   5.9699038   7.0643654   7.0643654   7.0643654   7.0643654
   7.0437582   7.0437582   7.0437582   7.0437582   6.9885119   6.9885119
   6.9885119   6.9885119   7.0635573   7.0635573   7.0635573   7.0635573
   7.4487253   7.4487253   7.4487253   7.4487253  34.9817738  34.9817738
  34.9817738  34.9817738  34.9046982  34.9046982  34.9046982  34.9046982
  29.1946759  29.1412063
 TTTTTTTTTTTTTTTTTTTTTTTTTTTTTT MOQGAD      TELAPSE      128.51 TCPU      109.11
 TTTTTTTTTTTTTTTTTTTTTTTTTTTTTT SHELLXN     TELAPSE      154.90 TCPU      133.16
 TTTTTTTTTTTTTTTTTTTTTTTTTTTTTT MONMO3      TELAPSE      155.38 TCPU      133.64
 NUMERICALLY INTEGRATED DENSITY    632.0001612899
 TTTTTTTTTTTTTTTTTTTTTTTTTTTTTT NUMDFT      TELAPSE      156.85 TCPU      135.10
 CYC   3 ETOT(AU) -2.615570169537E+04 DETOT -2.67E+00 tst  7.46E-02 PX  4.57E-01
 TTTTTTTTTTTTTTTTTTTTTTTTTTTTTT DIIS        TELAPSE      156.98 TCPU      135.23
 DIIS TEST: 0.52238E+01 AT SCF   CYCLE   3 - DIIS ACTIVE - HISTORY:     3 CYCLES
 TTTTTTTTTTTTTTTTTTTTTTTTTTTTTT FDIK        TELAPSE      163.88 TCPU      139.87
 INSULATING STATE
 TOP OF VALENCE BANDS -    BAND    316; K    1; EIG -2.0763399E-01 AU
 BOTTOM OF VIRTUAL BANDS - BAND    317; K    1; EIG -1.1824449E-01 AU
 DIRECT ENERGY BAND GAP:   2.4324 eV
 TTTTTTTTTTTTTTTTTTTTTTTTTTTTTT PDIG        TELAPSE      164.53 TCPU      140.52
 CHARGE NORMALIZATION FACTOR   1.00000000
 TOTAL ATOMIC CHARGES:
   1.3097573   1.3097573   1.3097573   1.3097573   1.1468965   1.1468965
   1.1468965   1.1468965   6.1346186   6.1346186   6.1346186   6.1346186
   5.7427706   5.7427706   5.7427706   5.7427706   5.9580323   5.9580323
   5.9580323   5.9580323   5.6652930   5.6652930   5.6652930   5.6652930
   5.9498578   5.9498578   5.9498578   5.9498578   6.1958622   6.1958622
   6.1958622   6.1958622   7.2139774   7.2139774   7.2139774   7.2139774
   6.9989484   6.9989484   6.9989484   6.9989484   7.2423811   7.2423811
   7.2423811   7.2423811   7.1145585   7.1145585   7.1145585   7.1145585
   6.9776912   6.9776912   6.9776912   6.9776912  35.0205452  35.0205452
  35.0205452  35.0205452  34.9371489  34.9371489  34.9371489  34.9371489
  28.7789112  28.7877331
 TTTTTTTTTTTTTTTTTTTTTTTTTTTTTT MOQGAD      TELAPSE      164.55 TCPU      140.54
 TTTTTTTTTTTTTTTTTTTTTTTTTTTTTT SHELLXN     TELAPSE      190.06 TCPU      164.81
 TTTTTTTTTTTTTTTTTTTTTTTTTTTTTT MONMO3      TELAPSE      190.69 TCPU      165.44
 NUMERICALLY INTEGRATED DENSITY    632.0001695160
 TTTTTTTTTTTTTTTTTTTTTTTTTTTTTT NUMDFT      TELAPSE      192.13 TCPU      166.87
 CYC   4 ETOT(AU) -2.615635592458E+04 DETOT -6.54E-01 tst  3.43E-03 PX  2.19E-01
 TTTTTTTTTTTTTTTTTTTTTTTTTTTTTT DIIS        TELAPSE      192.26 TCPU      167.00
 DIIS TEST: 0.67214E+00 AT SCF   CYCLE   4 - DIIS ACTIVE - HISTORY:     4 CYCLES
 TTTTTTTTTTTTTTTTTTTTTTTTTTTTTT FDIK        TELAPSE      198.97 TCPU      171.53
 INSULATING STATE
 TOP OF VALENCE BANDS -    BAND    316; K    2; EIG -2.1860882E-01 AU
 TOP OF VALENCE BANDS -    BAND    316; K    1; EIG -2.1915059E-01 AU
 BOTTOM OF VIRTUAL BANDS - BAND    317; K    4; EIG -1.1839608E-01 AU
 INDIRECT ENERGY BAND GAP:   2.7269 eV
 BOTTOM OF VIRTUAL BANDS - BAND    317; K    1; EIG -1.1812134E-01 AU
 TTTTTTTTTTTTTTTTTTTTTTTTTTTTTT PDIG        TELAPSE      199.62 TCPU      172.19
 CHARGE NORMALIZATION FACTOR   1.00000000
 TOTAL ATOMIC CHARGES:
   1.3042620   1.3042620   1.3042620   1.3042620   1.1431962   1.1431962
   1.1431962   1.1431962   6.0841206   6.0841206   6.0841206   6.0841206
   5.8016354   5.8016354   5.8016354   5.8016354   5.9110533   5.9110533
   5.9110533   5.9110533   5.8519984   5.8519984   5.8519984   5.8519984
   6.0489572   6.0489572   6.0489572   6.0489572   6.0866582   6.0866582
   6.0866582   6.0866582   7.2304324   7.2304324   7.2304324   7.2304324
   7.0637493   7.0637493   7.0637493   7.0637493   7.1081121   7.1081121
   7.1081121   7.1081121   7.0560625   7.0560625   7.0560625   7.0560625
   6.9926563   6.9926563   6.9926563   6.9926563  35.0005205  35.0005205
  35.0005205  35.0005205  34.9272361  34.9272361  34.9272361  34.9272361
  28.7857922  28.7716054
 TTTTTTTTTTTTTTTTTTTTTTTTTTTTTT MOQGAD      TELAPSE      199.64 TCPU      172.20
 TTTTTTTTTTTTTTTTTTTTTTTTTTTTTT SHELLXN     TELAPSE      226.66 TCPU      196.73
 TTTTTTTTTTTTTTTTTTTTTTTTTTTTTT MONMO3      TELAPSE      227.01 TCPU      197.09
 NUMERICALLY INTEGRATED DENSITY    632.0001674178
 TTTTTTTTTTTTTTTTTTTTTTTTTTTTTT NUMDFT      TELAPSE      228.46 TCPU      198.53
 CYC   5 ETOT(AU) -2.615642932500E+04 DETOT -7.34E-02 tst  3.53E-04 PX  7.07E-02
 TTTTTTTTTTTTTTTTTTTTTTTTTTTTTT DIIS        TELAPSE      228.59 TCPU      198.65
 DIIS TEST: 0.18367E+00 AT SCF   CYCLE   5 - DIIS ACTIVE - HISTORY:     5 CYCLES
 TTTTTTTTTTTTTTTTTTTTTTTTTTTTTT FDIK        TELAPSE      233.06 TCPU      202.85
 INSULATING STATE
 TOP OF VALENCE BANDS -    BAND    316; K    2; EIG -2.2025012E-01 AU
 TOP OF VALENCE BANDS -    BAND    316; K    1; EIG -2.2067265E-01 AU
 BOTTOM OF VIRTUAL BANDS - BAND    317; K    1; EIG -1.1863941E-01 AU
 INDIRECT ENERGY BAND GAP:   2.7650 eV
 TTTTTTTTTTTTTTTTTTTTTTTTTTTTTT PDIG        TELAPSE      233.71 TCPU      203.49
 CHARGE NORMALIZATION FACTOR   1.00000000
 TOTAL ATOMIC CHARGES:
   1.3046439   1.3046439   1.3046439   1.3046439   1.1387367   1.1387367
   1.1387367   1.1387367   6.0746041   6.0746041   6.0746041   6.0746041
   5.7926808   5.7926808   5.7926808   5.7926808   5.9303174   5.9303174
   5.9303174   5.9303174   5.8017083   5.8017083   5.8017083   5.8017083
   5.9868925   5.9868925   5.9868925   5.9868925   6.1028059   6.1028059
   6.1028059   6.1028059   7.1426958   7.1426958   7.1426958   7.1426958
   6.9902447   6.9902447   6.9902447   6.9902447   7.1977402   7.1977402
   7.1977402   7.1977402   7.1262565   7.1262565   7.1262565   7.1262565
   7.0529981   7.0529981   7.0529981   7.0529981  35.0226544  35.0226544
  35.0226544  35.0226544  34.9280802  34.9280802  34.9280802  34.9280802
  28.8119751  28.8157862
 TTTTTTTTTTTTTTTTTTTTTTTTTTTTTT MOQGAD      TELAPSE      233.72 TCPU      203.51
 TTTTTTTTTTTTTTTTTTTTTTTTTTTTTT SHELLXN     TELAPSE      260.23 TCPU      227.79
 TTTTTTTTTTTTTTTTTTTTTTTTTTTTTT MONMO3      TELAPSE      262.70 TCPU      230.25
 NUMERICALLY INTEGRATED DENSITY    632.0001682615
 TTTTTTTTTTTTTTTTTTTTTTTTTTTTTT NUMDFT      TELAPSE      264.12 TCPU      231.66
 CYC   6 ETOT(AU) -2.615644564101E+04 DETOT -1.63E-02 tst  1.02E-04 PX  2.92E-02
 TTTTTTTTTTTTTTTTTTTTTTTTTTTTTT DIIS        TELAPSE      264.25 TCPU      231.79
 DIIS TEST: 0.71379E-01 AT SCF   CYCLE   6 - DIIS ACTIVE - HISTORY:     6 CYCLES
 TTTTTTTTTTTTTTTTTTTTTTTTTTTTTT FDIK        TELAPSE      268.92 TCPU      236.22
 INSULATING STATE
 TOP OF VALENCE BANDS -    BAND    316; K    2; EIG -2.1982471E-01 AU
 TOP OF VALENCE BANDS -    BAND    316; K    1; EIG -2.2036257E-01 AU
 BOTTOM OF VIRTUAL BANDS - BAND    317; K    1; EIG -1.1722334E-01 AU
 INDIRECT ENERGY BAND GAP:   2.7919 eV
 TTTTTTTTTTTTTTTTTTTTTTTTTTTTTT PDIG        TELAPSE      269.57 TCPU      236.87
 CHARGE NORMALIZATION FACTOR   1.00000000
 TOTAL ATOMIC CHARGES:
   1.3064797   1.3064797   1.3064797   1.3064797   1.1393704   1.1393704
   1.1393704   1.1393704   6.0749369   6.0749369   6.0749369   6.0749369
   5.7929970   5.7929970   5.7929970   5.7929970   5.9302480   5.9302480
   5.9302480   5.9302480   5.7702462   5.7702462   5.7702462   5.7702462
   5.9866022   5.9866022   5.9866022   5.9866022   6.1188524   6.1188524
   6.1188524   6.1188524   7.1961812   7.1961812   7.1961812   7.1961812
   7.0377512   7.0377512   7.0377512   7.0377512   7.1447966   7.1447966
   7.1447966   7.1447966   7.0765713   7.0765713   7.0765713   7.0765713
   7.0606280   7.0606280   7.0606280   7.0606280  35.0181238  35.0181238
  35.0181238  35.0181238  34.9324801  34.9324801  34.9324801  34.9324801
  28.8302989  28.8246407
 TTTTTTTTTTTTTTTTTTTTTTTTTTTTTT MOQGAD      TELAPSE      269.59 TCPU      236.88
 TTTTTTTTTTTTTTTTTTTTTTTTTTTTTT SHELLXN     TELAPSE      296.31 TCPU      261.32
 TTTTTTTTTTTTTTTTTTTTTTTTTTTTTT MONMO3      TELAPSE      296.75 TCPU      261.75
 NUMERICALLY INTEGRATED DENSITY    632.0001685755
[...]
  45 N    1     2.8329     5.3534   62 ZN  -1-1-1

  49 N    1     1.3259     2.5056   21 C    0 0 0
  49 N    1     1.3379     2.5282   25 C    0 0 0
  49 N    1     2.0631     3.8986    1 H    0 0 0
  49 N    1     2.3999     4.5352   30 C    0 0 0
  49 N    1     2.4316     4.5950    9 C    0 0 0
  49 N    1     2.7822     5.2576   17 C    0 0 0

  53 BR   1     1.8814     3.5554   17 C    0 1 0
  53 BR   1     2.7681     5.2309   46 N    0 0-1
  53 BR   1     2.7957     5.2831   30 C    0 1 0
  53 BR   1     2.9055     5.4905    9 C    0 1 0
  53 BR   1     2.9072     5.4939    5 H    0 1 0
  53 BR   1     3.0298     5.7256    6 H    0 0-1

  57 BR   1     1.8959     3.5828   21 C    0 0 0
  57 BR   1     2.8001     5.2913   49 N    0 0 0
  57 BR   1     2.8169     5.3232   30 C    0 0 0
  57 BR   1     2.8765     5.4358   37 N    0 0 0
  57 BR   1     2.9008     5.4818    5 H    0 0 0
  57 BR   1     2.9058     5.4913    2 H    0 0 0

  61 ZN   4     2.0756     3.9224   33 N   -1-1 0   34 N   -1 0 1   35 N    0 0 1
                                    36 N   -1 0 0
  61 ZN   4     2.7459     5.1890   37 N    0 0 1   38 N   -1 0 0   39 N   -1 0 1
                                    40 N   -1-1 0
  61 ZN   4     2.9315     5.5398    1 H   -1 0 0    2 H    0 0 1    3 H   -1-1 0
                                     4 H   -1 0 1
  61 ZN   4     3.3236     6.2806   13 C   -1 0 0   14 C    0 0 1   15 C   -1-1 0
                                    16 C   -1 0 1
  61 ZN   4     3.6967     6.9858   25 C   -1 0 0   26 C    0 0 1   27 C   -1-1 0
                                    28 C   -1 0 1
  61 ZN   4     3.9529     7.4699    9 C   -1 0 0   10 C    0 0 1   11 C   -1-1 0
                                    12 C   -1 0 1

  62 ZN   4     2.1501     4.0630   41 N    0 0 0   42 N    0 0 0   43 N    1 1 0
                                    44 N    1 1 0
  62 ZN   4     2.8329     5.3534   45 N    1 1 1   46 N    0 0-1   47 N    0 1 0
                                    48 N    1 0 0
  62 ZN   4     3.2675     6.1746   53 BR   0 0 0   54 BR   0 0 0   55 BR   1 1 0
                                    56 BR   1 1 0
  62 ZN   4     3.3827     6.3924   13 C    0 1 0   14 C    1 0 0   15 C    0 0-1
                                    16 C    1 1 1
  62 ZN   4     4.0642     7.6802   37 N    1 1 1   38 N    0 0-1   39 N    0 1 0
                                    40 N    1 0 0
  62 ZN   4     4.1002     7.7483    9 C    0 1 0   10 C    1 0 0   11 C    0 0-1
                                    12 C    1 1 1


 FINAL OPTIMIZED GEOMETRY - DIMENSIONALITY OF THE SYSTEM      3
 (NON PERIODIC DIRECTION: LATTICE PARAMETER FORMALLY SET TO 500)
 *******************************************************************************
 LATTICE PARAMETERS (ANGSTROMS AND DEGREES) - BOHR = 0.5291772083 ANGSTROM
 PRIMITIVE CELL - CENTRING CODE 6/0 VOLUME=   798.140892 - DENSITY  2.778 g/cm^3
         A              B              C           ALPHA      BETA       GAMMA 
    10.19607284    10.19607284    10.19607284   114.641336 114.641336  99.562692
 *******************************************************************************
 ATOMS IN THE ASYMMETRIC UNIT   17 - ATOMS IN THE UNIT CELL:   62
     ATOM                 X/A                 Y/B                 Z/C    
 *******************************************************************************
      1 T   1 H     1.543453558939E-01 -1.717355954946E-01  2.378840271065E-01
      2 F   1 H    -4.096196226011E-01 -8.353867121258E-02 -2.378840271065E-01
      3 F   1 H     1.717355954946E-01  4.096196226011E-01  3.260809513885E-01
      4 F   1 H     8.353867121258E-02 -1.543453558939E-01 -3.260809513885E-01
      5 T   1 H    -1.070008372473E-01  4.891362970344E-01 -3.881897524121E-01
      6 F   1 H    -1.226739505535E-01  2.811889151648E-01  3.881897524121E-01
      7 F   1 H    -4.891362970344E-01  1.226739505535E-01  4.038628657183E-01
      8 F   1 H    -2.811889151648E-01  1.070008372473E-01 -4.038628657183E-01
      9 T   6 C     1.511308871149E-01 -3.700402470485E-01  3.671833012379E-02
     10 F   6 C    -4.067585771723E-01  1.144125569911E-01 -3.671833012379E-02
     11 F   6 C     3.700402470485E-01  4.067585771723E-01 -4.788288658366E-01
     12 F   6 C    -1.144125569911E-01 -1.511308871149E-01  4.788288658366E-01
     13 T   6 C     2.817583168834E-01 -3.794212077315E-01  1.613077754678E-01
     14 F   6 C     4.592710168007E-01  1.204505414156E-01 -1.613077754678E-01
     15 F   6 C     3.794212077315E-01 -4.592710168007E-01 -3.388204753852E-01
     16 F   6 C    -1.204505414156E-01 -2.817583168834E-01  3.388204753852E-01
     17 T   6 C     7.303133097355E-02 -4.654385668672E-01 -1.440771279225E-01
     18 F   6 C    -3.213614389447E-01  2.171084588960E-01  1.440771279225E-01
     19 F   6 C     4.654385668672E-01  3.213614389447E-01 -4.615301021593E-01
     20 F   6 C    -2.171084588960E-01 -7.303133097355E-02  4.615301021593E-01
     21 T   6 C    -9.038935098632E-02 -3.231422442934E-01 -1.695117700269E-01
     22 F   6 C    -1.536304742665E-01  7.912241904059E-02  1.695117700269E-01
     23 F   6 C     3.231422442934E-01  1.536304742665E-01  2.327528933071E-01
     24 F   6 C    -7.912241904059E-02  9.038935098632E-02 -2.327528933071E-01
     25 T   6 C     9.703173619183E-02 -2.537560010497E-01  9.924864258907E-02
     26 F   6 C    -3.530046436388E-01 -2.216906397235E-03 -9.924864258907E-02
     27 F   6 C     2.537560010497E-01  3.530046436388E-01  3.507877372416E-01
     28 F   6 C     2.216906397235E-03 -9.703173619183E-02 -3.507877372416E-01
     29 T   6 C    -1.905049798537E-01  2.033318378274E-01  2.485710775878E-01
     30 F   6 C    -4.523923976041E-02 -4.390760574416E-01 -2.485710775878E-01
     31 F   6 C    -2.033318378274E-01  4.523923976041E-02 -3.938368176811E-01
     32 F   6 C     4.390760574416E-01  1.905049798537E-01  3.938368176811E-01
     33 T   7 N     3.204564551146E-01 -3.187282246166E-01  3.270963536303E-01
     34 F   7 N     3.541754217531E-01 -6.639898515724E-03 -3.270963536303E-01
     35 F   7 N     3.187282246166E-01 -3.541754217531E-01 -3.608153202688E-01
     36 F   7 N     6.639898515724E-03 -3.204564551146E-01  3.608153202688E-01
     37 T   7 N     4.578215171900E-01 -3.318728921369E-01  4.120139613520E-01
     38 F   7 N     2.561131465110E-01  4.580755583793E-02 -4.120139613520E-01
     39 F   7 N     3.318728921369E-01 -2.561131465110E-01 -2.103055906731E-01
     40 F   7 N    -4.580755583794E-02 -4.578215171900E-01  2.103055906731E-01
     41 T   7 N     3.928442024240E-01 -4.317431256802E-01  1.455168819021E-01
     42 F   7 N     4.227399924177E-01  2.473273205219E-01 -1.455168819021E-01
     43 F   7 N     4.317431256802E-01 -4.227399924177E-01 -1.754126718958E-01
     44 F   7 N    -2.473273205219E-01 -3.928442024240E-01  1.754126718958E-01
     45 T   7 N    -4.997189992139E-01 -3.988139153919E-01  3.045196829750E-01
     46 F   7 N     2.966664016331E-01  1.957613178111E-01 -3.045196829750E-01
     47 F   7 N     3.988139153919E-01 -2.966664016331E-01 -1.009050838220E-01
     48 F   7 N    -1.957613178111E-01  4.997189992139E-01  1.009050838220E-01
     49 T   7 N    -2.258465372445E-02 -2.337067556596E-01 -8.662384883957E-04
     50 F   7 N    -2.328405171712E-01 -2.171841523605E-02  8.662384883957E-04
     51 F   7 N     2.337067556596E-01  2.328405171712E-01  2.111221019352E-01
     52 F   7 N     2.171841523605E-02  2.258465372445E-02 -2.111221019352E-01
     53 T  35 BR    1.170230372439E-01  3.648562713261E-01 -2.563350448239E-01
     54 F  35 BR   -3.788086838500E-01  3.733580820677E-01  2.563350448239E-01
     55 F  35 BR   -3.648562713261E-01  3.788086838500E-01 -2.478332340823E-01
     56 F  35 BR   -3.733580820677E-01 -1.170230372439E-01  2.478332340823E-01
     57 T  35 BR   -2.654695530061E-01 -3.042410299840E-01 -3.165198804573E-01
     58 F  35 BR    1.227885047330E-02  5.105032745123E-02  3.165198804573E-01
     59 F  35 BR    3.042410299840E-01 -1.227885047330E-02  3.877147697793E-02
     60 F  35 BR   -5.105032745123E-02  2.654695530061E-01 -3.877147697793E-02
     61 T  30 ZN    2.500000000000E-01 -2.500000000000E-01 -5.000000000000E-01
     62 T  30 ZN   -5.000000000000E-01 -5.000000000000E-01  1.848892746612E-32

 TRANSFORMATION MATRIX PRIMITIVE-CRYSTALLOGRAPHIC CELL
  0.0000  1.0000  1.0000  1.0000  0.0000  1.0000  1.0000  1.0000  0.0000

 *******************************************************************************
 CRYSTALLOGRAPHIC CELL (VOLUME=       1596.28178380)
         A              B              C           ALPHA      BETA       GAMMA 
    11.01046844    11.01046844    13.16733741    90.000000  90.000000  90.000000

 COORDINATES IN THE CRYSTALLOGRAPHIC CELL
     ATOM                 X/A                 Y/B                 Z/C    
 *******************************************************************************
      1 T   1 H    -4.409846214102E-02  2.819824892475E-01 -1.276371333536E-01
      2 F   1 H     4.409846214102E-02 -2.819824892475E-01 -1.276371333536E-01
      3 F   1 H     2.819824892475E-01  4.409846214102E-02  1.276371333536E-01
      4 F   1 H    -2.819824892475E-01 -4.409846214102E-02  1.276371333536E-01
      5 T   1 H    -3.960263090652E-01  7.836556653092E-03 -1.148373939004E-01
      6 F   1 H     3.960263090652E-01 -7.836556653092E-03 -1.148373939004E-01
      7 F   1 H     7.836556653092E-03  3.960263090652E-01  1.148373939004E-01
      8 F   1 H    -7.836556653092E-03 -3.960263090652E-01  1.148373939004E-01
      9 T   6 C    -2.422264020198E-01  2.789447321436E-01 -1.278138450287E-01
     10 F   6 C     2.422264020198E-01 -2.789447321436E-01 -1.278138450287E-01
     11 F   6 C     2.789447321436E-01  2.422264020198E-01  1.278138450287E-01
     12 F   6 C    -2.789447321436E-01 -2.422264020198E-01  1.278138450287E-01
     13 T   6 C    -2.499358745735E-01  4.112436500413E-01 -1.294853331580E-01
     14 F   6 C     2.499358745735E-01 -4.112436500413E-01 -1.294853331580E-01
     15 F   6 C     4.112436500413E-01  2.499358745735E-01  1.294853331580E-01
     16 F   6 C    -4.112436500413E-01 -2.499358745735E-01  1.294853331580E-01
     17 T   6 C    -3.412735128816E-01  1.971963849591E-01 -1.241650539856E-01
     18 F   6 C     3.412735128816E-01 -1.971963849591E-01 -1.241650539856E-01
     19 F   6 C     1.971963849591E-01  3.412735128816E-01  1.241650539856E-01
     20 F   6 C    -1.971963849591E-01 -3.412735128816E-01  1.241650539856E-01
     21 T   6 C    -2.011323316670E-01  3.162056164010E-02 -1.220099126264E-01
     22 F   6 C     2.011323316670E-01 -3.162056164010E-02 -1.220099126264E-01
     23 F   6 C     3.162056164010E-02  2.011323316670E-01  1.220099126264E-01
     24 F   6 C    -3.162056164010E-02 -2.011323316670E-01  1.220099126264E-01
     25 T   6 C    -1.257695473262E-01  2.250181899153E-01 -1.279864537235E-01
     26 F   6 C     1.257695473262E-01 -2.250181899153E-01 -1.279864537235E-01
     27 F   6 C     2.250181899153E-01  1.257695473262E-01  1.279864537235E-01
     28 F   6 C    -2.250181899153E-01 -1.257695473262E-01  1.279864537235E-01
     29 T   6 C     3.212039476345E-01 -7.263287004667E-02 -1.178721098071E-01
     30 F   6 C    -3.212039476345E-01  7.263287004667E-02 -1.178721098071E-01
     31 F   6 C    -7.263287004667E-02 -3.212039476345E-01  1.178721098071E-01
     32 F   6 C     7.263287004667E-02  3.212039476345E-01  1.178721098071E-01
     33 T   7 N     3.439558369496E-01 -1.685948331926E-02  3.373159384339E-01
     34 F   7 N    -3.439558369496E-01  1.685948331926E-02  3.373159384339E-01
     35 F   7 N    -1.685948331926E-02 -3.439558369496E-01 -3.373159384339E-01
     36 F   7 N     1.685948331926E-02  3.439558369496E-01 -3.373159384339E-01
     37 T   7 N    -1.888402239874E-01 -3.991458146605E-01 -1.430326681495E-01
     38 F   7 N     1.888402239874E-01  3.991458146605E-01 -1.430326681495E-01
     39 F   7 N    -3.991458146605E-01  1.888402239874E-01  1.430326681495E-01
     40 F   7 N     3.991458146605E-01 -1.888402239874E-01  1.430326681495E-01
     41 T   7 N     1.604647768990E-01 -1.494789499682E-02  4.077920974209E-01
     42 F   7 N    -1.604647768990E-01  1.494789499682E-02  4.077920974209E-01
     43 F   7 N    -1.494789499682E-02 -1.604647768990E-01 -4.077920974209E-01
     44 F   7 N     1.494789499682E-02  1.604647768990E-01 -4.077920974209E-01
     45 T   7 N    -2.972876166015E-01 -3.981927004235E-01 -1.015262987904E-01
     46 F   7 N     2.972876166015E-01  3.981927004235E-01 -1.015262987904E-01
     47 F   7 N    -3.981927004235E-01  2.972876166015E-01  1.015262987904E-01
     48 F   7 N     3.981927004235E-01 -2.972876166015E-01  1.015262987904E-01
     49 T   7 N    -1.059941702118E-01  1.051279317234E-01 -1.277125854478E-01
     50 F   7 N     1.059941702118E-01 -1.051279317234E-01 -1.277125854478E-01
     51 F   7 N     1.051279317234E-01  1.059941702118E-01  1.277125854478E-01
     52 F   7 N    -1.051279317234E-01 -1.059941702118E-01  1.277125854478E-01
     53 T  35 BR   -4.250905370800E-03 -2.520841394531E-01  3.691071766969E-01
     54 F  35 BR    4.250905370800E-03  2.520841394531E-01  3.691071766969E-01
     55 F  35 BR   -2.520841394531E-01  4.250905370800E-03 -3.691071766969E-01
     56 F  35 BR    2.520841394531E-01 -4.250905370800E-03 -3.691071766969E-01
     57 T  35 BR   -1.776456787176E-01 -1.388742017397E-01 -1.265953512664E-01
     58 F  35 BR    1.776456787176E-01  1.388742017397E-01 -1.265953512664E-01
     59 F  35 BR   -1.388742017397E-01  1.776456787176E-01  1.265953512664E-01
     60 F  35 BR    1.388742017397E-01 -1.776456787176E-01  1.265953512664E-01
     61 T  30 ZN   -5.000000000000E-01  0.000000000000E+00  2.500000000000E-01
     62 T  30 ZN    9.244463733059E-33  9.244463733059E-33 -5.000000000000E-01

 T = ATOM BELONGING TO THE ASYMMETRIC UNIT
 INFORMATION **** fort.34 **** GEOMETRY OUTPUT FILE

 DIRECT LATTICE VECTORS CARTESIAN COMPONENTS (ANGSTROM)
          X                    Y                    Z
  -0.550523422236E+01   0.550523422236E+01   0.658366870601E+01
   0.550523422236E+01  -0.550523422236E+01   0.658366870601E+01
   0.550523422236E+01   0.550523422236E+01  -0.658366870601E+01


 CARTESIAN COORDINATES - PRIMITIVE CELL
 *******************************************************************************
 *      ATOM          X(ANGSTROM)         Y(ANGSTROM)         Z(ANGSTROM)
 *******************************************************************************
    1     1 H    -4.855447258645E-01  3.104759299824E+00 -1.680641201169E+00
    2     1 H     4.855447258645E-01 -3.104759299824E+00 -1.680641201169E+00
    3     1 H     3.104759299824E+00  4.855447258645E-01  1.680641201169E+00
    4     1 H    -3.104759299824E+00 -4.855447258645E-01  1.680641201169E+00
    5     1 H    -4.360435179242E+00  8.628415974414E-02 -1.512102713003E+00
    6     1 H     4.360435179242E+00 -8.628415974414E-02 -1.512102713003E+00
    7     1 H     8.628415974414E-02  4.360435179242E+00  1.512102713003E+00
    8     1 H    -8.628415974414E-02 -4.360435179242E+00  1.512102713003E+00
    9     6 C    -2.667026155917E+00  3.071312171088E+00 -1.682968023419E+00
   10     6 C     2.667026155917E+00 -3.071312171088E+00 -1.682968023419E+00
   11     6 C     3.071312171088E+00  2.667026155917E+00  1.682968023419E+00
   12     6 C    -3.071312171088E+00 -2.667026155917E+00  1.682968023419E+00
   13     6 C    -2.751911060195E+00  4.527985231872E+00 -1.704977071597E+00
   14     6 C     2.751911060195E+00 -4.527985231872E+00 -1.704977071597E+00
   15     6 C     4.527985231872E+00  2.751911060195E+00  1.704977071597E+00
   16     6 C    -4.527985231872E+00 -2.751911060195E+00  1.704977071597E+00
   17     6 C    -3.757581244602E+00  2.171224574006E+00 -1.634923160609E+00
   18     6 C     3.757581244602E+00 -2.171224574006E+00 -1.634923160609E+00
   19     6 C     2.171224574006E+00  3.757581244602E+00  1.634923160609E+00
   20     6 C    -2.171224574006E+00 -3.757581244602E+00  1.634923160609E+00
   21     6 C    -2.214561191033E+00  3.481571961427E-01 -1.606545687162E+00
   22     6 C     2.214561191033E+00 -3.481571961427E-01 -1.606545687162E+00
   23     6 C     3.481571961427E-01  2.214561191033E+00  1.606545687162E+00
   24     6 C    -3.481571961427E-01 -2.214561191033E+00  1.606545687162E+00
   25     6 C    -1.384781632143E+00  2.477555679551E+00 -1.685240820344E+00
   26     6 C     1.384781632143E+00 -2.477555679551E+00 -1.685240820344E+00
   27     6 C     2.477555679551E+00  1.384781632143E+00  1.685240820344E+00
   28     6 C    -2.477555679551E+00 -1.384781632143E+00  1.685240820344E+00
   29     6 C     3.536605929749E+00 -7.997219236984E-01 -1.552061841295E+00
   30     6 C    -3.536605929749E+00  7.997219236984E-01 -1.552061841295E+00
   31     6 C    -7.997219236984E-01 -3.536605929749E+00  1.552061841295E+00
   32     6 C     7.997219236984E-01  3.536605929749E+00  1.552061841295E+00
   33     7 N     3.787114889111E+00 -1.856308090811E-01  4.441552775808E+00
   34     7 N    -3.787114889111E+00  1.856308090811E-01  4.441552775808E+00
   35     7 N    -1.856308090811E-01 -3.787114889111E+00 -4.441552775808E+00
   36     7 N     1.856308090811E-01  3.787114889111E+00 -4.441552775808E+00
   37     7 N    -2.079219327308E+00 -4.394782397162E+00 -1.883359402465E+00
   38     7 N     2.079219327308E+00  4.394782397162E+00 -1.883359402465E+00
   39     7 N    -4.394782397162E+00  2.079219327308E+00  1.883359402465E+00
   40     7 N     4.394782397162E+00 -2.079219327308E+00  1.883359402465E+00
   41     7 N     1.766792362535E+00 -1.645833261775E-01  5.369536140692E+00
   42     7 N    -1.766792362535E+00  1.645833261775E-01  5.369536140692E+00
   43     7 N    -1.645833261775E-01 -1.766792362535E+00 -5.369536140692E+00
   44     7 N     1.645833261775E-01  1.766792362535E+00 -5.369536140692E+00
   45     7 N    -3.273275921597E+00 -4.384288162931E+00 -1.336831032366E+00
   46     7 N     3.273275921597E+00  4.384288162931E+00 -1.336831032366E+00
   47     7 N    -4.384288162931E+00  3.273275921597E+00  1.336831032366E+00
   48     7 N     4.384288162931E+00 -3.273275921597E+00  1.336831032366E+00
   49     7 N    -1.167045466441E+00  1.157507774899E+00 -1.681634704352E+00
   50     7 N     1.167045466441E+00 -1.157507774899E+00 -1.681634704352E+00
   51     7 N     1.157507774899E+00  1.167045466441E+00  1.681634704352E+00
   52     7 N    -1.157507774899E+00 -1.167045466441E+00  1.681634704352E+00
   53    35 BR   -4.680445944669E-02 -2.775564462863E+00  4.860158736763E+00
   54    35 BR    4.680445944669E-02  2.775564462863E+00  4.860158736763E+00
   55    35 BR   -2.775564462863E+00  4.680445944669E-02 -4.860158736763E+00
   56    35 BR    2.775564462863E+00 -4.680445944669E-02 -4.860158736763E+00
   57    35 BR   -1.955962139861E+00 -1.529070016041E+00 -1.666923704916E+00
   58    35 BR    1.955962139861E+00  1.529070016041E+00 -1.666923704916E+00
   59    35 BR   -1.529070016041E+00  1.955962139861E+00  1.666923704916E+00
   60    35 BR    1.529070016041E+00 -1.955962139861E+00  1.666923704916E+00
   61    30 ZN    5.505234222361E+00  0.000000000000E+00 -9.875503059008E+00
   62    30 ZN    1.017858762212E-31  1.017858762212E-31  6.583668706005E+00

 ****    4 SYMMOPS - TRANSLATORS IN FRACTIONAL UNITS
 **** MATRICES AND TRANSLATORS IN THE CRYSTALLOGRAPHIC REFERENCE FRAME
   V INV                    ROTATION MATRICES                   TRANSLATORS
   1   1  1.00  0.00  0.00  0.00  1.00  0.00  0.00  0.00  1.00  0.00  0.00  0.00
   2   2  0.00  1.00 -1.00  1.00 -0.00 -1.00  0.00  0.00 -1.00  0.00  0.00  0.00
   3   4  0.00 -1.00  0.00  0.00 -1.00  1.00  1.00 -1.00  0.00  0.00  0.00  0.00
   4   3 -1.00  0.00  1.00 -1.00  0.00 -0.00 -1.00  1.00  0.00  0.00  0.00  0.00
 TTTTTTTTTTTTTTTTTTTTTTTTTTTTTT END         TELAPSE    12492.67 TCPU    11863.63
 EEEEEEEEEE TERMINATION  DATE 07 03 2024 TIME 16:40:11.1
NODE    0 CPU TIME =     11863.631
    TOTAL CPU TIME =    764749.440
