Loading crystal17/1.0.2/intel/19.0
  Loading requirement: intel/19.0 ompi/4.0.1/intel/19.0
 PROCESS            1  OF           24  WORKING
 PROCESS            6  OF           24  WORKING
 PROCESS            9  OF           24  WORKING
 PROCESS           10  OF           24  WORKING
 PROCESS           15  OF           24  WORKING
 PROCESS           16  OF           24  WORKING
 PROCESS           18  OF           24  WORKING
 PROCESS           19  OF           24  WORKING
 PROCESS           20  OF           24  WORKING
 PROCESS           21  OF           24  WORKING
 PROCESS            0  OF           24  WORKING
 PROCESS           23  OF           24  WORKING
 PROCESS            2  OF           24  WORKING
 PROCESS            3  OF           24  WORKING
 PROCESS            4  OF           24  WORKING
 PROCESS            5  OF           24  WORKING
 PROCESS            7  OF           24  WORKING
 PROCESS            8  OF           24  WORKING
 PROCESS           11  OF           24  WORKING
 PROCESS           12  OF           24  WORKING
 PROCESS           13  OF           24  WORKING
 PROCESS           14  OF           24  WORKING
 PROCESS           17  OF           24  WORKING
 PROCESS           22  OF           24  WORKING

         
 *******************************************************************************
 *                                                                             *
 *                               CRYSTAL17                                     *
 *                      public : 1.0.2 - March 1st, 2018                       *
 *                       HTTP://WWW.CRYSTAL.UNITO.IT                           *
 *                                                                             *
 *                              MAIN AUTHORS                                   *
 *                                                                             *
 *  R. DOVESI(1,11), V.R. SAUNDERS(2), C. ROETTI(1,11), R. ORLANDO(1,11),      *
 *  C.M. ZICOVICH-WILSON(1,3), F. PASCALE(4), B. CIVALLERI(1,11),              *
 *  K. DOLL(5), N.M. HARRISON(2,6), I.J. BUSH(7), Ph. D'ARCO(8),               *
 *  M. LLUNELL(9), M. CAUSA'(10), Y. NOEL(8), L. MASCHIO(1,11), A. ERBA(1,11)  *
 *  M. RE'RAT(14), S. CASASSA(1,11)                                            *
 *                                                                             *
 *        CONTRIBUTIONS TO THE CODE HAVE ALSO BEEN GIVEN BY                    *
 *                                                                             *
 *  M. FERRABONE(1,11), M. DE LA PIERRE(1,11), M. FERRERO(1,11),               *
 *  J. BAIMA(1,11), E. ALBANESE(1,11), M.F. PEINTINGER(12), R. BAST(13),       *
 *  B. KIRTMAN(15), V. LACIVITA(1,11), R. DEMICHELIS(1,16)                     *
 *  G. BRANDEBURG(17), S. SALUSTRO(1,11), G. SANSONE(1,11)                     *
 *  M.T. RUGGIERO(18)                                                          *
 *                                                                             *
 * (1) THEORETICAL CHEMISTRY GROUP - UNIVERSITA' DI TORINO - TORINO (ITALY)    *
 * (2) COMPUTATIONAL SCIENCE & ENGINEERING DEPARTMENT - STFC DARESBURY (UK)    *
 * (3) UNIVERSIDAD AUTONOMA DEL ESTADO DE MORELOS - CUERNAVACA (MEXICO)        *
 * (4) UNIVERSITE' DE LORRAINE - NANCY (FRANCE)                                *
 * (5) UNIVERSITAET STUTTGART- STUTTGART (GERMANY)                             *
 * (6) IMPERIAL COLLEGE - LONDON (UK)                                          *
 * (7) OXFORD E-RESEARCH CENTRE - OXFORD (UK)                                  *
 * (8) UPMC - SORBONNE UNIVERSITES - PARIS (FRANCE)                            *
 * (9) UNIVERSIDAD DE BARCELONA - BARCELONA (SPAIN)                            *
 *(10) UNIVERSITA' DI NAPOLI "FEDERICO II" - NAPOLI (ITALY)                    *
 *(11) NIS - NANOSTRUCTURED INTERFACES AND SURFACES - TORINO (ITALY)           *
 *(12) MPI FUER CHEMISCHE ENERGIEKONVERSION - MUELHEIM AN DER RUHR (GERMANY)   *
 *(13) UNIVERSITY OF TROMSO - TROMSO (NORWAY)                                  *
 *(14) UNIVERSITE' DE PAU ET DES PAYS DE L'ADOUR - PAU (FRANCE)                *
 *(15) UNIVERSITY OF CALIFORNIA SANTA BARBARA - SANTA BARBARA (USA)            *
 *(16) CURTIN UNIVERSITY - PERTH (AUSTRALIA)                                   *
 *(17) UNIVERSITY COLLEGE LONDON - LONDON (UK)                                 *
 *(18) CAMBRIDGE UNIVERSITY - CAMBRIDGE (UK)                                   *
 *                                                                             *
 *******************************************************************************
 EEEEEEEEEE STARTING  DATE 21 11 2023 TIME 06:51:51.3
 C:\Users\wilso\AppData\Local\Temp\tmp_p\newconn.mol                             

 CRYSTAL CALCULATION
 (INPUT ACCORDING TO THE INTERNATIONAL TABLES FOR X-RAY CRYSTALLOGRAPHY)
 CRYSTAL FAMILY                       :  TETRAGONAL  
 CRYSTAL CLASS  (GROTH - 1921)        :  TETRAGONAL DISPHENOIDAL              

 SPACE GROUP (NONCENTROSYMMETRIC)     :  I -4            

 LATTICE PARAMETERS  (ANGSTROMS AND DEGREES) - CONVENTIONAL CELL
        A           B           C        ALPHA        BETA       GAMMA
    10.15800    10.15800    13.29400    90.00000    90.00000    90.00000


 NUMBER OF IRREDUCIBLE ATOMS IN THE CONVENTIONAL CELL:  124

 INPUT COORDINATES

 ATOM AT. N.              COORDINATES
   1   1     5.576100000000E-01  7.373700000000E-01  1.366700000000E-01
   2   1     4.423900000000E-01  2.626300000000E-01  1.366700000000E-01
   3   1     7.373700000000E-01  4.423900000000E-01  8.633300000000E-01
   4   1     2.626300000000E-01  5.576100000000E-01  8.633300000000E-01
   5   1     5.761000000000E-02  2.373700000000E-01  6.366700000000E-01
   6   1     9.423900000000E-01  7.626300000000E-01  6.366700000000E-01
   7   1     2.373700000000E-01  9.423900000000E-01  3.633300000000E-01
   8   1     7.626300000000E-01  5.761000000000E-02  3.633300000000E-01
   9  35     9.759200000000E-01  6.751900000000E-01  9.083000000000E-02
  10  35     2.408000000000E-02  3.248100000000E-01  9.083000000000E-02
  11  35     6.751900000000E-01  2.408000000000E-02  9.091700000000E-01
  12  35     3.248100000000E-01  9.759200000000E-01  9.091700000000E-01
  13  35     4.759200000000E-01  1.751900000000E-01  5.908300000000E-01
  14  35     5.240800000000E-01  8.248100000000E-01  5.908300000000E-01
  15  35     1.751900000000E-01  5.240800000000E-01  4.091700000000E-01
  16  35     8.248100000000E-01  4.759200000000E-01  4.091700000000E-01
  17  35     6.058200000000E-01  9.805800000000E-01  1.369900000000E-01
  18  35     3.941800000000E-01  1.942000000000E-02  1.369900000000E-01
  19  35     9.805800000000E-01  3.941800000000E-01  8.630100000000E-01
  20  35     1.942000000000E-02  6.058200000000E-01  8.630100000000E-01
  21  35     1.058200000000E-01  4.805800000000E-01  6.369900000000E-01
  22  35     8.941800000000E-01  5.194200000000E-01  6.369900000000E-01
  23  35     4.805800000000E-01  8.941800000000E-01  3.630100000000E-01
  24  35     5.194200000000E-01  1.058200000000E-01  3.630100000000E-01
  25   1     8.420800000000E-01  5.709000000000E-02  1.240200000000E-01
  26   1     1.579200000000E-01  9.429100000000E-01  1.240200000000E-01
  27   1     5.709000000000E-02  1.579200000000E-01  8.759800000000E-01
  28   1     9.429100000000E-01  8.420800000000E-01  8.759800000000E-01
  29   1     3.420800000000E-01  5.570900000000E-01  6.240200000000E-01
  30   1     6.579200000000E-01  4.429100000000E-01  6.240200000000E-01
  31   1     5.570900000000E-01  6.579200000000E-01  3.759800000000E-01
  32   1     4.429100000000E-01  3.420800000000E-01  3.759800000000E-01
  33   6     2.646500000000E-01  1.859800000000E-01  6.165500000000E-01
  34   6     7.353500000000E-01  8.140200000000E-01  6.165500000000E-01
  35   6     1.859800000000E-01  7.353500000000E-01  3.834500000000E-01
  36   6     8.140200000000E-01  2.646500000000E-01  3.834500000000E-01
  37   6     7.646500000000E-01  6.859800000000E-01  1.165500000000E-01
  38   6     2.353500000000E-01  3.140200000000E-01  1.165500000000E-01
  39   6     6.859800000000E-01  2.353500000000E-01  8.834500000000E-01
  40   6     3.140200000000E-01  7.646500000000E-01  8.834500000000E-01
  41   6     2.514000000000E-01  4.317000000000E-02  6.230000000000E-01
  42   6     7.486000000000E-01  9.568300000000E-01  6.230000000000E-01
  43   6     4.317000000000E-02  7.486000000000E-01  3.770000000000E-01
  44   6     9.568300000000E-01  2.514000000000E-01  3.770000000000E-01
  45   6     7.514000000000E-01  5.431700000000E-01  1.230000000000E-01
  46   6     2.486000000000E-01  4.568300000000E-01  1.230000000000E-01
  47   6     5.431700000000E-01  2.486000000000E-01  8.770000000000E-01
  48   6     4.568300000000E-01  7.514000000000E-01  8.770000000000E-01
  49   6     6.583700000000E-01  7.736700000000E-01  1.273400000000E-01
  50   6     3.416300000000E-01  2.263300000000E-01  1.273400000000E-01
  51   6     7.736700000000E-01  3.416300000000E-01  8.726600000000E-01
  52   6     2.263300000000E-01  6.583700000000E-01  8.726600000000E-01
  53   6     1.583700000000E-01  2.736700000000E-01  6.273400000000E-01
  54   6     8.416300000000E-01  7.263300000000E-01  6.273400000000E-01
  55   6     2.736700000000E-01  8.416300000000E-01  3.726600000000E-01
  56   6     7.263300000000E-01  1.583700000000E-01  3.726600000000E-01
  57   6     8.156900000000E-01  9.525900000000E-01  1.204300000000E-01
  58   6     1.843100000000E-01  4.741000000000E-02  1.204300000000E-01
  59   6     9.525900000000E-01  1.843100000000E-01  8.795700000000E-01
  60   6     4.741000000000E-02  8.156900000000E-01  8.795700000000E-01
  61   6     3.156900000000E-01  4.525900000000E-01  6.204300000000E-01
  62   6     6.843100000000E-01  5.474100000000E-01  6.204300000000E-01
  63   6     4.525900000000E-01  6.843100000000E-01  3.795700000000E-01
  64   6     5.474100000000E-01  3.156900000000E-01  3.795700000000E-01
  65   6     3.914300000000E-01  2.396500000000E-01  6.044300000000E-01
  66   6     6.085700000000E-01  7.603500000000E-01  6.044300000000E-01
  67   6     2.396500000000E-01  6.085700000000E-01  3.955700000000E-01
  68   6     7.603500000000E-01  3.914300000000E-01  3.955700000000E-01
  69   6     8.914300000000E-01  7.396500000000E-01  1.044300000000E-01
  70   6     1.085700000000E-01  2.603500000000E-01  1.044300000000E-01
  71   6     7.396500000000E-01  1.085700000000E-01  8.955700000000E-01
  72   6     2.603500000000E-01  8.914300000000E-01  8.955700000000E-01
  73   6     3.150000000000E-01  9.141000000000E-02  1.282200000000E-01
  74   6     6.850000000000E-01  9.085900000000E-01  1.282200000000E-01
  75   6     9.141000000000E-02  6.850000000000E-01  8.717800000000E-01
  76   6     9.085900000000E-01  3.150000000000E-01  8.717800000000E-01
  77   6     8.150000000000E-01  5.914100000000E-01  6.282200000000E-01
  78   6     1.850000000000E-01  4.085900000000E-01  6.282200000000E-01
  79   6     5.914100000000E-01  1.850000000000E-01  3.717800000000E-01
  80   6     4.085900000000E-01  8.150000000000E-01  3.717800000000E-01
  81   7     8.407700000000E-01  4.628300000000E-01  1.672900000000E-01
  82   7     1.592300000000E-01  5.371700000000E-01  1.672900000000E-01
  83   7     4.628300000000E-01  1.592300000000E-01  8.327100000000E-01
  84   7     5.371700000000E-01  8.407700000000E-01  8.327100000000E-01
  85   7     3.407700000000E-01  9.628300000000E-01  6.672900000000E-01
  86   7     6.592300000000E-01  3.717000000000E-02  6.672900000000E-01
  87   7     9.628300000000E-01  6.592300000000E-01  3.327100000000E-01
  88   7     3.717000000000E-02  3.407700000000E-01  3.327100000000E-01
  89   7     2.940400000000E-01  8.358500000000E-01  6.597700000000E-01
  90   7     7.059600000000E-01  1.641500000000E-01  6.597700000000E-01
  91   7     8.358500000000E-01  7.059600000000E-01  3.402300000000E-01
  92   7     1.641500000000E-01  2.940400000000E-01  3.402300000000E-01
  93   7     7.940400000000E-01  3.358500000000E-01  1.597700000000E-01
  94   7     2.059600000000E-01  6.641500000000E-01  1.597700000000E-01
  95   7     3.358500000000E-01  2.059600000000E-01  8.402300000000E-01
  96   7     6.641500000000E-01  7.940400000000E-01  8.402300000000E-01
  97   7     1.518600000000E-01  9.677900000000E-01  5.884000000000E-01
  98   7     8.481400000000E-01  3.221000000000E-02  5.884000000000E-01
  99   7     9.677900000000E-01  8.481400000000E-01  4.116000000000E-01
 100   7     3.221000000000E-02  1.518600000000E-01  4.116000000000E-01
 101   7     6.518600000000E-01  4.677900000000E-01  8.840000000000E-02
 102   7     3.481400000000E-01  5.322100000000E-01  8.840000000000E-02
 103   7     4.677900000000E-01  3.481400000000E-01  9.116000000000E-01
 104   7     5.322100000000E-01  6.518600000000E-01  9.116000000000E-01
 105   7     1.800200000000E-01  8.388700000000E-01  6.128200000000E-01
 106   7     8.199800000000E-01  1.611300000000E-01  6.128200000000E-01
 107   7     8.388700000000E-01  8.199800000000E-01  3.871800000000E-01
 108   7     1.611300000000E-01  1.800200000000E-01  3.871800000000E-01
 109   7     6.800200000000E-01  3.388700000000E-01  1.128200000000E-01
 110   7     3.199800000000E-01  6.611300000000E-01  1.128200000000E-01
 111   7     3.388700000000E-01  3.199800000000E-01  8.871800000000E-01
 112   7     6.611300000000E-01  6.800200000000E-01  8.871800000000E-01
 113   7     9.174200000000E-01  8.687700000000E-01  1.079100000000E-01
 114   7     8.258000000000E-02  1.312300000000E-01  1.079100000000E-01
 115   7     8.687700000000E-01  8.258000000000E-02  8.920900000000E-01
 116   7     1.312300000000E-01  9.174200000000E-01  8.920900000000E-01
 117   7     4.174200000000E-01  3.687700000000E-01  6.079100000000E-01
 118   7     5.825800000000E-01  6.312300000000E-01  6.079100000000E-01
 119   7     3.687700000000E-01  5.825800000000E-01  3.920900000000E-01
 120   7     6.312300000000E-01  4.174200000000E-01  3.920900000000E-01
 121  30     0.000000000000E+00  5.000000000000E-01  2.500000000000E-01
 122  30     5.000000000000E-01  0.000000000000E+00  7.500000000000E-01
 123  30     0.000000000000E+00  0.000000000000E+00  5.000000000000E-01
 124  30     5.000000000000E-01  5.000000000000E-01  0.000000000000E+00

 *******************************************************************************

 << INFORMATION >>: FROM NOW ON, ALL COORDINATES REFER TO THE PRIMITIVE CELL

 *******************************************************************************

 LATTICE PARAMETERS  (ANGSTROMS AND DEGREES) - PRIMITIVE CELL
       A          B          C        ALPHA      BETA     GAMMA        VOLUME
    9.78647    9.78647    9.78647   117.47208 117.47208  94.43726    685.870456

 INPUT LIST - ATOM N.   2 NOT IRREDUCIBLE

 INPUT LIST - ATOM N.   3 NOT IRREDUCIBLE

 INPUT LIST - ATOM N.   4 NOT IRREDUCIBLE

 INPUT LIST - ATOM N.   1 NOT IRREDUCIBLE

 INPUT LIST - ATOM N.   2 NOT IRREDUCIBLE

 INPUT LIST - ATOM N.   3 NOT IRREDUCIBLE

 INPUT LIST - ATOM N.   4 NOT IRREDUCIBLE

 INPUT LIST - ATOM N.   6 NOT IRREDUCIBLE

 INPUT LIST - ATOM N.   7 NOT IRREDUCIBLE

 INPUT LIST - ATOM N.   8 NOT IRREDUCIBLE

 INPUT LIST - ATOM N.   5 NOT IRREDUCIBLE

 INPUT LIST - ATOM N.   6 NOT IRREDUCIBLE

 INPUT LIST - ATOM N.   7 NOT IRREDUCIBLE

 INPUT LIST - ATOM N.   8 NOT IRREDUCIBLE

 INPUT LIST - ATOM N.  10 NOT IRREDUCIBLE

 INPUT LIST - ATOM N.  11 NOT IRREDUCIBLE

 INPUT LIST - ATOM N.  12 NOT IRREDUCIBLE

 INPUT LIST - ATOM N.   9 NOT IRREDUCIBLE

 INPUT LIST - ATOM N.  10 NOT IRREDUCIBLE

 INPUT LIST - ATOM N.  11 NOT IRREDUCIBLE

 INPUT LIST - ATOM N.  12 NOT IRREDUCIBLE

 INPUT LIST - ATOM N.  14 NOT IRREDUCIBLE

 INPUT LIST - ATOM N.  15 NOT IRREDUCIBLE

 INPUT LIST - ATOM N.  16 NOT IRREDUCIBLE

 INPUT LIST - ATOM N.  13 NOT IRREDUCIBLE

 INPUT LIST - ATOM N.  14 NOT IRREDUCIBLE

 INPUT LIST - ATOM N.  15 NOT IRREDUCIBLE

 INPUT LIST - ATOM N.  16 NOT IRREDUCIBLE

 INPUT LIST - ATOM N.  18 NOT IRREDUCIBLE

 INPUT LIST - ATOM N.  19 NOT IRREDUCIBLE

 INPUT LIST - ATOM N.  20 NOT IRREDUCIBLE

 INPUT LIST - ATOM N.  17 NOT IRREDUCIBLE

 INPUT LIST - ATOM N.  18 NOT IRREDUCIBLE

 INPUT LIST - ATOM N.  19 NOT IRREDUCIBLE

 INPUT LIST - ATOM N.  20 NOT IRREDUCIBLE

 INPUT LIST - ATOM N.  22 NOT IRREDUCIBLE

 INPUT LIST - ATOM N.  23 NOT IRREDUCIBLE

 INPUT LIST - ATOM N.  24 NOT IRREDUCIBLE

 INPUT LIST - ATOM N.  21 NOT IRREDUCIBLE

 INPUT LIST - ATOM N.  22 NOT IRREDUCIBLE

 INPUT LIST - ATOM N.  23 NOT IRREDUCIBLE

 INPUT LIST - ATOM N.  24 NOT IRREDUCIBLE

 INPUT LIST - ATOM N.  26 NOT IRREDUCIBLE

 INPUT LIST - ATOM N.  27 NOT IRREDUCIBLE

 INPUT LIST - ATOM N.  28 NOT IRREDUCIBLE

 INPUT LIST - ATOM N.  25 NOT IRREDUCIBLE

 INPUT LIST - ATOM N.  26 NOT IRREDUCIBLE

 INPUT LIST - ATOM N.  27 NOT IRREDUCIBLE

 INPUT LIST - ATOM N.  28 NOT IRREDUCIBLE

 INPUT LIST - ATOM N.  30 NOT IRREDUCIBLE

 INPUT LIST - ATOM N.  31 NOT IRREDUCIBLE

 INPUT LIST - ATOM N.  32 NOT IRREDUCIBLE

 INPUT LIST - ATOM N.  29 NOT IRREDUCIBLE

 INPUT LIST - ATOM N.  30 NOT IRREDUCIBLE

 INPUT LIST - ATOM N.  31 NOT IRREDUCIBLE

 INPUT LIST - ATOM N.  32 NOT IRREDUCIBLE

 INPUT LIST - ATOM N.  34 NOT IRREDUCIBLE

 INPUT LIST - ATOM N.  35 NOT IRREDUCIBLE

 INPUT LIST - ATOM N.  36 NOT IRREDUCIBLE

 INPUT LIST - ATOM N.  33 NOT IRREDUCIBLE

 INPUT LIST - ATOM N.  34 NOT IRREDUCIBLE

 INPUT LIST - ATOM N.  35 NOT IRREDUCIBLE

 INPUT LIST - ATOM N.  36 NOT IRREDUCIBLE

 INPUT LIST - ATOM N.  38 NOT IRREDUCIBLE

 INPUT LIST - ATOM N.  39 NOT IRREDUCIBLE

 INPUT LIST - ATOM N.  40 NOT IRREDUCIBLE

 INPUT LIST - ATOM N.  37 NOT IRREDUCIBLE

 INPUT LIST - ATOM N.  38 NOT IRREDUCIBLE

 INPUT LIST - ATOM N.  39 NOT IRREDUCIBLE

 INPUT LIST - ATOM N.  40 NOT IRREDUCIBLE

 INPUT LIST - ATOM N.  42 NOT IRREDUCIBLE

 INPUT LIST - ATOM N.  43 NOT IRREDUCIBLE

 INPUT LIST - ATOM N.  44 NOT IRREDUCIBLE

 INPUT LIST - ATOM N.  41 NOT IRREDUCIBLE

 INPUT LIST - ATOM N.  42 NOT IRREDUCIBLE

 INPUT LIST - ATOM N.  43 NOT IRREDUCIBLE

 INPUT LIST - ATOM N.  44 NOT IRREDUCIBLE

 INPUT LIST - ATOM N.  46 NOT IRREDUCIBLE

 INPUT LIST - ATOM N.  47 NOT IRREDUCIBLE

 INPUT LIST - ATOM N.  48 NOT IRREDUCIBLE

 INPUT LIST - ATOM N.  45 NOT IRREDUCIBLE

 INPUT LIST - ATOM N.  46 NOT IRREDUCIBLE

 INPUT LIST - ATOM N.  47 NOT IRREDUCIBLE

 INPUT LIST - ATOM N.  48 NOT IRREDUCIBLE

 INPUT LIST - ATOM N.  50 NOT IRREDUCIBLE

 INPUT LIST - ATOM N.  51 NOT IRREDUCIBLE

 INPUT LIST - ATOM N.  52 NOT IRREDUCIBLE

 INPUT LIST - ATOM N.  49 NOT IRREDUCIBLE

 INPUT LIST - ATOM N.  50 NOT IRREDUCIBLE

 INPUT LIST - ATOM N.  51 NOT IRREDUCIBLE

 INPUT LIST - ATOM N.  52 NOT IRREDUCIBLE

 INPUT LIST - ATOM N.  54 NOT IRREDUCIBLE

 INPUT LIST - ATOM N.  55 NOT IRREDUCIBLE

 INPUT LIST - ATOM N.  56 NOT IRREDUCIBLE

 INPUT LIST - ATOM N.  53 NOT IRREDUCIBLE

 INPUT LIST - ATOM N.  54 NOT IRREDUCIBLE

 INPUT LIST - ATOM N.  55 NOT IRREDUCIBLE

 INPUT LIST - ATOM N.  56 NOT IRREDUCIBLE

 INPUT LIST - ATOM N.  58 NOT IRREDUCIBLE

 INPUT LIST - ATOM N.  59 NOT IRREDUCIBLE

 INPUT LIST - ATOM N.  60 NOT IRREDUCIBLE

 INPUT LIST - ATOM N.  57 NOT IRREDUCIBLE

 INPUT LIST - ATOM N.  58 NOT IRREDUCIBLE

 INPUT LIST - ATOM N.  59 NOT IRREDUCIBLE

 INPUT LIST - ATOM N.  60 NOT IRREDUCIBLE

 INPUT LIST - ATOM N.  61 NOT IRREDUCIBLE

 INPUT LIST - ATOM N.  62 NOT IRREDUCIBLE

 COORDINATES OF THE EQUIVALENT ATOMS (FRACTIONAL UNITS)

 N. ATOM EQUIV AT. N.          X                  Y                  Z

   1   1   1    1 H    -1.25960000000E-01 -3.05720000000E-01  2.94980000000E-01
   2   1   2    1 H     3.99300000000E-01 -4.20940000000E-01 -2.94980000000E-01
   3   1   3    1 H     3.05720000000E-01 -3.99300000000E-01  1.79760000000E-01
   4   1   4    1 H     4.20940000000E-01  1.25960000000E-01 -1.79760000000E-01








   5   9   1   35 BR   -2.33980000000E-01  6.67500000000E-02 -3.48890000000E-01
   6   9   2   35 BR    4.15640000000E-01  1.14910000000E-01  3.48890000000E-01
   7   9   3   35 BR   -6.67500000000E-02 -4.15640000000E-01 -3.00730000000E-01
   8   9   4   35 BR   -1.14910000000E-01  2.33980000000E-01  3.00730000000E-01








   9  17   1   35 BR    1.17570000000E-01 -2.57190000000E-01 -4.13600000000E-01
  10  17   2   35 BR    1.56410000000E-01 -4.68830000000E-01  4.13600000000E-01
  11  17   3   35 BR    2.57190000000E-01 -1.56410000000E-01  3.74760000000E-01
  12  17   4   35 BR    4.68830000000E-01 -1.17570000000E-01 -3.74760000000E-01

 NUMBER OF SYMMETRY OPERATORS         :    4
 *******************************************************************************
 * GEOMETRY EDITING - INPUT COORDINATES ARE GIVEN IN ANGSTROM         
 *******************************************************************************

 GEOMETRY NOW FULLY CONSISTENT WITH THE GROUP
 *******************************************************************************
 *  GEOMETRY EDITING
 *  THE SYMMETRY OF THE CRYSTAL IS KEPT AND APPLIED TO THE PERTURBATION
 *******************************************************************************
 INFORMATION **** NEW DEFAULT **** FINALRUN 4 FOR GEOMETRY OPTIMIZATIONS
 INFORMATION **** NEW DEFAULT **** OPTGEOM OPTIMIZES BOTH ATOMIC COORDINATES AND CELL PARAMETERS
 INFORMATION **** NEW DEFAULT **** TOL. ON ATOMIC DISP TO REDEFINE REF. GEOMETRY: 0.8 Angs
 INFORMATION **** NEW DEFAULT **** N POINTS TO REDEFINE REF. GEOMETRY: N OF OPT DEGS OF FREEDOM
 INFORMATION **** NEW DEFAULT **** TOL. ON ENERGY TO REDEFINE REF. GEOMETRY: 10**-3*(5*N. ATOMS)

 IMPORTANT INFORMATION:
 THE COORDINATE SYSTEM ADOPTED IN THE OPTIMIZATION IS NOT IN
 GENERAL HOMOGENEOUS UNITS. FOR THIS REASON THE GRADIENT AND 
 HESSIAN MATRIX IN TERMS OF THIS SYSTEM ARE GIVEN WITHOUT
 UNITS. FOR MORE DETAILS SEE THE MANUAL.

 *******************************************************************************
 COMBINED CELL/ATOM OPTIMIZATION CONTROL

 INITIAL TRUST RADIUS         0.50000 MAXIMUM TRUST RADIUS               4.00000
 MAXIMUM GRADIENT COMPONENT   0.00045 MAXIMUM DISPLACEMENT COMPONENT     0.00180
 R.M.S. OF GRADIENT COMPONENT 0.00030 R.M.S. OF DISPLACEMENT COMPONENTS  0.00120
 THRESHOLD ON ENERGY CHANGE 0.100E-06 EXTRAPOLATING POLYNOMIAL ORDER           2
 MAXIMUM ALLOWED NUMBER OF STEPS   -1 SORTING OF ENERGY POINTS:               NO
 ANALYTICAL  GRADIENT                 HESSIAN UPDATING                      BFGS
 STEP SIZE NUMERICAL GRADIENT 0.00100
 INITIAL HESSIAN MATRIX: SCHLEGEL MODEL 2
 *******************************************************************************


 GCALCO - MAX INDICES DIRECT LATTICE VECTOR    14    14    16
 NO.OF VECTORS CREATED 6999 STARS  481 RMAX   197.96270 BOHR

 GEOMETRY FOR WAVE FUNCTION - DIMENSIONALITY OF THE SYSTEM    3
 (NON PERIODIC DIRECTION: LATTICE PARAMETER FORMALLY SET TO 500)
 *******************************************************************************
 LATTICE PARAMETERS (ANGSTROMS AND DEGREES) - BOHR = 0.5291772083 ANGSTROM
 PRIMITIVE CELL - CENTRING CODE 6/0 VOLUME=   685.870456 - DENSITY  3.233 g/cm^3
         A              B              C           ALPHA      BETA       GAMMA 
     9.78647490     9.78647490     9.78647490   117.472078 117.472078  94.437262
 *******************************************************************************
 ATOMS IN THE ASYMMETRIC UNIT   17 - ATOMS IN THE UNIT CELL:   62
     ATOM                 X/A                 Y/B                 Z/C    
 *******************************************************************************
      1 T   1 H    -1.259600000000E-01 -3.057200000000E-01  2.949800000000E-01
      2 F   1 H     3.993000000000E-01 -4.209400000000E-01 -2.949800000000E-01
      3 F   1 H     3.057200000000E-01 -3.993000000000E-01  1.797600000000E-01
      4 F   1 H     4.209400000000E-01  1.259600000000E-01 -1.797600000000E-01
      5 T  35 BR   -2.339800000000E-01  6.675000000000E-02 -3.488900000000E-01
      6 F  35 BR    4.156400000000E-01  1.149100000000E-01  3.488900000000E-01
      7 F  35 BR   -6.675000000000E-02 -4.156400000000E-01 -3.007300000000E-01
      8 F  35 BR   -1.149100000000E-01  2.339800000000E-01  3.007300000000E-01
      9 T  35 BR    1.175700000000E-01 -2.571900000000E-01 -4.136000000000E-01
     10 F  35 BR    1.564100000000E-01 -4.688300000000E-01  4.136000000000E-01
     11 F  35 BR    2.571900000000E-01 -1.564100000000E-01  3.747600000000E-01
     12 F  35 BR    4.688300000000E-01 -1.175700000000E-01 -3.747600000000E-01
     13 T   1 H     1.811100000000E-01 -3.390000000000E-02 -1.008300000000E-01
     14 F   1 H     6.693000000000E-02  2.819400000000E-01  1.008300000000E-01
     15 F   1 H     3.390000000000E-02 -6.693000000000E-02  2.150100000000E-01
     16 F   1 H    -2.819400000000E-01 -1.811100000000E-01 -2.150100000000E-01
     17 T   6 C    -1.974700000000E-01 -1.188000000000E-01  4.506300000000E-01
     18 F   6 C     4.305700000000E-01  3.519000000000E-01 -4.506300000000E-01
     19 F   6 C     1.188000000000E-01 -4.305700000000E-01 -7.867000000000E-02
     20 F   6 C    -3.519000000000E-01  1.974700000000E-01  7.867000000000E-02
     21 T   6 C    -3.338300000000E-01 -1.256000000000E-01  2.945700000000E-01
     22 F   6 C    -4.201700000000E-01  3.716000000000E-01 -2.945700000000E-01
     23 F   6 C     1.256000000000E-01  4.201700000000E-01 -2.082300000000E-01
     24 F   6 C    -3.716000000000E-01  3.338300000000E-01  2.082300000000E-01
     25 T   6 C    -9.899000000000E-02 -2.142900000000E-01  4.320400000000E-01
     26 F   6 C     3.536700000000E-01  4.689700000000E-01 -4.320400000000E-01
     27 F   6 C     2.142900000000E-01 -3.536700000000E-01  1.153000000000E-01
     28 F   6 C    -4.689700000000E-01  9.899000000000E-02 -1.153000000000E-01
     29 T   6 C     7.302000000000E-02 -6.388000000000E-02 -2.317200000000E-01
     30 F   6 C     1.678400000000E-01  3.047400000000E-01  2.317200000000E-01
     31 F   6 C     6.388000000000E-02 -1.678400000000E-01  1.369000000000E-01
     32 F   6 C    -3.047400000000E-01 -7.302000000000E-02 -1.369000000000E-01
     33 T   6 C    -1.559200000000E-01 -4.140000000000E-03 -3.689200000000E-01
     34 F   6 C     3.647800000000E-01  2.130000000000E-01  3.689200000000E-01
     35 F   6 C     4.140000000000E-03 -3.647800000000E-01 -1.517800000000E-01
     36 F   6 C    -2.130000000000E-01  1.559200000000E-01  1.517800000000E-01
     37 T   6 C     2.196300000000E-01  4.432200000000E-01  4.064100000000E-01
     38 F   6 C     3.681000000000E-02 -1.867800000000E-01 -4.064100000000E-01
     39 F   6 C    -4.432200000000E-01 -3.681000000000E-02 -2.235900000000E-01
     40 F   6 C     1.867800000000E-01 -2.196300000000E-01  2.235900000000E-01
     41 T   7 N    -3.698800000000E-01  8.060000000000E-03  3.036000000000E-01
     42 F   7 N    -2.955400000000E-01  3.265200000000E-01 -3.036000000000E-01
     43 F   7 N    -8.060000000000E-03  2.955400000000E-01 -3.779400000000E-01
     44 F   7 N    -3.265200000000E-01  3.698800000000E-01  3.779400000000E-01
     45 T   7 N     4.956200000000E-01 -4.619000000000E-02  1.298900000000E-01
     46 F   7 N    -1.760800000000E-01  3.657300000000E-01 -1.298900000000E-01
     47 F   7 N     4.619000000000E-02  1.760800000000E-01 -4.581900000000E-01
     48 F   7 N    -3.657300000000E-01 -4.956200000000E-01  4.581900000000E-01
     49 T   7 N    -4.438100000000E-01 -2.597400000000E-01  1.196500000000E-01
     50 F   7 N    -3.793900000000E-01  4.365400000000E-01 -1.196500000000E-01
     51 F   7 N     2.597400000000E-01  3.793900000000E-01 -1.840700000000E-01
     52 F   7 N    -4.365400000000E-01  4.438100000000E-01  1.840700000000E-01
     53 T   7 N     4.516900000000E-01 -2.071600000000E-01  1.889000000000E-02
     54 F   7 N    -2.260500000000E-01  4.328000000000E-01 -1.889000000000E-02
     55 F   7 N     2.071600000000E-01  2.260500000000E-01 -3.411500000000E-01
     56 F   7 N    -4.328000000000E-01 -4.516900000000E-01  3.411500000000E-01
     57 T   7 N    -2.332000000000E-02  2.533000000000E-02 -2.138100000000E-01
     58 F   7 N     2.391400000000E-01  1.904900000000E-01  2.138100000000E-01
     59 F   7 N    -2.533000000000E-02 -2.391400000000E-01 -4.865000000000E-02
     60 F   7 N    -1.904900000000E-01  2.332000000000E-02  4.865000000000E-02
     61 T  30 ZN   -2.500000000000E-01  2.500000000000E-01  5.000000000000E-01
     62 T  30 ZN   -5.000000000000E-01  5.000000000000E-01  0.000000000000E+00

 TRANSFORMATION MATRIX PRIMITIVE-CRYSTALLOGRAPHIC CELL
  0.0000  1.0000  1.0000  1.0000  0.0000  1.0000  1.0000  1.0000  0.0000

 *******************************************************************************
 CRYSTALLOGRAPHIC CELL (VOLUME=       1371.74091142)
         A              B              C           ALPHA      BETA       GAMMA 
    10.15800000    10.15800000    13.29400000    90.000000  90.000000  90.000000

 COORDINATES IN THE CRYSTALLOGRAPHIC CELL
     ATOM                 X/A                 Y/B                 Z/C    
 *******************************************************************************
      1 T   1 H     5.761000000000E-02  2.373700000000E-01 -3.633300000000E-01
      2 F   1 H    -5.761000000000E-02 -2.373700000000E-01 -3.633300000000E-01
      3 F   1 H     2.373700000000E-01 -5.761000000000E-02  3.633300000000E-01
      4 F   1 H    -2.373700000000E-01  5.761000000000E-02  3.633300000000E-01
      5 T  35 BR   -2.408000000000E-02 -3.248100000000E-01  9.083000000000E-02
      6 F  35 BR    2.408000000000E-02  3.248100000000E-01  9.083000000000E-02
      7 F  35 BR   -3.248100000000E-01  2.408000000000E-02 -9.083000000000E-02
      8 F  35 BR    3.248100000000E-01 -2.408000000000E-02 -9.083000000000E-02
      9 T  35 BR   -3.941800000000E-01 -1.942000000000E-02  1.369900000000E-01
     10 F  35 BR    3.941800000000E-01  1.942000000000E-02  1.369900000000E-01
     11 F  35 BR   -1.942000000000E-02  3.941800000000E-01 -1.369900000000E-01
     12 F  35 BR    1.942000000000E-02 -3.941800000000E-01 -1.369900000000E-01
     13 T   1 H    -1.579200000000E-01  5.709000000000E-02  1.240200000000E-01
     14 F   1 H     1.579200000000E-01 -5.709000000000E-02  1.240200000000E-01
     15 F   1 H     5.709000000000E-02  1.579200000000E-01 -1.240200000000E-01
     16 F   1 H    -5.709000000000E-02 -1.579200000000E-01 -1.240200000000E-01
     17 T   6 C    -2.353500000000E-01 -3.140200000000E-01  1.165500000000E-01
     18 F   6 C     2.353500000000E-01  3.140200000000E-01  1.165500000000E-01
     19 F   6 C    -3.140200000000E-01  2.353500000000E-01 -1.165500000000E-01
     20 F   6 C     3.140200000000E-01 -2.353500000000E-01 -1.165500000000E-01
     21 T   6 C    -2.486000000000E-01 -4.568300000000E-01  1.230000000000E-01
     22 F   6 C     2.486000000000E-01  4.568300000000E-01  1.230000000000E-01
     23 F   6 C    -4.568300000000E-01  2.486000000000E-01 -1.230000000000E-01
     24 F   6 C     4.568300000000E-01 -2.486000000000E-01 -1.230000000000E-01
     25 T   6 C    -3.416300000000E-01 -2.263300000000E-01  1.273400000000E-01
     26 F   6 C     3.416300000000E-01  2.263300000000E-01  1.273400000000E-01
     27 F   6 C    -2.263300000000E-01  3.416300000000E-01 -1.273400000000E-01
     28 F   6 C     2.263300000000E-01 -3.416300000000E-01 -1.273400000000E-01
     29 T   6 C    -1.843100000000E-01 -4.741000000000E-02  1.204300000000E-01
     30 F   6 C     1.843100000000E-01  4.741000000000E-02  1.204300000000E-01
     31 F   6 C    -4.741000000000E-02  1.843100000000E-01 -1.204300000000E-01
     32 F   6 C     4.741000000000E-02 -1.843100000000E-01 -1.204300000000E-01
     33 T   6 C    -1.085700000000E-01 -2.603500000000E-01  1.044300000000E-01
     34 F   6 C     1.085700000000E-01  2.603500000000E-01  1.044300000000E-01
     35 F   6 C    -2.603500000000E-01  1.085700000000E-01 -1.044300000000E-01
     36 F   6 C     2.603500000000E-01 -1.085700000000E-01 -1.044300000000E-01
     37 T   6 C     3.150000000000E-01  9.141000000000E-02  1.282200000000E-01
     38 F   6 C    -3.150000000000E-01 -9.141000000000E-02  1.282200000000E-01
     39 F   6 C     9.141000000000E-02 -3.150000000000E-01 -1.282200000000E-01
     40 F   6 C    -9.141000000000E-02  3.150000000000E-01 -1.282200000000E-01
     41 T   7 N    -1.592300000000E-01  4.628300000000E-01  1.672900000000E-01
     42 F   7 N     1.592300000000E-01 -4.628300000000E-01  1.672900000000E-01
     43 F   7 N     4.628300000000E-01  1.592300000000E-01 -1.672900000000E-01
     44 F   7 N    -4.628300000000E-01 -1.592300000000E-01 -1.672900000000E-01
     45 T   7 N    -2.059600000000E-01  3.358500000000E-01  1.597700000000E-01
     46 F   7 N     2.059600000000E-01 -3.358500000000E-01  1.597700000000E-01
     47 F   7 N     3.358500000000E-01  2.059600000000E-01 -1.597700000000E-01
     48 F   7 N    -3.358500000000E-01 -2.059600000000E-01 -1.597700000000E-01
     49 T   7 N     1.518600000000E-01 -3.221000000000E-02 -4.116000000000E-01
     50 F   7 N    -1.518600000000E-01  3.221000000000E-02 -4.116000000000E-01
     51 F   7 N    -3.221000000000E-02 -1.518600000000E-01  4.116000000000E-01
     52 F   7 N     3.221000000000E-02  1.518600000000E-01  4.116000000000E-01
     53 T   7 N    -3.199800000000E-01  3.388700000000E-01  1.128200000000E-01
     54 F   7 N     3.199800000000E-01 -3.388700000000E-01  1.128200000000E-01
     55 F   7 N     3.388700000000E-01  3.199800000000E-01 -1.128200000000E-01
     56 F   7 N    -3.388700000000E-01 -3.199800000000E-01 -1.128200000000E-01
     57 T   7 N    -8.258000000000E-02 -1.312300000000E-01  1.079100000000E-01
     58 F   7 N     8.258000000000E-02  1.312300000000E-01  1.079100000000E-01
     59 F   7 N    -1.312300000000E-01  8.258000000000E-02 -1.079100000000E-01
     60 F   7 N     1.312300000000E-01 -8.258000000000E-02 -1.079100000000E-01
     61 T  30 ZN    4.626932236752E-17  5.000000000000E-01  2.500000000000E-01
     62 T  30 ZN    0.000000000000E+00  0.000000000000E+00  5.000000000000E-01

 T = ATOM BELONGING TO THE ASYMMETRIC UNIT

 ****    4 SYMMOPS - TRANSLATORS IN FRACTIONAL UNITS
 **** MATRICES AND TRANSLATORS IN THE CRYSTALLOGRAPHIC REFERENCE FRAME
   V INV                    ROTATION MATRICES                   TRANSLATORS
   1   1  1.00  0.00  0.00  0.00  1.00  0.00  0.00  0.00  1.00  0.00  0.00  0.00
   2   2  0.00  1.00 -1.00  1.00 -0.00 -1.00 -0.00  0.00 -1.00  0.00  0.00  0.00
   3   4 -0.00 -1.00  0.00  0.00 -1.00  1.00  1.00 -1.00  0.00  0.00  0.00  0.00
   4   3 -1.00 -0.00  1.00 -1.00  0.00 -0.00 -1.00  1.00 -0.00  0.00  0.00  0.00

 DIRECT LATTICE VECTORS CARTESIAN COMPONENTS (ANGSTROM)
          X                    Y                    Z
  -0.507900000000E+01   0.507900000000E+01   0.664700000000E+01
   0.507900000000E+01  -0.507900000000E+01   0.664700000000E+01
   0.507900000000E+01   0.507900000000E+01  -0.664700000000E+01


 CARTESIAN COORDINATES - PRIMITIVE CELL
 *******************************************************************************
 *      ATOM          X(ANGSTROM)         Y(ANGSTROM)         Z(ANGSTROM)
 *******************************************************************************
    1     1 H     5.852023800000E-01  2.411204460000E+00 -4.830109020000E+00
    2     1 H    -5.852023800000E-01 -2.411204460000E+00 -4.830109020000E+00
    3     1 H     2.411204460000E+00 -5.852023800000E-01  4.830109020000E+00
    4     1 H    -2.411204460000E+00  5.852023800000E-01  4.830109020000E+00
    5    35 BR   -2.446046400000E-01 -3.299419980000E+00  1.207494020000E+00
    6    35 BR    2.446046400000E-01  3.299419980000E+00  1.207494020000E+00
    7    35 BR   -3.299419980000E+00  2.446046400000E-01 -1.207494020000E+00
    8    35 BR    3.299419980000E+00 -2.446046400000E-01 -1.207494020000E+00
    9    35 BR   -4.004080440000E+00 -1.972683600000E-01  1.821145060000E+00
   10    35 BR    4.004080440000E+00  1.972683600000E-01  1.821145060000E+00
   11    35 BR   -1.972683600000E-01  4.004080440000E+00 -1.821145060000E+00
   12    35 BR    1.972683600000E-01 -4.004080440000E+00 -1.821145060000E+00
   13     1 H    -1.604151360000E+00  5.799202200000E-01  1.648721880000E+00
   14     1 H     1.604151360000E+00 -5.799202200000E-01  1.648721880000E+00
   15     1 H     5.799202200000E-01  1.604151360000E+00 -1.648721880000E+00
   16     1 H    -5.799202200000E-01 -1.604151360000E+00 -1.648721880000E+00
   17     6 C    -2.390685300000E+00 -3.189815160000E+00  1.549415700000E+00
   18     6 C     2.390685300000E+00  3.189815160000E+00  1.549415700000E+00
   19     6 C    -3.189815160000E+00  2.390685300000E+00 -1.549415700000E+00
   20     6 C     3.189815160000E+00 -2.390685300000E+00 -1.549415700000E+00
   21     6 C    -2.525278800000E+00 -4.640479140000E+00  1.635162000000E+00
   22     6 C     2.525278800000E+00  4.640479140000E+00  1.635162000000E+00
   23     6 C    -4.640479140000E+00  2.525278800000E+00 -1.635162000000E+00
   24     6 C     4.640479140000E+00 -2.525278800000E+00 -1.635162000000E+00
   25     6 C    -3.470277540000E+00 -2.299060140000E+00  1.692857960000E+00
   26     6 C     3.470277540000E+00  2.299060140000E+00  1.692857960000E+00
   27     6 C    -2.299060140000E+00  3.470277540000E+00 -1.692857960000E+00
   28     6 C     2.299060140000E+00 -3.470277540000E+00 -1.692857960000E+00
   29     6 C    -1.872220980000E+00 -4.815907800000E-01  1.600996420000E+00
   30     6 C     1.872220980000E+00  4.815907800000E-01  1.600996420000E+00
   31     6 C    -4.815907800000E-01  1.872220980000E+00 -1.600996420000E+00
   32     6 C     4.815907800000E-01 -1.872220980000E+00 -1.600996420000E+00
   33     6 C    -1.102854060000E+00 -2.644635300000E+00  1.388292420000E+00
   34     6 C     1.102854060000E+00  2.644635300000E+00  1.388292420000E+00
   35     6 C    -2.644635300000E+00  1.102854060000E+00 -1.388292420000E+00
   36     6 C     2.644635300000E+00 -1.102854060000E+00 -1.388292420000E+00
   37     6 C     3.199770000000E+00  9.285427800000E-01  1.704556680000E+00
   38     6 C    -3.199770000000E+00 -9.285427800000E-01  1.704556680000E+00
   39     6 C     9.285427800000E-01 -3.199770000000E+00 -1.704556680000E+00
   40     6 C    -9.285427800000E-01  3.199770000000E+00 -1.704556680000E+00
   41     7 N    -1.617458340000E+00  4.701427140000E+00  2.223953260000E+00
   42     7 N     1.617458340000E+00 -4.701427140000E+00  2.223953260000E+00
   43     7 N     4.701427140000E+00  1.617458340000E+00 -2.223953260000E+00
   44     7 N    -4.701427140000E+00 -1.617458340000E+00 -2.223953260000E+00
   45     7 N    -2.092141680000E+00  3.411564300000E+00  2.123982380000E+00
   46     7 N     2.092141680000E+00 -3.411564300000E+00  2.123982380000E+00
   47     7 N     3.411564300000E+00  2.092141680000E+00 -2.123982380000E+00
   48     7 N    -3.411564300000E+00 -2.092141680000E+00 -2.123982380000E+00
   49     7 N     1.542593880000E+00 -3.271891800000E-01 -5.471810400000E+00
   50     7 N    -1.542593880000E+00  3.271891800000E-01 -5.471810400000E+00
   51     7 N    -3.271891800000E-01 -1.542593880000E+00  5.471810400000E+00
   52     7 N     3.271891800000E-01  1.542593880000E+00  5.471810400000E+00
   53     7 N    -3.250356840000E+00  3.442241460000E+00  1.499829080000E+00
   54     7 N     3.250356840000E+00 -3.442241460000E+00  1.499829080000E+00
   55     7 N     3.442241460000E+00  3.250356840000E+00 -1.499829080000E+00
   56     7 N    -3.442241460000E+00 -3.250356840000E+00 -1.499829080000E+00
   57     7 N    -8.388476400000E-01 -1.333034340000E+00  1.434555540000E+00
   58     7 N     8.388476400000E-01  1.333034340000E+00  1.434555540000E+00
   59     7 N    -1.333034340000E+00  8.388476400000E-01 -1.434555540000E+00
   60     7 N     1.333034340000E+00 -8.388476400000E-01 -1.434555540000E+00
   61    30 ZN    4.700037766092E-16  5.079000000000E+00 -9.970500000000E+00
   62    30 ZN    0.000000000000E+00  0.000000000000E+00  6.647000000000E+00

 *******************************************************************************
 STARTING BASIS SET HANDLING 
 *******************************************************************************

 Loading internal basis set: POB-DZVPP           

 Please cite in your publication:
 Peintinger, M. F., Oliveira, D. V. and Bredow, T. (2013), Generally applicable 
 solid-state Gaussian basis sets, in preparation                                
                                                                                
                    

 *******************************************************************************
 LOCAL ATOMIC FUNCTIONS BASIS SET
 *******************************************************************************
   ATOM   X(AU)   Y(AU)   Z(AU)  N. TYPE  EXPONENT  S COEF   P COEF   D/F/G COEF
 *******************************************************************************
   1 H    1.106   4.557  -9.128
                                  1 S  
                                         2.263E+01 1.441E-02 0.000E+00 0.000E+00
                                         3.236E+00 1.072E-01 0.000E+00 0.000E+00
                                         7.304E-01 3.846E-01 0.000E+00 0.000E+00
                                  2 S  
                                         1.417E-01 1.000E+00 0.000E+00 0.000E+00
                           3-     5 P  
                                         3.944E-01 0.000E+00 1.000E+00 0.000E+00
                           6-     8 P  
                                         1.006E-01 0.000E+00 1.000E+00 0.000E+00
   2 H   -1.106  -4.557  -9.128
   3 H    4.557  -1.106   9.128
   4 H   -4.557   1.106   9.128
   5 BR  -0.462  -6.235   2.282
                                 33 S  
                                         1.133E+05 1.428E-03 0.000E+00 0.000E+00
                                         1.701E+04 1.095E-02 0.000E+00 0.000E+00
                                         3.870E+03 5.442E-02 0.000E+00 0.000E+00
                                         1.093E+03 1.905E-01 0.000E+00 0.000E+00
                                         3.564E+02 3.902E-01 0.000E+00 0.000E+00
                                         1.231E+02 3.081E-01 0.000E+00 0.000E+00
                                 34 S  
                                         2.367E+02-1.123E-01 0.000E+00 0.000E+00
                                         2.847E+01 6.478E-01 0.000E+00 0.000E+00
                                         1.188E+01 4.424E-01 0.000E+00 0.000E+00
                                 35 S  
                                         2.127E+01-2.264E-01 0.000E+00 0.000E+00
                                         3.613E+00 7.382E-01 0.000E+00 0.000E+00
                                         1.663E+00 4.268E-01 0.000E+00 0.000E+00
                                 36 S  
                                         3.641E-01 1.000E+00 0.000E+00 0.000E+00
                                 37 S  
                                         1.243E-01 1.000E+00 0.000E+00 0.000E+00
                          38-    40 P  
                                         1.560E+03 0.000E+00 8.717E-03 0.000E+00
                                         3.685E+02 0.000E+00 6.624E-02 0.000E+00
                                         1.172E+02 0.000E+00 2.650E-01 0.000E+00
                                         4.265E+01 0.000E+00 5.384E-01 0.000E+00
                                         1.609E+01 0.000E+00 3.658E-01 0.000E+00
                          41-    43 P  
                                         8.635E+00 0.000E+00 3.425E-01 0.000E+00
                                         3.561E+00 0.000E+00 5.750E-01 0.000E+00
                                         1.529E+00 0.000E+00 2.433E-01 0.000E+00
                          44-    46 P  
                                         6.447E-01 0.000E+00 1.000E+00 0.000E+00
                          47-    49 P  
                                         2.103E-01 0.000E+00 1.000E+00 0.000E+00
                          50-    54 D  
                                         1.049E+02 0.000E+00 0.000E+00 2.265E-02
                                         3.028E+01 0.000E+00 0.000E+00 1.346E-01
                                         1.065E+01 0.000E+00 0.000E+00 3.647E-01
                                         3.870E+00 0.000E+00 0.000E+00 4.904E-01
                          55-    59 D  
                                         1.342E+00 0.000E+00 0.000E+00 1.000E+00
                          60-    64 D  
                                         4.101E-01 0.000E+00 0.000E+00 1.000E+00
                          65-    69 D  
                                         1.985E-01 0.000E+00 0.000E+00 1.000E+00
   6 BR   0.462   6.235   2.282
   7 BR  -6.235   0.462  -2.282
   8 BR   6.235  -0.462  -2.282
   9 BR  -7.567  -0.373   3.441
  10 BR   7.567   0.373   3.441
  11 BR  -0.373   7.567  -3.441
  12 BR   0.373  -7.567  -3.441
  13 H   -3.031   1.096   3.116
  14 H    3.031  -1.096   3.116
  15 H    1.096   3.031  -3.116
  16 H   -1.096  -3.031  -3.116
  17 C   -4.518  -6.028   2.928
                                361 S  
                                         1.238E+03 5.457E-03 0.000E+00 0.000E+00
                                         1.863E+02 4.064E-02 0.000E+00 0.000E+00
                                         4.225E+01 1.803E-01 0.000E+00 0.000E+00
                                         1.168E+01 4.632E-01 0.000E+00 0.000E+00
                                         3.593E+00 4.409E-01 0.000E+00 0.000E+00
                                362 S  
                                         5.281E+00 1.000E+00 0.000E+00 0.000E+00
                                363 S  
                                         4.447E-01 1.000E+00 0.000E+00 0.000E+00
                         364-   366 P  
                                         9.468E+00 0.000E+00 3.839E-02 0.000E+00
                                         2.010E+00 0.000E+00 2.112E-01 0.000E+00
                                         5.477E-01 0.000E+00 5.133E-01 0.000E+00
                         367-   369 P  
                                         1.604E-01 0.000E+00 1.000E+00 0.000E+00
                         370-   374 D  
                                         6.070E-01 0.000E+00 0.000E+00 1.000E+00
                         375-   379 D  
                                         2.939E-01 0.000E+00 0.000E+00 1.000E+00
  18 C    4.518   6.028   2.928
  19 C   -6.028   4.518  -2.928
  20 C    6.028  -4.518  -2.928
  21 C   -4.772  -8.769   3.090
  22 C    4.772   8.769   3.090
  23 C   -8.769   4.772  -3.090
  24 C    8.769  -4.772  -3.090
  25 C   -6.558  -4.345   3.199
  26 C    6.558   4.345   3.199
  27 C   -4.345   6.558  -3.199
  28 C    4.345  -6.558  -3.199
  29 C   -3.538  -0.910   3.025
  30 C    3.538   0.910   3.025
  31 C   -0.910   3.538  -3.025
  32 C    0.910  -3.538  -3.025
  33 C   -2.084  -4.998   2.623
  34 C    2.084   4.998   2.623
  35 C   -4.998   2.084  -2.623
  36 C    4.998  -2.084  -2.623
  37 C    6.047   1.755   3.221
  38 C   -6.047  -1.755   3.221
  39 C    1.755  -6.047  -3.221
  40 C   -1.755   6.047  -3.221
  41 N   -3.057   8.884   4.203
                                817 S  
                                         1.713E+03-5.393E-03 0.000E+00 0.000E+00
                                         2.576E+02-4.022E-02 0.000E+00 0.000E+00
                                         5.846E+01-1.793E-01 0.000E+00 0.000E+00
                                         1.620E+01-4.638E-01 0.000E+00 0.000E+00
                                         5.005E+00-4.417E-01 0.000E+00 0.000E+00
                                818 S  
                                         6.217E-01 1.000E+00 0.000E+00 0.000E+00
                                819 S  
                                         2.921E-01 1.000E+00 0.000E+00 0.000E+00
                         820-   822 P  
                                         1.357E+01 0.000E+00-4.007E-02 0.000E+00
                                         2.926E+00 0.000E+00-2.181E-01 0.000E+00
                                         7.993E-01 0.000E+00-5.129E-01 0.000E+00
                         823-   825 P  
                                         2.244E-01 0.000E+00 1.000E+00 0.000E+00
                         826-   830 D  
                                         3.118E-01 0.000E+00 0.000E+00 1.000E+00
  42 N    3.057  -8.884   4.203
  43 N    8.884   3.057  -4.203
  44 N   -8.884  -3.057  -4.203
  45 N   -3.954   6.447   4.014
  46 N    3.954  -6.447   4.014
  47 N    6.447   3.954  -4.014
  48 N   -6.447  -3.954  -4.014
  49 N    2.915  -0.618 -10.340
  50 N   -2.915   0.618 -10.340
  51 N   -0.618  -2.915  10.340
  52 N    0.618   2.915  10.340
  53 N   -6.142   6.505   2.834
  54 N    6.142  -6.505   2.834
  55 N    6.505   6.142  -2.834
  56 N   -6.505  -6.142  -2.834
  57 N   -1.585  -2.519   2.711
  58 N    1.585   2.519   2.711
  59 N   -2.519   1.585  -2.711
  60 N    2.519  -1.585  -2.711
  61 ZN   0.000   9.598 -18.842
                               1097 S  
                                         8.200E+04 1.421E-03 0.000E+00 0.000E+00
                                         1.231E+04 1.089E-02 0.000E+00 0.000E+00
                                         2.801E+03 5.406E-02 0.000E+00 0.000E+00
                                         7.910E+02 1.885E-01 0.000E+00 0.000E+00
                                         2.576E+02 3.835E-01 0.000E+00 0.000E+00
                                         8.881E+01 2.972E-01 0.000E+00 0.000E+00
                               1098 S  
                                         1.719E+02-1.105E-01 0.000E+00 0.000E+00
                                         2.030E+01 6.461E-01 0.000E+00 0.000E+00
                                         8.346E+00 4.422E-01 0.000E+00 0.000E+00
                               1099 S  
                                         1.485E+01-2.271E-01 0.000E+00 0.000E+00
                                         2.450E+00 7.243E-01 0.000E+00 0.000E+00
                                         9.985E-01 4.484E-01 0.000E+00 0.000E+00
                               1100 S  
                                         1.493E+00 1.000E+00 0.000E+00 0.000E+00
                               1101 S  
                                         1.830E-01 1.000E+00 0.000E+00 0.000E+00
                        1102-  1104 P  
                                         1.072E+03 0.000E+00 9.277E-03 0.000E+00
                                         2.527E+02 0.000E+00 6.954E-02 0.000E+00
                                         8.010E+01 0.000E+00 2.716E-01 0.000E+00
                                         2.890E+01 0.000E+00 5.340E-01 0.000E+00
                                         1.077E+01 0.000E+00 3.450E-01 0.000E+00
                        1105-  1107 P  
                                         5.645E+00 0.000E+00 3.413E-01 0.000E+00
                                         2.168E+00 0.000E+00 5.639E-01 0.000E+00
                                         8.054E-01 0.000E+00 2.368E-01 0.000E+00
                        1108-  1110 P  
                                         2.721E-01 0.000E+00 1.000E+00 0.000E+00
                        1111-  1115 D  
                                         5.609E+01 0.000E+00 0.000E+00 2.959E-02
                                         1.575E+01 0.000E+00 0.000E+00 1.587E-01
                                         5.312E+00 0.000E+00 0.000E+00 3.798E-01
                                         1.774E+00 0.000E+00 0.000E+00 4.690E-01
                        1116-  1120 D  
                                         5.073E-01 0.000E+00 0.000E+00 1.000E+00
                        1121-  1127 F  
                                         2.814E+00 0.000E+00 0.000E+00 1.000E+00
                        1128-  1134 F  
                                         1.300E+00 0.000E+00 0.000E+00 1.000E+00
  62 ZN   0.000   0.000  12.561

 *******************************************************************************
 FINISHED BASIS SET HANDLING 
 *******************************************************************************

 INFORMATION **** SET_MPP **** PCRYSTAL CALCULATION
 INFORMATION **** READM2 **** NEW DEFAULT: FOCK/KS MATRIX MIXING SET TO 30 %
 INFORMATION **** READM2 **** NEW DEFAULT: FULL DIRECT SCF MODE
 INFORMATION **** READM2 **** NEW DEFAULT: COULOMB BIPOLAR BUFFER SET TO 32 Mb
 INFORMATION **** READM2 **** NEW DEFAULT: EXCHANGE BIPOLAR BUFFER SET TO 32 Mb

 *******************************************************************************
 NEW DEFAULT: DFT INTEGRATION GRID INCREASED TO XLGRID
 NEW DEFAULT: DIIS ACCELERATOR ACTIVE
 USE KEYWORD NODIIS TO TURN IT OFF
 *******************************************************************************

 INFORMATION **** DFTD3_INPUT **** PERFORM DISPERSION CORRECTION DFT-D3(BJ) IN THE BECKE-JOHNSON DAMPING SCHEME

 PLEASE CITE:
 (1) DFT-D3 Reference
  S. Grimme, J. Antony, S. Ehrlich, and H. Krieg, J. Chem. Phys. 132 (2010), 154104
 (2) BJ-Damping Reference
  S. Grimme, S. Ehrlich, and L. Goerigk, J. Comput. Chem. 32 (2011), 1456-1465
 (3) General DFT-D Review
  S. Grimme, A. Hansen, J. G. Brandenburg, and C. Bannwarth,
  Chem. Rev. 116 (2016), 5105-5154

 INFORMATION **** BIPOSIZE **** COULOMB BIPOLAR BUFFER SET TO    30000000
 INFORMATION **** EXCHSIZE **** EXCHANGE BIPOLAR BUFFER SIZE SET TO    30000000
 INFORMATION **** TOLINTEG **** COULOMB AND EXCHANGE SERIES TOLERANCES MODIFIED
 INFORMATION **** MAXCYCLE **** MAX NUMBER OF SCF CYCLES SET TO          50
 *******************************************************************************
 N. OF ATOMS PER CELL        62  COULOMB OVERLAP TOL         (T1) 10**  -12
 NUMBER OF SHELLS           448  COULOMB PENETRATION TOL     (T2) 10**  -12
 NUMBER OF AO              1172  EXCHANGE OVERLAP TOL        (T3) 10**   20
 N. OF ELECTRONS PER CELL   632  EXCHANGE PSEUDO OVP (F(G))  (T4) 10**   20
 CORE ELECTRONS PER CELL    348  EXCHANGE PSEUDO OVP (P(G))  (T5) 10**   20
 N. OF SYMMETRY OPERATORS     4  POLE ORDER IN MONO ZONE                  4
 *******************************************************************************
 TYPE OF CALCULATION :  RESTRICTED CLOSED SHELL
 KOHN-SHAM HAMILTONIAN

 (EXCHANGE)[CORRELATION] FUNCTIONAL:(PERDEW-BURKE-ERNZERHOF)[PERDEW-BURKE-ERNZERHOF]


 CAPPA:IS1  3;IS2  3;IS3  3; K PTS MONK NET   6; SYMMOPS:K SPACE   8;G SPACE   4

 *******************************************************************************
 MAX NUMBER OF SCF CYCLES      50  CONVERGENCE ON DELTAP        10**-16
 WEIGHT OF F(I) IN F(I+1)      30% CONVERGENCE ON ENERGY        10**- 7
 SHRINK. FACT.(MONKH.)    3  3  3  NUMBER OF K POINTS IN THE IBZ      6
 SHRINKING FACTOR(GILAT NET)    3  NUMBER OF K POINTS(GILAT NET)      6
 *******************************************************************************
 *** K POINTS COORDINATES (OBLIQUE COORDINATES IN UNITS OF IS =  3)
   1-R(  0  0  0)   2-C(  1  0  0)   3-C(  1  1  0)   4-C(  2  1  0)
   5-C(  2  1  1)   6-C(  2  2  1)

 DIRECT LATTICE VECTORS COMPON. (A.U.)     RECIP. LATTICE VECTORS COMPON. (A.U.) 
        X            Y            Z              X            Y            Z
   -9.5979190    9.5979190   12.5610096      0.0000000    0.3273202    0.2501067
    9.5979190   -9.5979190   12.5610096      0.3273202    0.0000000    0.2501067
    9.5979190    9.5979190  -12.5610096      0.3273202    0.3273202    0.0000000

 DISK SPACE FOR EIGENVECTORS (FTN 10)    15109424 REALS

 SYMMETRY ADAPTION OF THE BLOCH FUNCTIONS ENABLED
 TTTTTTTTTTTTTTTTTTTTTTTTTTTTTT gordsh1     TELAPSE        1.16 TCPU        0.04

 MATRIX SIZE: P(G) 2358684, F(G) 1180456, P(G) IRR  297965, F(G) IRR  297965
 MAX G-VECTOR INDEX FOR 1- AND 2-ELECTRON INTEGRALS  63

 TTTTTTTTTTTTTTTTTTTTTTTTTTTTTT INPUT       TELAPSE        1.28 TCPU        0.15

 NEIGHBORS OF THE NON-EQUIVALENT ATOMS

 N = NUMBER OF NEIGHBORS AT DISTANCE R
    ATOM  N     R/ANG      R/AU   NEIGHBORS (ATOM LABELS AND CELL INDICES)
   1 H    1     1.0950     2.0692   25 C    0 0 1
   1 H    1     2.1707     4.1021   38 C    0 0 1
   1 H    1     2.1834     4.1260   17 C    0 0 1
   1 H    1     2.5186     4.7595    9 BR   0 0 1
   1 H    1     2.5548     4.8279   54 N    0-1 0
   1 H    1     2.7928     5.2776   21 C    0 0 1

   5 BR   1     1.0945     2.0684   33 C    0 0 0
   5 BR   1     2.0667     3.9055   57 N    0 0 0
   5 BR   1     2.1759     4.1119   17 C    0 0 0
   5 BR   1     2.5126     4.7480   46 N    0 0 0
   5 BR   1     2.5429     4.8053   42 N    0 0 0
   5 BR   1     2.6801     5.0646   21 C    0 0 0

   9 BR   1     1.0933     2.0660   38 C    0 0 0
   9 BR   1     2.1620     4.0855   29 C    0 0 0
   9 BR   1     2.1723     4.1051   25 C    0 0 0
   9 BR   1     2.1857     4.1305   10 BR   0-1-1
   9 BR   1     2.5186     4.7595    1 H    0 0-1
   9 BR   1     2.5285     4.7782   13 H    0 0 0

  13 H    1     1.0959     2.0709   29 C    0 0 0
  13 H    1     2.0715     3.9145   57 N    0 0 0
  13 H    1     2.1965     4.1508   38 C    0 0 0
  13 H    1     2.5285     4.7782    9 BR   0 0 0
  13 H    1     2.5654     4.8479   58 N    0 0 0
  13 H    1     2.9124     5.5037   45 N    0 0 0

  17 C    1     1.4070     2.6588   25 C    0 0 0
  17 C    1     1.4077     2.6602   33 C    0 0 0
  17 C    1     1.4594     2.7579   21 C    0 0 0
  17 C    1     2.1759     4.1119    5 BR   0 0 0
  17 C    1     2.1834     4.1260    1 H    0 0-1
  17 C    1     2.4067     4.5479   38 C    0 0 0

  21 C    1     1.3492     2.5496   49 N    0 0-1
  21 C    1     1.3553     2.5611   41 N   -1 0-1
  21 C    1     1.4594     2.7579   17 C    0 0 0
  21 C    1     2.2025     4.1620   53 N   -1 0-1
  21 C    1     2.2049     4.1667   45 N   -1 0-1
  21 C    1     2.4633     4.6549   33 C    0 0 0

  25 C    1     1.0950     2.0692    1 H    0 0-1
  25 C    1     1.3970     2.6400   38 C    0 0 0
  25 C    1     1.4070     2.6588   17 C    0 0 0
  25 C    1     2.1723     4.1051    9 BR   0 0 0
  25 C    1     2.4118     4.5577   33 C    0 0 0
  25 C    1     2.4219     4.5767   29 C    0 0 0

  29 C    1     1.0959     2.0709   13 H    0 0 0
  29 C    1     1.3493     2.5497   57 N    0 0 0
  29 C    1     1.4046     2.6543   38 C    0 0 0
  29 C    1     2.1620     4.0855    9 BR   0 0 0
  29 C    1     2.3056     4.3570   33 C    0 0 0
  29 C    1     2.4219     4.5767   25 C    0 0 0

  33 C    1     1.0945     2.0684    5 BR   0 0 0
  33 C    1     1.3387     2.5298   57 N    0 0 0
  33 C    1     1.4077     2.6602   17 C    0 0 0
  33 C    1     2.3056     4.3570   29 C    0 0 0
  33 C    1     2.4118     4.5577   25 C    0 0 0
  33 C    1     2.4633     4.6549   21 C    0 0 0

  37 C    1     1.0933     2.0660   10 BR   0 0 0
  37 C    1     1.3970     2.6400   26 C    0 0 0
  37 C    1     1.4046     2.6543   30 C    0 0 0
  37 C    1     2.1707     4.1021    2 H    1 1 1
  37 C    1     2.1965     4.1508   14 H    0 0 0
  37 C    1     2.4067     4.5479   18 C    0 0 0

  41 N    1     1.3553     2.5611   21 C    1 0 1
  41 N    1     1.3781     2.6042   45 N    0 0 0
  41 N    1     1.9919     3.7642   61 ZN   1 1 0
  41 N    1     2.1855     4.1299   53 N    0 0 0
  41 N    1     2.1874     4.1336   49 N    1 0 0
  41 N    1     2.4882     4.7020   17 C    1 0 1

  45 N    1     1.3160     2.4870   53 N    0 0 0
  45 N    1     1.3781     2.6042   41 N    0 0 0
  45 N    1     2.1869     4.1326   49 N    1 0 0
  45 N    1     2.2049     4.1667   21 C    1 0 1
  45 N    1     2.5126     4.7480    6 BR   0 0 0
  45 N    1     2.9124     5.5037   13 H    0 0 0

  49 N    1     1.3492     2.5496   21 C    0 0 1
  49 N    1     1.3792     2.6063   53 N   -1 0 0
  49 N    1     1.9667     3.7164   62 ZN  -1-1 0
  49 N    1     2.1869     4.1326   45 N   -1 0 0
  49 N    1     2.1874     4.1336   41 N   -1 0 0
  49 N    1     2.5229     4.7676   17 C    0 0 1

  53 N    1     1.3160     2.4870   45 N    0 0 0
  53 N    1     1.3792     2.6063   49 N    1 0 0
  53 N    1     2.1855     4.1299   41 N    0 0 0
  53 N    1     2.2025     4.1620   21 C    1 0 1
  53 N    1     2.5548     4.8279    2 H    1 0 0
  53 N    1     2.8762     5.4352   62 ZN   0-1 0

  57 N    1     1.3387     2.5298   33 C    0 0 0
  57 N    1     1.3493     2.5497   29 C    0 0 0
  57 N    1     2.0667     3.9055    5 BR   0 0 0
  57 N    1     2.0715     3.9145   13 H    0 0 0
  57 N    1     2.4105     4.5552   38 C    0 0 0
  57 N    1     2.4226     4.5781   17 C    0 0 0

  61 ZN   4     1.9919     3.7642   41 N   -1-1 0   42 N    0-1 1   43 N    0-1 0
                                    44 N    0 0 1
  61 ZN   4     2.7756     5.2452    5 BR   0-1 1    6 BR  -1-1 0    7 BR   0 0 1
                                     8 BR   0-1 0
  61 ZN   4     2.9319     5.5406   45 N   -1-1 0   46 N    0-1 1   47 N    0-1 0
                                    48 N    0 0 1
  61 ZN   4     3.0692     5.7999   21 C    0-1 1   22 C   -1-1 0   23 C    0 0 1
                                    24 C    0-1 0
  61 ZN   4     3.2996     6.2354   33 C    0-1 1   34 C   -1-1 0   35 C    0 0 1
                                    36 C    0-1 0
  61 ZN   4     3.5259     6.6629   17 C    0-1 1   18 C   -1-1 0   19 C    0 0 1
                                    20 C    0-1 0

  62 ZN   4     1.9667     3.7164   49 N    1 1 0   50 N    1 1 0   51 N    0 0 0
                                    52 N    0 0 0
  62 ZN   4     2.8762     5.4352   53 N    0 1 0   54 N    1 0 0   55 N    0 0-1
                                    56 N    1 1 1
  62 ZN   4     3.0639     5.7900   21 C    1 1 1   22 C    0 0-1   23 C    0 1 0
                                    24 C    1 0 0
  62 ZN   4     3.0753     5.8115    1 H    1 1 0    2 H    1 1 0    3 H    0 0 0
                                     4 H    0 0 0
  62 ZN   4     3.6307     6.8610   25 C    1 1 1   26 C    0 0-1   27 C    0 1 0
                                    28 C    1 0 0
  62 ZN   4     3.6327     6.8649   17 C    1 1 1   18 C    0 0-1   19 C    0 1 0
                                    20 C    1 0 0


 SYMMETRY ALLOWED ELASTIC DISTORTION 1
  0.5773503  0.0000000  0.0000000
  0.0000000  0.5773503  0.0000000
  0.0000000  0.0000000  0.5773503

 SYMMETRY ALLOWED ELASTIC DISTORTION 2
  0.4082483  0.0000000  0.0000000
  0.0000000  0.4082483  0.0000000
  0.0000000  0.0000000 -0.8164966

 SYMMETRY ALLOWED INTERNAL DEGREE(S) OF FREEDOM:  45
 TTTTTTTTTTTTTTTTTTTTTTTTTTTTTT SYMM        TELAPSE        2.04 TCPU        0.74
 TTTTTTTTTTTTTTTTTTTTTTTTTTTTTT INT_SCREEN  TELAPSE        2.06 TCPU        0.76

 *******************************************************************************
 *                             OPTIMIZATION STARTS                             *
 *******************************************************************************
 RECLASIFICATION OF INDICES FOR INTEGRAL CALC ACCORDING TO DIFFERENT CRITERIA:
           FIXDELTE                  FIXDELTX              FIXDELTN
          0.10000000               0.80000000                 47
 DEFAULT MAX NUM OF POINTS  100
 *******************************************************************************

 *******************************************************************************
 COORDINATE AND CELL OPTIMIZATION - POINT    1
 INFORMATION **** EXCBUF **** EXCH. BIPO BUFFER: WORDS USED =           0

 DFT PARAMETERS

     ATOM       ELECTRONS   NET CHARGE   R(ANGSTROM)
   1   1  H       1.0000      0.0000     1.11000000
   5  35  BR     35.0000      0.0000     1.14000000
  17   6  C       6.0000      0.0000     0.77000000
  41   7  N       7.0000      0.0000     0.74000000
  61  30  ZN     30.0000      0.0000     1.37000000

 SIZE OF GRID=     439921
 TTTTTTTTTTTTTTTTTTTTTTTTTTTTTT MAKE_GRID2  TELAPSE        8.69 TCPU        7.18
 BECKE WEIGHT FUNCTION
 RADSAFE =     2.00
 TOLERANCES - DENSITY:10**- 6; POTENTIAL:10**- 9; GRID WGT:10**-14

 RADIAL INTEGRATION  - INTERVALS (POINTS,UPPER LIMIT):            1( 75,  4.0*R)

 ANGULAR INTEGRATION - INTERVALS (ACCURACY LEVEL [N. POINTS] UPPER LIMIT):
  1(  4[  86]   0.2)  2(  8[ 194]   0.5)  3( 12[ 350]   0.9)  4( 16[ 974]   3.5)
  5( 12[ 350]9999.0)
 TTTTTTTTTTTTTTTTTTTTTTTTTTTTTT INT_CALC    TELAPSE        8.85 TCPU        7.35

 *******************************************************************************
 C:\Users\wilso\AppData\Local\Temp\tmp_p\newconn.mol                             
 CRYSTAL - SCF - TYPE OF CALCULATION :  RESTRICTED CLOSED SHELL
 *******************************************************************************

 CAPPA:IS1  3;IS2  3;IS3  3; K PTS MONK NET   6; SYMMOPS:K SPACE   8;G SPACE   4

 TTTTTTTTTTTTTTTTTTTTTTTTTTTTTT SDIK        TELAPSE        9.16 TCPU        7.65

 AAAAAAAAAAAAAAAAAAAAAAAAAAAAAAAAAAAAAAAAAAAAAAAAAAAAAAAAAAAAAAAAAAAAAAAAAAAAAAA
         ATOMIC WAVEFUNCTION(S)


 NUCLEAR CHARGE  1.0  SYMMETRY SPECIES            S
 N. ELECTRONS    1.0  NUMBER OF PRIMITIVE GTOS    4
                      NUMBER OF CONTRACTED GTOS   2
                      NUMBER OF CLOSED SHELLS     0
                      OPEN SHELL OCCUPATION       1

  ZNUC SCFIT  TOTAL HF ENERGY   KINETIC ENERGY   VIRIAL THEOREM ACCURACY
   1.0   1   -4.946643675E-01  4.917913167E-01 -2.005842012E+00  9.4E-17

 NUCLEAR CHARGE 35.0  SYMMETRY SPECIES            S    P    D
 N. ELECTRONS   35.0  NUMBER OF PRIMITIVE GTOS   14   10    7
                      NUMBER OF CONTRACTED GTOS   5    4    4
                      NUMBER OF CLOSED SHELLS     4    2    1
                      OPEN SHELL OCCUPATION       0    5    0

  ZNUC SCFIT  TOTAL HF ENERGY   KINETIC ENERGY   VIRIAL THEOREM ACCURACY
  35.0  13   -2.572060514E+03  2.572021521E+03 -2.000015161E+00  3.6E-06

 NUCLEAR CHARGE  6.0  SYMMETRY SPECIES            S    P
 N. ELECTRONS    6.0  NUMBER OF PRIMITIVE GTOS    7    4
                      NUMBER OF CONTRACTED GTOS   3    2
                      NUMBER OF CLOSED SHELLS     2    0
                      OPEN SHELL OCCUPATION       0    2

  ZNUC SCFIT  TOTAL HF ENERGY   KINETIC ENERGY   VIRIAL THEOREM ACCURACY
   6.0   6   -3.750912652E+01  3.905246519E+01 -1.960480378E+00  3.7E-06

 NUCLEAR CHARGE  7.0  SYMMETRY SPECIES            S    P
 N. ELECTRONS    7.0  NUMBER OF PRIMITIVE GTOS    7    4
                      NUMBER OF CONTRACTED GTOS   3    2
                      NUMBER OF CLOSED SHELLS     2    0
                      OPEN SHELL OCCUPATION       0    3

  ZNUC SCFIT  TOTAL HF ENERGY   KINETIC ENERGY   VIRIAL THEOREM ACCURACY
   7.0   9   -5.432196661E+01  5.425066284E+01 -2.001314339E+00  1.2E-06

 NUCLEAR CHARGE 30.0  SYMMETRY SPECIES            S    P    D
 N. ELECTRONS   30.0  NUMBER OF PRIMITIVE GTOS   14    9    5
                      NUMBER OF CONTRACTED GTOS   5    3    2
                      NUMBER OF CLOSED SHELLS     4    2    1
                      OPEN SHELL OCCUPATION       0    0    0

  ZNUC SCFIT  TOTAL HF ENERGY   KINETIC ENERGY   VIRIAL THEOREM ACCURACY
  30.0  10   -1.777404290E+03  1.777325716E+03 -2.000044209E+00  2.5E-06

 AAAAAAAAAAAAAAAAAAAAAAAAAAAAAAAAAAAAAAAAAAAAAAAAAAAAAAAAAAAAAAAAAAAAAAAAAAAAAAA

 CHARGE NORMALIZATION FACTOR   1.00000000
 TOTAL ATOMIC CHARGES:
   1.0000000   1.0000000   1.0000000   1.0000000  35.0000000  35.0000000
  35.0000000  35.0000000  35.0000000  35.0000000  35.0000000  35.0000000
   1.0000000   1.0000000   1.0000000   1.0000000   6.0000000   6.0000000
   6.0000000   6.0000000   6.0000000   6.0000000   6.0000000   6.0000000
   6.0000000   6.0000000   6.0000000   6.0000000   6.0000000   6.0000000
   6.0000000   6.0000000   6.0000000   6.0000000   6.0000000   6.0000000
   6.0000000   6.0000000   6.0000000   6.0000000   7.0000000   7.0000000
   7.0000000   7.0000000   7.0000000   7.0000000   7.0000000   7.0000000
   7.0000000   7.0000000   7.0000000   7.0000000   7.0000000   7.0000000
   7.0000000   7.0000000   7.0000000   7.0000000   7.0000000   7.0000000
  30.0000000  30.0000000
 TTTTTTTTTTTTTTTTTTTTTTTTTTTTTT MOQGAD      TELAPSE       11.83 TCPU       10.31
 TTTTTTTTTTTTTTTTTTTTTTTTTTTTTT SHELLXN     TELAPSE      131.27 TCPU      129.27
 TTTTTTTTTTTTTTTTTTTTTTTTTTTTTT MONMO3      TELAPSE      139.08 TCPU      137.06
 NUMERICALLY INTEGRATED DENSITY    632.0001247770
 TTTTTTTTTTTTTTTTTTTTTTTTTTTTTT NUMDFT      TELAPSE      142.00 TCPU      139.97
 CYC   0 ETOT(AU) -2.617460987218E+04 DETOT -2.62E+04 tst  0.00E+00 PX  1.00E+00
 TTTTTTTTTTTTTTTTTTTTTTTTTTTTTT DIIS        TELAPSE      142.11 TCPU      140.08
 TTTTTTTTTTTTTTTTTTTTTTTTTTTTTT FDIK        TELAPSE      206.62 TCPU      196.14
 POSSIBLY CONDUCTING STATE - EFERMI(AU) -1.2130307E-01 (RES. CHARGE  5.25E-11;IT. 12)
 TTTTTTTTTTTTTTTTTTTTTTTTTTTTTT PDIG        TELAPSE      207.76 TCPU      197.28
 CHARGE NORMALIZATION FACTOR   1.00000000
 TOTAL ATOMIC CHARGES:
   1.1827378   1.1827378   1.1827378   1.1827378  34.2222462  34.2222462
  34.2222462  34.2222462  34.4244688  34.4244688  34.4244688  34.4244688
   1.2519258   1.2519258   1.2519258   1.2519258   5.9597831   5.9597831
   5.9597831   5.9597831   5.5052984   5.5052984   5.5052984   5.5052984
   6.0497122   6.0497122   6.0497122   6.0497122   5.6938361   5.6938361
   5.6938361   5.6938361   6.6887684   6.6887684   6.6887684   6.6887684
   6.7917013   6.7917013   6.7917013   6.7917013   7.3571535   7.3571535
   7.3571535   7.3571535   7.1768767   7.1768767   7.1768767   7.1768767
   7.3687138   7.3687138   7.3687138   7.3687138   7.1713139   7.1713139
   7.1713139   7.1713139   7.5364908   7.5364908   7.5364908   7.5364908
  26.8302485  27.6456449
 TTTTTTTTTTTTTTTTTTTTTTTTTTTTTT MOQGAD      TELAPSE      207.83 TCPU      197.34
 TTTTTTTTTTTTTTTTTTTTTTTTTTTTTT SHELLXN     TELAPSE      349.40 TCPU      336.18
 TTTTTTTTTTTTTTTTTTTTTTTTTTTTTT MONMO3      TELAPSE      353.50 TCPU      340.27
 NUMERICALLY INTEGRATED DENSITY    632.0001015093
 TTTTTTTTTTTTTTTTTTTTTTTTTTTTTT NUMDFT      TELAPSE      362.36 TCPU      349.09
 CYC   1 ETOT(AU) -2.614245054707E+04 DETOT  3.22E+01 tst  0.00E+00 PX  1.00E+00
 TTTTTTTTTTTTTTTTTTTTTTTTTTTTTT DIIS        TELAPSE      362.59 TCPU      349.32
 DIIS TEST: 0.34473E+02 AT SCF   CYCLE   1 - MIX   30 %
 TTTTTTTTTTTTTTTTTTTTTTTTTTTTTT FDIK        TELAPSE      380.02 TCPU      365.18
 POSSIBLY CONDUCTING STATE - EFERMI(AU) -1.0868297E-01 (RES. CHARGE  2.88E-10;IT. 12)
 TTTTTTTTTTTTTTTTTTTTTTTTTTTTTT PDIG        TELAPSE      381.15 TCPU      366.30
 CHARGE NORMALIZATION FACTOR   1.00000000
 TOTAL ATOMIC CHARGES:
   1.2488184   1.2488184   1.2488184   1.2488184  35.2465431  35.2465431
  35.2465431  35.2465431  34.5252827  34.5252827  34.5252827  34.5252827
   1.1549980   1.1549980   1.1549980   1.1549980   6.2799119   6.2799119
   6.2799119   6.2799119   6.5621392   6.5621392   6.5621392   6.5621392
   5.9740195   5.9740195   5.9740195   5.9740195   5.6441191   5.6441191
   5.6441191   5.6441191   6.1733013   6.1733013   6.1733013   6.1733013
   5.8252811   5.8252811   5.8252811   5.8252811   7.9532773   7.9532773
   7.9532773   7.9532773   7.0931004   7.0931004   7.0931004   7.0931004
   7.1191141   7.1191141   7.1191141   7.1191141   6.6844250   6.6844250
   6.6844250   6.6844250   4.3862673   4.3862673   4.3862673   4.3862673
  34.4937707  30.0238359
 TTTTTTTTTTTTTTTTTTTTTTTTTTTTTT MOQGAD      TELAPSE      381.22 TCPU      366.36
 TTTTTTTTTTTTTTTTTTTTTTTTTTTTTT SHELLXN     TELAPSE      524.79 TCPU      505.33
 TTTTTTTTTTTTTTTTTTTTTTTTTTTTTT MONMO3      TELAPSE      529.16 TCPU      509.68
 NUMERICALLY INTEGRATED DENSITY    632.0000971184
 TTTTTTTTTTTTTTTTTTTTTTTTTTTTTT NUMDFT      TELAPSE      537.96 TCPU      518.46
 CYC   2 ETOT(AU) -2.611866438186E+04 DETOT  2.38E+01 tst  3.16E+00 PX  5.50E+00
 TTTTTTTTTTTTTTTTTTTTTTTTTTTTTT DIIS        TELAPSE      538.20 TCPU      518.70
 DIIS TEST: 0.17698E+03 AT SCF   CYCLE   2 - DIIS ACTIVE - HISTORY:     2 CYCLES
 TTTTTTTTTTTTTTTTTTTTTTTTTTTTTT FDIK        TELAPSE      558.74 TCPU      536.99
 INSULATING STATE
 TOP OF VALENCE BANDS -    BAND    316; K    4; EIG -1.4363728E-01 AU
 TOP OF VALENCE BANDS -    BAND    316; K    1; EIG -1.4373118E-01 AU
 BOTTOM OF VIRTUAL BANDS - BAND    317; K    6; EIG -1.1010084E-01 AU
 INDIRECT ENERGY BAND GAP:   0.9126 eV
 BOTTOM OF VIRTUAL BANDS - BAND    317; K    1; EIG -1.0742888E-01 AU
 TTTTTTTTTTTTTTTTTTTTTTTTTTTTTT PDIG        TELAPSE      559.89 TCPU      538.14
 CHARGE NORMALIZATION FACTOR   1.00000000
 TOTAL ATOMIC CHARGES:
   1.2038029   1.2038029   1.2038029   1.2038029  34.5510873  34.5510873
  34.5510873  34.5510873  34.9925618  34.9925618  34.9925618  34.9925618
   1.2136961   1.2136961   1.2136961   1.2136961   5.8086908   5.8086908
   5.8086908   5.8086908   6.0496348   6.0496348   6.0496348   6.0496348
   5.9747242   5.9747242   5.9747242   5.9747242   6.5998430   6.5998430
   6.5998430   6.5998430   5.9569184   5.9569184   5.9569184   5.9569184
   5.8993110   5.8993110   5.8993110   5.8993110   5.9296669   5.9296669
   5.9296669   5.9296669   6.9452656   6.9452656   6.9452656   6.9452656
   6.8026211   6.8026211   6.8026211   6.8026211   7.1702373   7.1702373
   7.1702373   7.1702373   7.8358533   7.8358533   7.8358533   7.8358533
  30.2093919  30.0549505
 TTTTTTTTTTTTTTTTTTTTTTTTTTTTTT MOQGAD      TELAPSE      559.96 TCPU      538.20
 TTTTTTTTTTTTTTTTTTTTTTTTTTTTTT SHELLXN     TELAPSE      701.47 TCPU      677.12
 TTTTTTTTTTTTTTTTTTTTTTTTTTTTTT MONMO3      TELAPSE      705.67 TCPU      681.30
 NUMERICALLY INTEGRATED DENSITY    632.0001438624
 TTTTTTTTTTTTTTTTTTTTTTTTTTTTTT NUMDFT      TELAPSE      714.50 TCPU      690.10
 CYC   3 ETOT(AU) -2.614097273494E+04 DETOT -2.23E+01 tst  1.09E-01 PX  4.51E+00
 TTTTTTTTTTTTTTTTTTTTTTTTTTTTTT DIIS        TELAPSE      714.74 TCPU      690.33
 DIIS TEST: 0.35659E+02 AT SCF   CYCLE   3 - DIIS ACTIVE - HISTORY:     3 CYCLES
 TTTTTTTTTTTTTTTTTTTTTTTTTTTTTT FDIK        TELAPSE      731.43 TCPU      704.36
 INSULATING STATE
 TOP OF VALENCE BANDS -    BAND    316; K    4; EIG -1.2795721E-01 AU
 TOP OF VALENCE BANDS -    BAND    316; K    1; EIG -1.3352521E-01 AU
 BOTTOM OF VIRTUAL BANDS - BAND    317; K    1; EIG -1.1338222E-01 AU
 INDIRECT ENERGY BAND GAP:   0.3966 eV
 TTTTTTTTTTTTTTTTTTTTTTTTTTTTTT PDIG        TELAPSE      732.57 TCPU      705.50
 CHARGE NORMALIZATION FACTOR   1.00000000
 TOTAL ATOMIC CHARGES:
   1.1045532   1.1045532   1.1045532   1.1045532  34.7440565  34.7440565
  34.7440565  34.7440565  34.8954403  34.8954403  34.8954403  34.8954403
   1.2609689   1.2609689   1.2609689   1.2609689   6.3107789   6.3107789
   6.3107789   6.3107789   5.6503690   5.6503690   5.6503690   5.6503690
   6.1306349   6.1306349   6.1306349   6.1306349   5.3649998   5.3649998
   5.3649998   5.3649998   6.3287417   6.3287417   6.3287417   6.3287417
   6.2106043   6.2106043   6.2106043   6.2106043   7.7073683   7.7073683
   7.7073683   7.7073683   7.2366125   7.2366125   7.2366125   7.2366125
   7.0849301   7.0849301   7.0849301   7.0849301   6.8550027   6.8550027
   6.8550027   6.8550027   6.8753947   6.8753947   6.8753947   6.8753947
  28.4030458  28.5551309
 TTTTTTTTTTTTTTTTTTTTTTTTTTTTTT MOQGAD      TELAPSE      732.63 TCPU      705.56
 TTTTTTTTTTTTTTTTTTTTTTTTTTTTTT SHELLXN     TELAPSE      872.25 TCPU      844.58
 TTTTTTTTTTTTTTTTTTTTTTTTTTTTTT MONMO3      TELAPSE      876.92 TCPU      849.24
 NUMERICALLY INTEGRATED DENSITY    632.0000841072
 TTTTTTTTTTTTTTTTTTTTTTTTTTTTTT NUMDFT      TELAPSE      885.71 TCPU      857.99
 CYC   4 ETOT(AU) -2.614567650205E+04 DETOT -4.70E+00 tst  4.33E-02 PX  1.09E+00
 TTTTTTTTTTTTTTTTTTTTTTTTTTTTTT DIIS        TELAPSE      886.02 TCPU      858.30
 DIIS TEST: 0.88187E+01 AT SCF   CYCLE   4 - DIIS ACTIVE - HISTORY:     4 CYCLES
 TTTTTTTTTTTTTTTTTTTTTTTTTTTTTT FDIK        TELAPSE      906.10 TCPU      876.15
 POSSIBLY CONDUCTING STATE - EFERMI(AU) -1.1075523E-01 (RES. CHARGE  1.14E-12;IT. 12)
 TTTTTTTTTTTTTTTTTTTTTTTTTTTTTT PDIG        TELAPSE      907.25 TCPU      877.30
 CHARGE NORMALIZATION FACTOR   1.00000000
 TOTAL ATOMIC CHARGES:
   1.1657558   1.1657558   1.1657558   1.1657558  34.5895851  34.5895851
  34.5895851  34.5895851  34.5314449  34.5314449  34.5314449  34.5314449
   1.1998135   1.1998135   1.1998135   1.1998135   5.9027828   5.9027828
   5.9027828   5.9027828   5.7902884   5.7902884   5.7902884   5.7902884
   5.8829263   5.8829263   5.8829263   5.8829263   6.0674217   6.0674217
   6.0674217   6.0674217   6.3345459   6.3345459   6.3345459   6.3345459
   6.3363731   6.3363731   6.3363731   6.3363731   7.2387603   7.2387603
   7.2387603   7.2387603   6.8652230   6.8652230   6.8652230   6.8652230
   7.5021303   7.5021303   7.5021303   7.5021303   7.3030905   7.3030905
   7.3030905   7.3030905   6.8345889   6.8345889   6.8345889   6.8345889
  28.9858706  28.8352079
 TTTTTTTTTTTTTTTTTTTTTTTTTTTTTT MOQGAD      TELAPSE      907.32 TCPU      877.36
 TTTTTTTTTTTTTTTTTTTTTTTTTTTTTT SHELLXN     TELAPSE     1046.62 TCPU     1016.23
 TTTTTTTTTTTTTTTTTTTTTTTTTTTTTT MONMO3      TELAPSE     1052.58 TCPU     1022.17
 NUMERICALLY INTEGRATED DENSITY    632.0000919034
 TTTTTTTTTTTTTTTTTTTTTTTTTTTTTT NUMDFT      TELAPSE     1061.36 TCPU     1030.92
 CYC   5 ETOT(AU) -2.614638499749E+04 DETOT -7.08E-01 tst  6.38E-03 PX  2.36E-01
 TTTTTTTTTTTTTTTTTTTTTTTTTTTTTT DIIS        TELAPSE     1061.60 TCPU     1031.16
 DIIS TEST: 0.35493E+01 AT SCF   CYCLE   5 - DIIS ACTIVE - HISTORY:     5 CYCLES
 TTTTTTTTTTTTTTTTTTTTTTTTTTTTTT FDIK        TELAPSE     1077.43 TCPU     1046.85
 INSULATING STATE
 TOP OF VALENCE BANDS -    BAND    316; K    3; EIG -1.2205239E-01 AU
 TOP OF VALENCE BANDS -    BAND    316; K    1; EIG -1.3300241E-01 AU
 BOTTOM OF VIRTUAL BANDS - BAND    317; K    1; EIG -1.0895776E-01 AU
 INDIRECT ENERGY BAND GAP:   0.3563 eV
 TTTTTTTTTTTTTTTTTTTTTTTTTTTTTT PDIG        TELAPSE     1078.56 TCPU     1047.98
 CHARGE NORMALIZATION FACTOR   1.00000000
 TOTAL ATOMIC CHARGES:
   1.1372149   1.1372149   1.1372149   1.1372149  34.7078050  34.7078050
  34.7078050  34.7078050  34.8308157  34.8308157  34.8308157  34.8308157
   1.1933732   1.1933732   1.1933732   1.1933732   6.0192101   6.0192101
   6.0192101   6.0192101   5.8671696   5.8671696   5.8671696   5.8671696
   6.0192430   6.0192430   6.0192430   6.0192430   5.7792121   5.7792121
   5.7792121   5.7792121   6.3081589   6.3081589   6.3081589   6.3081589
   6.2921747   6.2921747   6.2921747   6.2921747   7.2207650   7.2207650
   7.2207650   7.2207650   7.2554066   7.2554066   7.2554066   7.2554066
   6.8694905   6.8694905   6.8694905   6.8694905   6.8958500   6.8958500
   6.8958500   6.8958500   7.1079337   7.1079337   7.1079337   7.1079337
  29.0558833  28.9288249
 TTTTTTTTTTTTTTTTTTTTTTTTTTTTTT MOQGAD      TELAPSE     1078.62 TCPU     1048.04
 TTTTTTTTTTTTTTTTTTTTTTTTTTTTTT SHELLXN     TELAPSE     1220.23 TCPU     1187.00
 TTTTTTTTTTTTTTTTTTTTTTTTTTTTTT MONMO3      TELAPSE     1224.08 TCPU     1190.83
 NUMERICALLY INTEGRATED DENSITY    632.0001004385
 TTTTTTTTTTTTTTTTTTTTTTTTTTTTTT NUMDFT      TELAPSE     1232.88 TCPU     1199.58
 CYC   6 ETOT(AU) -2.614682560636E+04 DETOT -4.41E-01 tst  1.11E-02 PX  1.99E-01
 TTTTTTTTTTTTTTTTTTTTTTTTTTTTTT DIIS        TELAPSE     1233.13 TCPU     1199.82
 DIIS TEST: 0.13450E+01 AT SCF   CYCLE   6 - DIIS ACTIVE - HISTORY:     6 CYCLES
 TTTTTTTTTTTTTTTTTTTTTTTTTTTTTT FDIK        TELAPSE     1248.66 TCPU     1215.22
 INSULATING STATE
 TOP OF VALENCE BANDS -    BAND    316; K    4; EIG -1.1705199E-01 AU
 TOP OF VALENCE BANDS -    BAND    316; K    1; EIG -1.2791482E-01 AU
 BOTTOM OF VIRTUAL BANDS - BAND    317; K    1; EIG -1.0908769E-01 AU
 INDIRECT ENERGY BAND GAP:   0.2167 eV
 TTTTTTTTTTTTTTTTTTTTTTTTTTTTTT PDIG        TELAPSE     1249.80 TCPU     1216.36
 CHARGE NORMALIZATION FACTOR   1.00000000
 TOTAL ATOMIC CHARGES:
   1.1488748   1.1488748   1.1488748   1.1488748  34.6111002  34.6111002
  34.6111002  34.6111002  34.8431389  34.8431389  34.8431389  34.8431389
   1.2083419   1.2083419   1.2083419   1.2083419   6.2168739   6.2168739
   6.2168739   6.2168739   5.8545898   5.8545898   5.8545898   5.8545898
   6.1731970   6.1731970   6.1731970   6.1731970   5.6390557   5.6390557
[...]
  61 ZN   4     2.9232     5.5241    5 BR   0-1 1    6 BR  -1-1 0    7 BR   0 0 1
                                     8 BR   0-1 0
  61 ZN   4     3.0496     5.7629   45 N   -1-1 0   46 N    0-1 1   47 N    0-1 0
                                    48 N    0 0 1
  61 ZN   4     3.4355     6.4921   21 C    0-1 1   22 C   -1-1 0   23 C    0 0 1
                                    24 C    0-1 0
  61 ZN   4     3.7700     7.1244   33 C    0-1 1   34 C   -1-1 0   35 C    0 0 1
                                    36 C    0-1 0
  61 ZN   4     3.9620     7.4871   17 C    0-1 1   18 C   -1-1 0   19 C    0 0 1
                                    20 C    0-1 0

  62 ZN   4     2.0782     3.9273   49 N    1 1 0   50 N    1 1 0   51 N    0 0 0
                                    52 N    0 0 0
  62 ZN   4     2.7216     5.1431   53 N    0 1 0   54 N    1 0 0   55 N    0 0-1
                                    56 N    1 1 1
  62 ZN   4     3.3416     6.3146   21 C    1 1 1   22 C    0 0-1   23 C    0 1 0
                                    24 C    1 0 0
  62 ZN   4     3.9050     7.3794    1 H    1 1 0    2 H    1 1 0    3 H    0 0 0
                                     4 H    0 0 0
  62 ZN   4     3.9676     7.4976   45 N    0 1 0   46 N    1 0 0   47 N    0 0-1
                                    48 N    1 1 1
  62 ZN   4     4.1214     7.7884   17 C    1 1 1   18 C    0 0-1   19 C    0 1 0
                                    20 C    1 0 0


 FINAL OPTIMIZED GEOMETRY - DIMENSIONALITY OF THE SYSTEM      3
 (NON PERIODIC DIRECTION: LATTICE PARAMETER FORMALLY SET TO 500)
 *******************************************************************************
 LATTICE PARAMETERS (ANGSTROMS AND DEGREES) - BOHR = 0.5291772083 ANGSTROM
 PRIMITIVE CELL - CENTRING CODE 6/0 VOLUME=   837.289786 - DENSITY  2.648 g/cm^3
         A              B              C           ALPHA      BETA       GAMMA 
    10.48119162    10.48119162    10.48119162   117.981667 117.981667  93.532916
 *******************************************************************************
 ATOMS IN THE ASYMMETRIC UNIT   17 - ATOMS IN THE UNIT CELL:   62
     ATOM                 X/A                 Y/B                 Z/C    
 *******************************************************************************
      1 T   1 H    -6.175764912686E-02 -2.683781614188E-01  3.805827356236E-01
      2 F   1 H     3.510391029576E-01 -4.423403847505E-01 -3.805827356236E-01
      3 F   1 H     2.683781614188E-01 -3.510391029576E-01  2.066205122919E-01
      4 F   1 H     4.423403847505E-01  6.175764912686E-02 -2.066205122919E-01
      5 T  35 BR   -2.700480239346E-01  1.055902088516E-01 -3.264786401943E-01
      6 F  35 BR    4.320688490460E-01  5.643061625970E-02  3.264786401943E-01
      7 F  35 BR   -1.055902088516E-01 -4.320688490460E-01 -3.756382327863E-01
      8 F  35 BR   -5.643061625970E-02  2.700480239346E-01  3.756382327863E-01
      9 T  35 BR    2.392200590112E-01 -2.178342614265E-01 -2.821160672378E-01
     10 F  35 BR    6.428180581126E-02 -4.786638737510E-01  2.821160672378E-01
     11 F  35 BR    2.178342614265E-01 -6.428180581126E-02  4.570543204377E-01
     12 F  35 BR    4.786638737510E-01 -2.392200590112E-01 -4.570543204377E-01
     13 T   1 H     1.685718180109E-01 -1.245725234623E-02 -5.473361791663E-02
     14 F   1 H     4.227636557039E-02  2.233054359275E-01  5.473361791663E-02
     15 F   1 H     1.245725234623E-02 -4.227636557039E-02  1.810290703571E-01
     16 F   1 H    -2.233054359275E-01 -1.685718180109E-01 -1.810290703571E-01
     17 T   6 C    -1.627979706494E-01 -1.151213011583E-01  4.922932219714E-01
     18 F   6 C     3.925854768704E-01  3.449088073792E-01 -4.922932219714E-01
     19 F   6 C     1.151213011583E-01 -3.925854768704E-01 -4.767666949116E-02
     20 F   6 C    -3.449088073792E-01  1.627979706494E-01  4.767666949116E-02
     21 T   6 C    -2.793877603993E-01 -1.298735500911E-01  3.306939897032E-01
     22 F   6 C    -4.605675397943E-01  3.899182498975E-01 -3.306939897032E-01
     23 F   6 C     1.298735500911E-01  4.605675397943E-01 -1.495142103081E-01
     24 F   6 C    -3.899182498975E-01  2.793877603993E-01  1.495142103081E-01
     25 T   6 C    -5.180675330794E-02 -1.866448616028E-01 -4.991837455807E-01
     26 F   6 C     3.125388839779E-01  4.473769922727E-01  4.991837455807E-01
     27 F   6 C     1.866448616028E-01 -3.125388839779E-01  1.348381082948E-01
     28 F   6 C    -4.473769922727E-01  5.180675330794E-02 -1.348381082948E-01
     29 T   6 C     7.711951706905E-02 -4.463249808657E-02 -1.847095535881E-01
     30 F   6 C     1.400770555015E-01  2.618290706572E-01  1.847095535881E-01
     31 F   6 C     4.463249808657E-02 -1.400770555015E-01  1.217520151556E-01
     32 F   6 C    -2.618290706572E-01 -7.711951706905E-02 -1.217520151556E-01
     33 T   6 C    -1.424027617434E-01 -1.180404746516E-02 -3.464622992969E-01
     34 F   6 C     3.346582518318E-01  2.040595375535E-01  3.464622992969E-01
     35 F   6 C     1.180404746516E-02 -3.346582518318E-01 -1.305987142783E-01
     36 F   6 C    -2.040595375535E-01  1.424027617434E-01  1.305987142783E-01
     37 T   6 C     1.876598144536E-01  4.053061622476E-01  3.350359855817E-01
     38 F   6 C     7.027017666587E-02 -1.473761711282E-01 -3.350359855817E-01
     39 F   6 C    -4.053061622476E-01 -7.027017666587E-02 -2.176463477941E-01
     40 F   6 C     1.473761711282E-01 -1.876598144536E-01  2.176463477941E-01
     41 T   7 N    -2.923584642371E-01 -4.327865556047E-03  3.229322652324E-01
     42 F   7 N    -3.272601307885E-01  3.847092705305E-01 -3.229322652324E-01
     43 F   7 N     4.327865556047E-03  3.272601307885E-01 -2.880305986810E-01
     44 F   7 N    -3.847092705305E-01  2.923584642371E-01  2.880305986810E-01
     45 T   7 N    -4.004333758491E-01 -6.179130943292E-02  1.503648023151E-01
     46 F   7 N    -2.121561117480E-01  4.492018218358E-01 -1.503648023151E-01
     47 F   7 N     6.179130943292E-02  2.121561117480E-01 -3.386420664162E-01
     48 F   7 N    -4.492018218358E-01  4.004333758491E-01  3.386420664162E-01
     49 T   7 N    -3.802767166134E-01 -2.619346575518E-01  1.673663394333E-01
     50 F   7 N    -4.293009969851E-01  4.523569439533E-01 -1.673663394333E-01
     51 F   7 N     2.619346575518E-01  4.293009969851E-01 -1.183420590616E-01
     52 F   7 N    -4.523569439533E-01  3.802767166134E-01  1.183420590616E-01
     53 T   7 N    -4.533308022536E-01 -2.145492702168E-01  5.738811979784E-02
     54 F   7 N    -2.719373900146E-01  4.892810779486E-01 -5.738811979784E-02
     55 F   7 N     2.145492702168E-01  2.719373900146E-01 -2.387815320368E-01
     56 F   7 N    -4.892810779486E-01  4.533308022536E-01  2.387815320368E-01
     57 T   7 N    -3.046729950643E-02  1.950112886335E-02 -1.938039227489E-01
     58 F   7 N     2.133050516122E-01  1.633366232424E-01  1.938039227489E-01
     59 F   7 N    -1.950112886335E-02 -2.133050516122E-01 -4.996842836978E-02
     60 F   7 N    -1.633366232424E-01  3.046729950643E-02  4.996842836978E-02
     61 T  30 ZN   -2.500000000000E-01  2.500000000000E-01  5.000000000000E-01
     62 T  30 ZN   -5.000000000000E-01 -5.000000000000E-01  2.399531883856E-18

 TRANSFORMATION MATRIX PRIMITIVE-CRYSTALLOGRAPHIC CELL
  0.0000  1.0000  1.0000  1.0000  0.0000  1.0000  1.0000  1.0000  0.0000

 *******************************************************************************
 CRYSTALLOGRAPHIC CELL (VOLUME=       1674.57957243)
         A              B              C           ALPHA      BETA       GAMMA 
    10.79929996    10.79929996    14.35868210    90.000000  90.000000  90.000000

 COORDINATES IN THE CRYSTALLOGRAPHIC CELL
     ATOM                 X/A                 Y/B                 Z/C    
 *******************************************************************************
      1 T   1 H     8.698111166586E-02  2.936016239578E-01 -3.553592730846E-01
      2 F   1 H    -8.698111166586E-02 -2.936016239578E-01 -3.553592730846E-01
      3 F   1 H     2.936016239578E-01 -8.698111166586E-02  3.553592730846E-01
      4 F   1 H    -2.936016239578E-01  8.698111166586E-02  3.553592730846E-01
      5 T  35 BR    2.457979629597E-02 -3.510584364903E-01  8.101041255567E-02
      6 F  35 BR   -2.457979629597E-02  3.510584364903E-01  8.101041255567E-02
      7 F  35 BR   -3.510584364903E-01 -2.457979629597E-02 -8.101041255567E-02
      8 F  35 BR    3.510584364903E-01  2.457979629597E-02 -8.101041255567E-02
      9 T  35 BR   -3.695851938378E-01  8.746912659995E-02  1.517509324112E-01
     10 F  35 BR    3.695851938378E-01 -8.746912659995E-02  1.517509324112E-01
     11 F  35 BR    8.746912659995E-02  3.695851938378E-01 -1.517509324112E-01
     12 F  35 BR   -8.746912659995E-02 -3.695851938378E-01 -1.517509324112E-01
     13 T   1 H    -1.178813441369E-01  6.314772622025E-02  1.054240917906E-01
     14 F   1 H     1.178813441369E-01 -6.314772622025E-02  1.054240917906E-01
     15 F   1 H     6.314772622025E-02  1.178813441369E-01 -1.054240917906E-01
     16 F   1 H    -6.314772622025E-02 -1.178813441369E-01 -1.054240917906E-01
     17 T   6 C    -2.300150542687E-01 -2.776917237599E-01  1.148937531105E-01
     18 F   6 C     2.300150542687E-01  2.776917237599E-01  1.148937531105E-01
     19 F   6 C    -2.776917237599E-01  2.300150542687E-01 -1.148937531105E-01
     20 F   6 C     2.776917237599E-01 -2.300150542687E-01 -1.148937531105E-01
     21 T   6 C    -2.598958999943E-01 -4.094101103025E-01  1.300223499032E-01
     22 F   6 C     2.598958999943E-01  4.094101103025E-01  1.300223499032E-01
     23 F   6 C    -4.094101103025E-01  2.598958999943E-01 -1.300223499032E-01
     24 F   6 C     4.094101103025E-01 -2.598958999943E-01 -1.300223499032E-01
     25 T   6 C    -3.170109269377E-01 -1.821728186429E-01  1.303660653350E-01
     26 F   6 C     3.170109269377E-01  1.821728186429E-01  1.303660653350E-01
     27 F   6 C    -1.821728186429E-01  3.170109269377E-01 -1.303660653350E-01
     28 F   6 C     1.821728186429E-01 -3.170109269377E-01 -1.303660653350E-01
     29 T   6 C    -1.532307843719E-01 -3.147876921625E-02  1.085982862853E-01
     30 F   6 C     1.532307843719E-01  3.147876921625E-02  1.085982862853E-01
     31 F   6 C    -3.147876921625E-02  1.532307843719E-01 -1.085982862853E-01
     32 F   6 C     3.147876921625E-02 -1.532307843719E-01 -1.085982862853E-01
     33 T   6 C    -1.079317925093E-01 -2.385305067876E-01  9.612774504417E-02
     34 F   6 C     1.079317925093E-01  2.385305067876E-01  9.612774504417E-02
     35 F   6 C    -2.385305067876E-01  1.079317925093E-01 -9.612774504417E-02
     36 F   6 C     2.385305067876E-01 -1.079317925093E-01 -9.612774504417E-02
     37 T   6 C     2.763411666879E-01  5.869481889385E-02  1.289649955597E-01
     38 F   6 C    -2.763411666879E-01 -5.869481889385E-02  1.289649955597E-01
     39 F   6 C     5.869481889385E-02 -2.763411666879E-01 -1.289649955597E-01
     40 F   6 C    -5.869481889385E-02  2.763411666879E-01 -1.289649955597E-01
     41 T   7 N    -1.945185680433E-01 -4.825491667243E-01  1.901907024872E-01
     42 F   7 N     1.945185680433E-01  4.825491667243E-01  1.901907024872E-01
     43 F   7 N    -4.825491667243E-01  1.945185680433E-01 -1.901907024872E-01
     44 F   7 N     4.825491667243E-01 -1.945185680433E-01 -1.901907024872E-01
     45 T   7 N    -2.554965656344E-01  4.058613679495E-01  1.937052562014E-01
     46 F   7 N     2.554965656344E-01 -4.058613679495E-01  1.937052562014E-01
     47 F   7 N     4.058613679495E-01  2.554965656344E-01 -1.937052562014E-01
     48 F   7 N    -4.058613679495E-01 -2.554965656344E-01 -1.937052562014E-01
     49 T   7 N     1.428541992475E-01  2.451214018587E-02 -4.047888567992E-01
     50 F   7 N    -1.428541992475E-01 -2.451214018587E-02 -4.047888567992E-01
     51 F   7 N     2.451214018587E-02 -1.428541992475E-01  4.047888567992E-01
     52 F   7 N    -2.451214018587E-02  1.428541992475E-01  4.047888567992E-01
     53 T   7 N    -3.519151740827E-01  4.093032938805E-01  1.373659038659E-01
     54 F   7 N     3.519151740827E-01 -4.093032938805E-01  1.373659038659E-01
     55 F   7 N     4.093032938805E-01  3.519151740827E-01 -1.373659038659E-01
     56 F   7 N    -4.093032938805E-01 -3.519151740827E-01 -1.373659038659E-01
     57 T   7 N    -7.191774718954E-02 -1.218861755593E-01  9.141887605289E-02
     58 F   7 N     7.191774718954E-02  1.218861755593E-01  9.141887605289E-02
     59 F   7 N    -1.218861755593E-01  7.191774718954E-02 -9.141887605289E-02
     60 F   7 N     1.218861755593E-01 -7.191774718954E-02 -9.141887605289E-02
     61 T  30 ZN    4.626932236752E-17  5.000000000000E-01  2.500000000000E-01
     62 T  30 ZN    0.000000000000E+00  2.399531883856E-18 -5.000000000000E-01

 T = ATOM BELONGING TO THE ASYMMETRIC UNIT
 INFORMATION **** fort.34 **** GEOMETRY OUTPUT FILE

 DIRECT LATTICE VECTORS CARTESIAN COMPONENTS (ANGSTROM)
          X                    Y                    Z
  -0.539964998232E+01   0.539964998232E+01   0.717934104782E+01
   0.539964998232E+01  -0.539964998232E+01   0.717934104782E+01
   0.539964998232E+01   0.539964998232E+01  -0.717934104782E+01


 CARTESIAN COORDINATES - PRIMITIVE CELL
 *******************************************************************************
 *      ATOM          X(ANGSTROM)         Y(ANGSTROM)         Z(ANGSTROM)
 *******************************************************************************
    1     1 H     9.393351161369E-01  3.170692007224E+00 -5.102490831959E+00
    2     1 H    -9.393351161369E-01 -3.170692007224E+00 -5.102490831959E+00
    3     1 H     3.170692007224E+00 -9.393351161369E-01  5.102490831959E+00
    4     1 H    -3.170692007224E+00  9.393351161369E-01  5.102490831959E+00
    5    35 BR    2.654445932698E-01 -3.791185360774E+00  1.163202760323E+00
    6    35 BR   -2.654445932698E-01  3.791185360774E+00  1.163202760323E+00
    7    35 BR   -3.791185360774E+00 -2.654445932698E-01 -1.163202760323E+00
    8    35 BR    3.791185360774E+00  2.654445932698E-01 -1.163202760323E+00
    9    35 BR   -3.991261370741E+00  9.446053357974E-01  2.178943396209E+00
   10    35 BR    3.991261370741E+00 -9.446053357974E-01  2.178943396209E+00
   11    35 BR    9.446053357974E-01  3.991261370741E+00 -2.178943396209E+00
   12    35 BR   -9.446053357974E-01 -3.991261370741E+00 -2.178943396209E+00
   13     1 H    -1.273035995568E+00  6.819512375371E-01  1.513751019243E+00
   14     1 H     1.273035995568E+00 -6.819512375371E-01  1.513751019243E+00
   15     1 H     6.819512375371E-01  1.273035995568E+00 -1.513751019243E+00
   16     1 H    -6.819512375371E-01 -1.273035995568E+00 -1.513751019243E+00
   17     6 C    -2.484001567430E+00 -2.998876222579E+00  1.649722875688E+00
   18     6 C     2.484001567430E+00  2.998876222579E+00  1.649722875688E+00
   19     6 C    -2.998876222579E+00  2.484001567430E+00 -1.649722875688E+00
   20     6 C     2.998876222579E+00 -2.484001567430E+00 -1.649722875688E+00
   21     6 C    -2.806693783617E+00 -4.421342589710E+00  1.866949587588E+00
   22     6 C     2.806693783617E+00  4.421342589710E+00  1.866949587588E+00
   23     6 C    -4.421342589710E+00  2.806693783617E+00 -1.866949587588E+00
   24     6 C     4.421342589710E+00 -2.806693783617E+00 -1.866949587588E+00
   25     6 C    -3.423496092067E+00 -1.967338913928E+00  1.871884888204E+00
   26     6 C     3.423496092067E+00  1.967338913928E+00  1.871884888204E+00
   27     6 C    -1.967338913928E+00  3.423496092067E+00 -1.871884888204E+00
   28     6 C     1.967338913928E+00 -3.423496092067E+00 -1.871884888204E+00
   29     6 C    -1.654785204248E+00 -3.399486712837E-01  1.559328268902E+00
   30     6 C     1.654785204248E+00  3.399486712837E-01  1.559328268902E+00
   31     6 C    -3.399486712837E-01  1.654785204248E+00 -1.559328268902E+00
   32     6 C     3.399486712837E-01 -1.654785204248E+00 -1.559328268902E+00
   33     6 C    -1.165587803029E+00 -2.575962493515E+00  1.380267731660E+00
   34     6 C     1.165587803029E+00  2.575962493515E+00  1.380267731660E+00
   35     6 C    -2.575962493515E+00  1.165587803029E+00 -1.380267731660E+00
   36     6 C     2.575962493515E+00 -1.165587803029E+00 -1.380267731660E+00
   37     6 C     2.984291151640E+00  6.338629556045E-01  1.851767372707E+00
   38     6 C    -2.984291151640E+00 -6.338629556045E-01  1.851767372707E+00
   39     6 C     6.338629556045E-01 -2.984291151640E+00 -1.851767372707E+00
   40     6 C    -6.338629556045E-01  2.984291151640E+00 -1.851767372707E+00
   41     7 N    -2.100664364990E+00  5.588106765494E+00  2.730887834560E+00
   42     7 N     2.100664364990E+00 -5.588106765494E+00  2.730887834560E+00
   43     7 N     5.588106765494E+00  2.100664364990E+00 -2.730887834560E+00
   44     7 N    -5.588106765494E+00 -2.100664364990E+00 -2.730887834560E+00
   45     7 N    -2.759184052219E+00  4.383018656543E+00  2.781352194051E+00
   46     7 N     2.759184052219E+00 -4.383018656543E+00  2.781352194051E+00
   47     7 N     4.383018656543E+00  2.759184052219E+00 -2.781352194051E+00
   48     7 N    -4.383018656543E+00 -2.759184052219E+00 -2.781352194051E+00
   49     7 N     1.542725348881E+00  2.647139546424E-01 -5.812234510637E+00
   50     7 N    -1.542725348881E+00 -2.647139546424E-01 -5.812234510637E+00
   51     7 N     2.647139546424E-01 -1.542725348881E+00  5.812234510637E+00
   52     7 N    -2.647139546424E-01  1.542725348881E+00  5.812234510637E+00
   53     7 N    -3.800437527025E+00  4.420189047129E+00  1.972393344390E+00
   54     7 N     3.800437527025E+00 -4.420189047129E+00  1.972393344390E+00
   55     7 N     4.420189047129E+00  3.800437527025E+00 -1.972393344390E+00
   56     7 N    -4.420189047129E+00 -3.800437527025E+00 -1.972393344390E+00
   57     7 N    -7.766613246806E-01 -1.316285371407E+00  1.312654578784E+00
   58     7 N     7.766613246806E-01  1.316285371407E+00  1.312654578784E+00
   59     7 N    -1.316285371407E+00  7.766613246806E-01 -1.312654578784E+00
   60     7 N     1.316285371407E+00 -7.766613246806E-01 -1.312654578784E+00
   61    30 ZN    4.996762914071E-16  5.399649982317E+00 -1.076901157173E+01
   62    30 ZN    0.000000000000E+00  2.591326458846E-17  7.179341047819E+00

 ****    4 SYMMOPS - TRANSLATORS IN FRACTIONAL UNITS
 **** MATRICES AND TRANSLATORS IN THE CRYSTALLOGRAPHIC REFERENCE FRAME
   V INV                    ROTATION MATRICES                   TRANSLATORS
   1   1  1.00  0.00  0.00  0.00  1.00  0.00  0.00  0.00  1.00  0.00  0.00  0.00
   2   2 -0.00  1.00 -1.00  1.00  0.00 -1.00 -0.00  0.00 -1.00  0.00  0.00  0.00
   3   4  0.00 -1.00  0.00  0.00 -1.00  1.00  1.00 -1.00  0.00  0.00  0.00  0.00
   4   3 -1.00  0.00  1.00 -1.00  0.00 -0.00 -1.00  1.00 -0.00  0.00  0.00  0.00
 TTTTTTTTTTTTTTTTTTTTTTTTTTTTTT END         TELAPSE   111206.77 TCPU   109093.15
 EEEEEEEEEE TERMINATION  DATE 22 11 2023 TIME 13:45:18.0
NODE    0 CPU TIME =    109093.154
NODE    1 CPU TIME =    109433.677
NODE    2 CPU TIME =    109542.804
NODE    3 CPU TIME =    109375.470
NODE    4 CPU TIME =    109635.029
NODE    5 CPU TIME =    109407.320
NODE    6 CPU TIME =    109525.455
NODE    7 CPU TIME =    109392.729
NODE    8 CPU TIME =    109434.059
NODE    9 CPU TIME =    109335.250
NODE   10 CPU TIME =    109423.700
NODE   11 CPU TIME =    109308.178
NODE   12 CPU TIME =    109495.461
NODE   13 CPU TIME =    109341.361
NODE   14 CPU TIME =    109269.655
NODE   15 CPU TIME =    109254.065
NODE   16 CPU TIME =    109261.723
NODE   17 CPU TIME =    109135.740
NODE   18 CPU TIME =    109302.200
NODE   19 CPU TIME =    109134.948
NODE   20 CPU TIME =    109310.832
NODE   21 CPU TIME =    109111.822
NODE   22 CPU TIME =    109112.351
NODE   23 CPU TIME =    108973.370
    TOTAL CPU TIME =   2623610.352
trying normal rsh (/usr/bin/rsh)
exec: No such file or directory
trying normal rsh (/usr/bin/rsh)
exec: No such file or directory
trying normal rsh (/usr/bin/rsh)
exec: No such file or directory
trying normal rsh (/usr/bin/rsh)
exec: No such file or directory
