Loading crystal17/1.0.2/intel/19.0
  Loading requirement: intel/19.0 ompi/4.0.1/intel/19.0
 PROCESS            0  OF           24  WORKING
 PROCESS            1  OF           24  WORKING
 PROCESS            2  OF           24  WORKING
 PROCESS            3  OF           24  WORKING
 PROCESS            4  OF           24  WORKING
 PROCESS            5  OF           24  WORKING
 PROCESS            6  OF           24  WORKING
 PROCESS            7  OF           24  WORKING
 PROCESS            8  OF           24  WORKING
 PROCESS            9  OF           24  WORKING
 PROCESS           10  OF           24  WORKING
 PROCESS           12  OF           24  WORKING
 PROCESS           13  OF           24  WORKING
 PROCESS           14  OF           24  WORKING
 PROCESS           15  OF           24  WORKING
 PROCESS           16  OF           24  WORKING
 PROCESS           17  OF           24  WORKING
 PROCESS           18  OF           24  WORKING
 PROCESS           19  OF           24  WORKING
 PROCESS           20  OF           24  WORKING
 PROCESS           21  OF           24  WORKING
 PROCESS           22  OF           24  WORKING
 PROCESS           23  OF           24  WORKING
 PROCESS           11  OF           24  WORKING

         
 *******************************************************************************
 *                                                                             *
 *                               CRYSTAL17                                     *
 *                      public : 1.0.2 - March 1st, 2018                       *
 *                       HTTP://WWW.CRYSTAL.UNITO.IT                           *
 *                                                                             *
 *                              MAIN AUTHORS                                   *
 *                                                                             *
 *  R. DOVESI(1,11), V.R. SAUNDERS(2), C. ROETTI(1,11), R. ORLANDO(1,11),      *
 *  C.M. ZICOVICH-WILSON(1,3), F. PASCALE(4), B. CIVALLERI(1,11),              *
 *  K. DOLL(5), N.M. HARRISON(2,6), I.J. BUSH(7), Ph. D'ARCO(8),               *
 *  M. LLUNELL(9), M. CAUSA'(10), Y. NOEL(8), L. MASCHIO(1,11), A. ERBA(1,11)  *
 *  M. RE'RAT(14), S. CASASSA(1,11)                                            *
 *                                                                             *
 *        CONTRIBUTIONS TO THE CODE HAVE ALSO BEEN GIVEN BY                    *
 *                                                                             *
 *  M. FERRABONE(1,11), M. DE LA PIERRE(1,11), M. FERRERO(1,11),               *
 *  J. BAIMA(1,11), E. ALBANESE(1,11), M.F. PEINTINGER(12), R. BAST(13),       *
 *  B. KIRTMAN(15), V. LACIVITA(1,11), R. DEMICHELIS(1,16)                     *
 *  G. BRANDEBURG(17), S. SALUSTRO(1,11), G. SANSONE(1,11)                     *
 *  M.T. RUGGIERO(18)                                                          *
 *                                                                             *
 * (1) THEORETICAL CHEMISTRY GROUP - UNIVERSITA' DI TORINO - TORINO (ITALY)    *
 * (2) COMPUTATIONAL SCIENCE & ENGINEERING DEPARTMENT - STFC DARESBURY (UK)    *
 * (3) UNIVERSIDAD AUTONOMA DEL ESTADO DE MORELOS - CUERNAVACA (MEXICO)        *
 * (4) UNIVERSITE' DE LORRAINE - NANCY (FRANCE)                                *
 * (5) UNIVERSITAET STUTTGART- STUTTGART (GERMANY)                             *
 * (6) IMPERIAL COLLEGE - LONDON (UK)                                          *
 * (7) OXFORD E-RESEARCH CENTRE - OXFORD (UK)                                  *
 * (8) UPMC - SORBONNE UNIVERSITES - PARIS (FRANCE)                            *
 * (9) UNIVERSIDAD DE BARCELONA - BARCELONA (SPAIN)                            *
 *(10) UNIVERSITA' DI NAPOLI "FEDERICO II" - NAPOLI (ITALY)                    *
 *(11) NIS - NANOSTRUCTURED INTERFACES AND SURFACES - TORINO (ITALY)           *
 *(12) MPI FUER CHEMISCHE ENERGIEKONVERSION - MUELHEIM AN DER RUHR (GERMANY)   *
 *(13) UNIVERSITY OF TROMSO - TROMSO (NORWAY)                                  *
 *(14) UNIVERSITE' DE PAU ET DES PAYS DE L'ADOUR - PAU (FRANCE)                *
 *(15) UNIVERSITY OF CALIFORNIA SANTA BARBARA - SANTA BARBARA (USA)            *
 *(16) CURTIN UNIVERSITY - PERTH (AUSTRALIA)                                   *
 *(17) UNIVERSITY COLLEGE LONDON - LONDON (UK)                                 *
 *(18) CAMBRIDGE UNIVERSITY - CAMBRIDGE (UK)                                   *
 *                                                                             *
 *******************************************************************************
 EEEEEEEEEE STARTING  DATE 21 11 2023 TIME 08:00:22.1
 C:\Users\wilso\AppData\Local\Temp\tmp_p\newconn.mol                             

 CRYSTAL CALCULATION
 (INPUT ACCORDING TO THE INTERNATIONAL TABLES FOR X-RAY CRYSTALLOGRAPHY)
 CRYSTAL FAMILY                       :  TETRAGONAL  
 CRYSTAL CLASS  (GROTH - 1921)        :  TETRAGONAL DISPHENOIDAL              

 SPACE GROUP (NONCENTROSYMMETRIC)     :  I -4            

 LATTICE PARAMETERS  (ANGSTROMS AND DEGREES) - CONVENTIONAL CELL
        A           B           C        ALPHA        BETA       GAMMA
    10.15800    10.15800    13.29400    90.00000    90.00000    90.00000


 NUMBER OF IRREDUCIBLE ATOMS IN THE CONVENTIONAL CELL:  124

 INPUT COORDINATES

 ATOM AT. N.              COORDINATES
   1   1     5.576100000000E-01  7.373700000000E-01  1.366700000000E-01
   2   1     4.423900000000E-01  2.626300000000E-01  1.366700000000E-01
   3   1     7.373700000000E-01  4.423900000000E-01  8.633300000000E-01
   4   1     2.626300000000E-01  5.576100000000E-01  8.633300000000E-01
   5   1     5.761000000000E-02  2.373700000000E-01  6.366700000000E-01
   6   1     9.423900000000E-01  7.626300000000E-01  6.366700000000E-01
   7   1     2.373700000000E-01  9.423900000000E-01  3.633300000000E-01
   8   1     7.626300000000E-01  5.761000000000E-02  3.633300000000E-01
   9  35     9.759200000000E-01  6.751900000000E-01  9.083000000000E-02
  10  35     2.408000000000E-02  3.248100000000E-01  9.083000000000E-02
  11  35     6.751900000000E-01  2.408000000000E-02  9.091700000000E-01
  12  35     3.248100000000E-01  9.759200000000E-01  9.091700000000E-01
  13  35     4.759200000000E-01  1.751900000000E-01  5.908300000000E-01
  14  35     5.240800000000E-01  8.248100000000E-01  5.908300000000E-01
  15  35     1.751900000000E-01  5.240800000000E-01  4.091700000000E-01
  16  35     8.248100000000E-01  4.759200000000E-01  4.091700000000E-01
  17   1     6.058200000000E-01  9.805800000000E-01  1.369900000000E-01
  18   1     3.941800000000E-01  1.942000000000E-02  1.369900000000E-01
  19   1     9.805800000000E-01  3.941800000000E-01  8.630100000000E-01
  20   1     1.942000000000E-02  6.058200000000E-01  8.630100000000E-01
  21   1     1.058200000000E-01  4.805800000000E-01  6.369900000000E-01
  22   1     8.941800000000E-01  5.194200000000E-01  6.369900000000E-01
  23   1     4.805800000000E-01  8.941800000000E-01  3.630100000000E-01
  24   1     5.194200000000E-01  1.058200000000E-01  3.630100000000E-01
  25  35     8.420800000000E-01  5.709000000000E-02  1.240200000000E-01
  26  35     1.579200000000E-01  9.429100000000E-01  1.240200000000E-01
  27  35     5.709000000000E-02  1.579200000000E-01  8.759800000000E-01
  28  35     9.429100000000E-01  8.420800000000E-01  8.759800000000E-01
  29  35     3.420800000000E-01  5.570900000000E-01  6.240200000000E-01
  30  35     6.579200000000E-01  4.429100000000E-01  6.240200000000E-01
  31  35     5.570900000000E-01  6.579200000000E-01  3.759800000000E-01
  32  35     4.429100000000E-01  3.420800000000E-01  3.759800000000E-01
  33   6     2.646500000000E-01  1.859800000000E-01  6.165500000000E-01
  34   6     7.353500000000E-01  8.140200000000E-01  6.165500000000E-01
  35   6     1.859800000000E-01  7.353500000000E-01  3.834500000000E-01
  36   6     8.140200000000E-01  2.646500000000E-01  3.834500000000E-01
  37   6     7.646500000000E-01  6.859800000000E-01  1.165500000000E-01
  38   6     2.353500000000E-01  3.140200000000E-01  1.165500000000E-01
  39   6     6.859800000000E-01  2.353500000000E-01  8.834500000000E-01
  40   6     3.140200000000E-01  7.646500000000E-01  8.834500000000E-01
  41   6     2.514000000000E-01  4.317000000000E-02  6.230000000000E-01
  42   6     7.486000000000E-01  9.568300000000E-01  6.230000000000E-01
  43   6     4.317000000000E-02  7.486000000000E-01  3.770000000000E-01
  44   6     9.568300000000E-01  2.514000000000E-01  3.770000000000E-01
  45   6     7.514000000000E-01  5.431700000000E-01  1.230000000000E-01
  46   6     2.486000000000E-01  4.568300000000E-01  1.230000000000E-01
  47   6     5.431700000000E-01  2.486000000000E-01  8.770000000000E-01
  48   6     4.568300000000E-01  7.514000000000E-01  8.770000000000E-01
  49   6     6.583700000000E-01  7.736700000000E-01  1.273400000000E-01
  50   6     3.416300000000E-01  2.263300000000E-01  1.273400000000E-01
  51   6     7.736700000000E-01  3.416300000000E-01  8.726600000000E-01
  52   6     2.263300000000E-01  6.583700000000E-01  8.726600000000E-01
  53   6     1.583700000000E-01  2.736700000000E-01  6.273400000000E-01
  54   6     8.416300000000E-01  7.263300000000E-01  6.273400000000E-01
  55   6     2.736700000000E-01  8.416300000000E-01  3.726600000000E-01
  56   6     7.263300000000E-01  1.583700000000E-01  3.726600000000E-01
  57   6     8.156900000000E-01  9.525900000000E-01  1.204300000000E-01
  58   6     1.843100000000E-01  4.741000000000E-02  1.204300000000E-01
  59   6     9.525900000000E-01  1.843100000000E-01  8.795700000000E-01
  60   6     4.741000000000E-02  8.156900000000E-01  8.795700000000E-01
  61   6     3.156900000000E-01  4.525900000000E-01  6.204300000000E-01
  62   6     6.843100000000E-01  5.474100000000E-01  6.204300000000E-01
  63   6     4.525900000000E-01  6.843100000000E-01  3.795700000000E-01
  64   6     5.474100000000E-01  3.156900000000E-01  3.795700000000E-01
  65   6     3.914300000000E-01  2.396500000000E-01  6.044300000000E-01
  66   6     6.085700000000E-01  7.603500000000E-01  6.044300000000E-01
  67   6     2.396500000000E-01  6.085700000000E-01  3.955700000000E-01
  68   6     7.603500000000E-01  3.914300000000E-01  3.955700000000E-01
  69   6     8.914300000000E-01  7.396500000000E-01  1.044300000000E-01
  70   6     1.085700000000E-01  2.603500000000E-01  1.044300000000E-01
  71   6     7.396500000000E-01  1.085700000000E-01  8.955700000000E-01
  72   6     2.603500000000E-01  8.914300000000E-01  8.955700000000E-01
  73   6     3.150000000000E-01  9.141000000000E-02  1.282200000000E-01
  74   6     6.850000000000E-01  9.085900000000E-01  1.282200000000E-01
  75   6     9.141000000000E-02  6.850000000000E-01  8.717800000000E-01
  76   6     9.085900000000E-01  3.150000000000E-01  8.717800000000E-01
  77   6     8.150000000000E-01  5.914100000000E-01  6.282200000000E-01
  78   6     1.850000000000E-01  4.085900000000E-01  6.282200000000E-01
  79   6     5.914100000000E-01  1.850000000000E-01  3.717800000000E-01
  80   6     4.085900000000E-01  8.150000000000E-01  3.717800000000E-01
  81   7     8.407700000000E-01  4.628300000000E-01  1.672900000000E-01
  82   7     1.592300000000E-01  5.371700000000E-01  1.672900000000E-01
  83   7     4.628300000000E-01  1.592300000000E-01  8.327100000000E-01
  84   7     5.371700000000E-01  8.407700000000E-01  8.327100000000E-01
  85   7     3.407700000000E-01  9.628300000000E-01  6.672900000000E-01
  86   7     6.592300000000E-01  3.717000000000E-02  6.672900000000E-01
  87   7     9.628300000000E-01  6.592300000000E-01  3.327100000000E-01
  88   7     3.717000000000E-02  3.407700000000E-01  3.327100000000E-01
  89   7     2.940400000000E-01  8.358500000000E-01  6.597700000000E-01
  90   7     7.059600000000E-01  1.641500000000E-01  6.597700000000E-01
  91   7     8.358500000000E-01  7.059600000000E-01  3.402300000000E-01
  92   7     1.641500000000E-01  2.940400000000E-01  3.402300000000E-01
  93   7     7.940400000000E-01  3.358500000000E-01  1.597700000000E-01
  94   7     2.059600000000E-01  6.641500000000E-01  1.597700000000E-01
  95   7     3.358500000000E-01  2.059600000000E-01  8.402300000000E-01
  96   7     6.641500000000E-01  7.940400000000E-01  8.402300000000E-01
  97   7     1.518600000000E-01  9.677900000000E-01  5.884000000000E-01
  98   7     8.481400000000E-01  3.221000000000E-02  5.884000000000E-01
  99   7     9.677900000000E-01  8.481400000000E-01  4.116000000000E-01
 100   7     3.221000000000E-02  1.518600000000E-01  4.116000000000E-01
 101   7     6.518600000000E-01  4.677900000000E-01  8.840000000000E-02
 102   7     3.481400000000E-01  5.322100000000E-01  8.840000000000E-02
 103   7     4.677900000000E-01  3.481400000000E-01  9.116000000000E-01
 104   7     5.322100000000E-01  6.518600000000E-01  9.116000000000E-01
 105   7     1.800200000000E-01  8.388700000000E-01  6.128200000000E-01
 106   7     8.199800000000E-01  1.611300000000E-01  6.128200000000E-01
 107   7     8.388700000000E-01  8.199800000000E-01  3.871800000000E-01
 108   7     1.611300000000E-01  1.800200000000E-01  3.871800000000E-01
 109   7     6.800200000000E-01  3.388700000000E-01  1.128200000000E-01
 110   7     3.199800000000E-01  6.611300000000E-01  1.128200000000E-01
 111   7     3.388700000000E-01  3.199800000000E-01  8.871800000000E-01
 112   7     6.611300000000E-01  6.800200000000E-01  8.871800000000E-01
 113   7     9.174200000000E-01  8.687700000000E-01  1.079100000000E-01
 114   7     8.258000000000E-02  1.312300000000E-01  1.079100000000E-01
 115   7     8.687700000000E-01  8.258000000000E-02  8.920900000000E-01
 116   7     1.312300000000E-01  9.174200000000E-01  8.920900000000E-01
 117   7     4.174200000000E-01  3.687700000000E-01  6.079100000000E-01
 118   7     5.825800000000E-01  6.312300000000E-01  6.079100000000E-01
 119   7     3.687700000000E-01  5.825800000000E-01  3.920900000000E-01
 120   7     6.312300000000E-01  4.174200000000E-01  3.920900000000E-01
 121  30     0.000000000000E+00  5.000000000000E-01  2.500000000000E-01
 122  30     5.000000000000E-01  0.000000000000E+00  7.500000000000E-01
 123  30     0.000000000000E+00  0.000000000000E+00  5.000000000000E-01
 124  30     5.000000000000E-01  5.000000000000E-01  0.000000000000E+00

 *******************************************************************************

 << INFORMATION >>: FROM NOW ON, ALL COORDINATES REFER TO THE PRIMITIVE CELL

 *******************************************************************************

 LATTICE PARAMETERS  (ANGSTROMS AND DEGREES) - PRIMITIVE CELL
       A          B          C        ALPHA      BETA     GAMMA        VOLUME
    9.78647    9.78647    9.78647   117.47208 117.47208  94.43726    685.870456

 INPUT LIST - ATOM N.   2 NOT IRREDUCIBLE

 INPUT LIST - ATOM N.   3 NOT IRREDUCIBLE

 INPUT LIST - ATOM N.   4 NOT IRREDUCIBLE

 INPUT LIST - ATOM N.   1 NOT IRREDUCIBLE

 INPUT LIST - ATOM N.   2 NOT IRREDUCIBLE

 INPUT LIST - ATOM N.   3 NOT IRREDUCIBLE

 INPUT LIST - ATOM N.   4 NOT IRREDUCIBLE

 INPUT LIST - ATOM N.   6 NOT IRREDUCIBLE

 INPUT LIST - ATOM N.   7 NOT IRREDUCIBLE

 INPUT LIST - ATOM N.   8 NOT IRREDUCIBLE

 INPUT LIST - ATOM N.   5 NOT IRREDUCIBLE

 INPUT LIST - ATOM N.   6 NOT IRREDUCIBLE

 INPUT LIST - ATOM N.   7 NOT IRREDUCIBLE

 INPUT LIST - ATOM N.   8 NOT IRREDUCIBLE

 INPUT LIST - ATOM N.  10 NOT IRREDUCIBLE

 INPUT LIST - ATOM N.  11 NOT IRREDUCIBLE

 INPUT LIST - ATOM N.  12 NOT IRREDUCIBLE

 INPUT LIST - ATOM N.   9 NOT IRREDUCIBLE

 INPUT LIST - ATOM N.  10 NOT IRREDUCIBLE

 INPUT LIST - ATOM N.  11 NOT IRREDUCIBLE

 INPUT LIST - ATOM N.  12 NOT IRREDUCIBLE

 INPUT LIST - ATOM N.  14 NOT IRREDUCIBLE

 INPUT LIST - ATOM N.  15 NOT IRREDUCIBLE

 INPUT LIST - ATOM N.  16 NOT IRREDUCIBLE

 INPUT LIST - ATOM N.  13 NOT IRREDUCIBLE

 INPUT LIST - ATOM N.  14 NOT IRREDUCIBLE

 INPUT LIST - ATOM N.  15 NOT IRREDUCIBLE

 INPUT LIST - ATOM N.  16 NOT IRREDUCIBLE

 INPUT LIST - ATOM N.  18 NOT IRREDUCIBLE

 INPUT LIST - ATOM N.  19 NOT IRREDUCIBLE

 INPUT LIST - ATOM N.  20 NOT IRREDUCIBLE

 INPUT LIST - ATOM N.  17 NOT IRREDUCIBLE

 INPUT LIST - ATOM N.  18 NOT IRREDUCIBLE

 INPUT LIST - ATOM N.  19 NOT IRREDUCIBLE

 INPUT LIST - ATOM N.  20 NOT IRREDUCIBLE

 INPUT LIST - ATOM N.  22 NOT IRREDUCIBLE

 INPUT LIST - ATOM N.  23 NOT IRREDUCIBLE

 INPUT LIST - ATOM N.  24 NOT IRREDUCIBLE

 INPUT LIST - ATOM N.  21 NOT IRREDUCIBLE

 INPUT LIST - ATOM N.  22 NOT IRREDUCIBLE

 INPUT LIST - ATOM N.  23 NOT IRREDUCIBLE

 INPUT LIST - ATOM N.  24 NOT IRREDUCIBLE

 INPUT LIST - ATOM N.  26 NOT IRREDUCIBLE

 INPUT LIST - ATOM N.  27 NOT IRREDUCIBLE

 INPUT LIST - ATOM N.  28 NOT IRREDUCIBLE

 INPUT LIST - ATOM N.  25 NOT IRREDUCIBLE

 INPUT LIST - ATOM N.  26 NOT IRREDUCIBLE

 INPUT LIST - ATOM N.  27 NOT IRREDUCIBLE

 INPUT LIST - ATOM N.  28 NOT IRREDUCIBLE

 INPUT LIST - ATOM N.  30 NOT IRREDUCIBLE

 INPUT LIST - ATOM N.  31 NOT IRREDUCIBLE

 INPUT LIST - ATOM N.  32 NOT IRREDUCIBLE

 INPUT LIST - ATOM N.  29 NOT IRREDUCIBLE

 INPUT LIST - ATOM N.  30 NOT IRREDUCIBLE

 INPUT LIST - ATOM N.  31 NOT IRREDUCIBLE

 INPUT LIST - ATOM N.  32 NOT IRREDUCIBLE

 INPUT LIST - ATOM N.  34 NOT IRREDUCIBLE

 INPUT LIST - ATOM N.  35 NOT IRREDUCIBLE

 INPUT LIST - ATOM N.  36 NOT IRREDUCIBLE

 INPUT LIST - ATOM N.  33 NOT IRREDUCIBLE

 INPUT LIST - ATOM N.  34 NOT IRREDUCIBLE

 INPUT LIST - ATOM N.  35 NOT IRREDUCIBLE

 INPUT LIST - ATOM N.  36 NOT IRREDUCIBLE

 INPUT LIST - ATOM N.  38 NOT IRREDUCIBLE

 INPUT LIST - ATOM N.  39 NOT IRREDUCIBLE

 INPUT LIST - ATOM N.  40 NOT IRREDUCIBLE

 INPUT LIST - ATOM N.  37 NOT IRREDUCIBLE

 INPUT LIST - ATOM N.  38 NOT IRREDUCIBLE

 INPUT LIST - ATOM N.  39 NOT IRREDUCIBLE

 INPUT LIST - ATOM N.  40 NOT IRREDUCIBLE

 INPUT LIST - ATOM N.  42 NOT IRREDUCIBLE

 INPUT LIST - ATOM N.  43 NOT IRREDUCIBLE

 INPUT LIST - ATOM N.  44 NOT IRREDUCIBLE

 INPUT LIST - ATOM N.  41 NOT IRREDUCIBLE

 INPUT LIST - ATOM N.  42 NOT IRREDUCIBLE

 INPUT LIST - ATOM N.  43 NOT IRREDUCIBLE

 INPUT LIST - ATOM N.  44 NOT IRREDUCIBLE

 INPUT LIST - ATOM N.  46 NOT IRREDUCIBLE

 INPUT LIST - ATOM N.  47 NOT IRREDUCIBLE

 INPUT LIST - ATOM N.  48 NOT IRREDUCIBLE

 INPUT LIST - ATOM N.  45 NOT IRREDUCIBLE

 INPUT LIST - ATOM N.  46 NOT IRREDUCIBLE

 INPUT LIST - ATOM N.  47 NOT IRREDUCIBLE

 INPUT LIST - ATOM N.  48 NOT IRREDUCIBLE

 INPUT LIST - ATOM N.  50 NOT IRREDUCIBLE

 INPUT LIST - ATOM N.  51 NOT IRREDUCIBLE

 INPUT LIST - ATOM N.  52 NOT IRREDUCIBLE

 INPUT LIST - ATOM N.  49 NOT IRREDUCIBLE

 INPUT LIST - ATOM N.  50 NOT IRREDUCIBLE

 INPUT LIST - ATOM N.  51 NOT IRREDUCIBLE

 INPUT LIST - ATOM N.  52 NOT IRREDUCIBLE

 INPUT LIST - ATOM N.  54 NOT IRREDUCIBLE

 INPUT LIST - ATOM N.  55 NOT IRREDUCIBLE

 INPUT LIST - ATOM N.  56 NOT IRREDUCIBLE

 INPUT LIST - ATOM N.  53 NOT IRREDUCIBLE

 INPUT LIST - ATOM N.  54 NOT IRREDUCIBLE

 INPUT LIST - ATOM N.  55 NOT IRREDUCIBLE

 INPUT LIST - ATOM N.  56 NOT IRREDUCIBLE

 INPUT LIST - ATOM N.  58 NOT IRREDUCIBLE

 INPUT LIST - ATOM N.  59 NOT IRREDUCIBLE

 INPUT LIST - ATOM N.  60 NOT IRREDUCIBLE

 INPUT LIST - ATOM N.  57 NOT IRREDUCIBLE

 INPUT LIST - ATOM N.  58 NOT IRREDUCIBLE

 INPUT LIST - ATOM N.  59 NOT IRREDUCIBLE

 INPUT LIST - ATOM N.  60 NOT IRREDUCIBLE

 INPUT LIST - ATOM N.  61 NOT IRREDUCIBLE

 INPUT LIST - ATOM N.  62 NOT IRREDUCIBLE

 COORDINATES OF THE EQUIVALENT ATOMS (FRACTIONAL UNITS)

 N. ATOM EQUIV AT. N.          X                  Y                  Z

   1   1   1    1 H    -1.25960000000E-01 -3.05720000000E-01  2.94980000000E-01
   2   1   2    1 H     3.99300000000E-01 -4.20940000000E-01 -2.94980000000E-01
   3   1   3    1 H     3.05720000000E-01 -3.99300000000E-01  1.79760000000E-01
   4   1   4    1 H     4.20940000000E-01  1.25960000000E-01 -1.79760000000E-01








   5   9   1   35 BR   -2.33980000000E-01  6.67500000000E-02 -3.48890000000E-01
   6   9   2   35 BR    4.15640000000E-01  1.14910000000E-01  3.48890000000E-01
   7   9   3   35 BR   -6.67500000000E-02 -4.15640000000E-01 -3.00730000000E-01
   8   9   4   35 BR   -1.14910000000E-01  2.33980000000E-01  3.00730000000E-01








   9  17   1    1 H     1.17570000000E-01 -2.57190000000E-01 -4.13600000000E-01
  10  17   2    1 H     1.56410000000E-01 -4.68830000000E-01  4.13600000000E-01
  11  17   3    1 H     2.57190000000E-01 -1.56410000000E-01  3.74760000000E-01
  12  17   4    1 H     4.68830000000E-01 -1.17570000000E-01 -3.74760000000E-01

 NUMBER OF SYMMETRY OPERATORS         :    4
 *******************************************************************************
 * GEOMETRY EDITING - INPUT COORDINATES ARE GIVEN IN ANGSTROM         
 *******************************************************************************

 GEOMETRY NOW FULLY CONSISTENT WITH THE GROUP
 *******************************************************************************
 *  GEOMETRY EDITING
 *  THE SYMMETRY OF THE CRYSTAL IS KEPT AND APPLIED TO THE PERTURBATION
 *******************************************************************************
 INFORMATION **** NEW DEFAULT **** FINALRUN 4 FOR GEOMETRY OPTIMIZATIONS
 INFORMATION **** NEW DEFAULT **** OPTGEOM OPTIMIZES BOTH ATOMIC COORDINATES AND CELL PARAMETERS
 INFORMATION **** NEW DEFAULT **** TOL. ON ATOMIC DISP TO REDEFINE REF. GEOMETRY: 0.8 Angs
 INFORMATION **** NEW DEFAULT **** N POINTS TO REDEFINE REF. GEOMETRY: N OF OPT DEGS OF FREEDOM
 INFORMATION **** NEW DEFAULT **** TOL. ON ENERGY TO REDEFINE REF. GEOMETRY: 10**-3*(5*N. ATOMS)

 IMPORTANT INFORMATION:
 THE COORDINATE SYSTEM ADOPTED IN THE OPTIMIZATION IS NOT IN
 GENERAL HOMOGENEOUS UNITS. FOR THIS REASON THE GRADIENT AND 
 HESSIAN MATRIX IN TERMS OF THIS SYSTEM ARE GIVEN WITHOUT
 UNITS. FOR MORE DETAILS SEE THE MANUAL.

 *******************************************************************************
 COMBINED CELL/ATOM OPTIMIZATION CONTROL

 INITIAL TRUST RADIUS         0.50000 MAXIMUM TRUST RADIUS               4.00000
 MAXIMUM GRADIENT COMPONENT   0.00045 MAXIMUM DISPLACEMENT COMPONENT     0.00180
 R.M.S. OF GRADIENT COMPONENT 0.00030 R.M.S. OF DISPLACEMENT COMPONENTS  0.00120
 THRESHOLD ON ENERGY CHANGE 0.100E-06 EXTRAPOLATING POLYNOMIAL ORDER           2
 MAXIMUM ALLOWED NUMBER OF STEPS   -1 SORTING OF ENERGY POINTS:               NO
 ANALYTICAL  GRADIENT                 HESSIAN UPDATING                      BFGS
 STEP SIZE NUMERICAL GRADIENT 0.00100
 INITIAL HESSIAN MATRIX: SCHLEGEL MODEL 2
 *******************************************************************************


 GCALCO - MAX INDICES DIRECT LATTICE VECTOR    14    14    16
 NO.OF VECTORS CREATED 6999 STARS  481 RMAX   197.96270 BOHR

 GEOMETRY FOR WAVE FUNCTION - DIMENSIONALITY OF THE SYSTEM    3
 (NON PERIODIC DIRECTION: LATTICE PARAMETER FORMALLY SET TO 500)
 *******************************************************************************
 LATTICE PARAMETERS (ANGSTROMS AND DEGREES) - BOHR = 0.5291772083 ANGSTROM
 PRIMITIVE CELL - CENTRING CODE 6/0 VOLUME=   685.870456 - DENSITY  3.233 g/cm^3
         A              B              C           ALPHA      BETA       GAMMA 
     9.78647490     9.78647490     9.78647490   117.472078 117.472078  94.437262
 *******************************************************************************
 ATOMS IN THE ASYMMETRIC UNIT   17 - ATOMS IN THE UNIT CELL:   62
     ATOM                 X/A                 Y/B                 Z/C    
 *******************************************************************************
      1 T   1 H    -1.259600000000E-01 -3.057200000000E-01  2.949800000000E-01
      2 F   1 H     3.993000000000E-01 -4.209400000000E-01 -2.949800000000E-01
      3 F   1 H     3.057200000000E-01 -3.993000000000E-01  1.797600000000E-01
      4 F   1 H     4.209400000000E-01  1.259600000000E-01 -1.797600000000E-01
      5 T  35 BR   -2.339800000000E-01  6.675000000000E-02 -3.488900000000E-01
      6 F  35 BR    4.156400000000E-01  1.149100000000E-01  3.488900000000E-01
      7 F  35 BR   -6.675000000000E-02 -4.156400000000E-01 -3.007300000000E-01
      8 F  35 BR   -1.149100000000E-01  2.339800000000E-01  3.007300000000E-01
      9 T   1 H     1.175700000000E-01 -2.571900000000E-01 -4.136000000000E-01
     10 F   1 H     1.564100000000E-01 -4.688300000000E-01  4.136000000000E-01
     11 F   1 H     2.571900000000E-01 -1.564100000000E-01  3.747600000000E-01
     12 F   1 H     4.688300000000E-01 -1.175700000000E-01 -3.747600000000E-01
     13 T  35 BR    1.811100000000E-01 -3.390000000000E-02 -1.008300000000E-01
     14 F  35 BR    6.693000000000E-02  2.819400000000E-01  1.008300000000E-01
     15 F  35 BR    3.390000000000E-02 -6.693000000000E-02  2.150100000000E-01
     16 F  35 BR   -2.819400000000E-01 -1.811100000000E-01 -2.150100000000E-01
     17 T   6 C    -1.974700000000E-01 -1.188000000000E-01  4.506300000000E-01
     18 F   6 C     4.305700000000E-01  3.519000000000E-01 -4.506300000000E-01
     19 F   6 C     1.188000000000E-01 -4.305700000000E-01 -7.867000000000E-02
     20 F   6 C    -3.519000000000E-01  1.974700000000E-01  7.867000000000E-02
     21 T   6 C    -3.338300000000E-01 -1.256000000000E-01  2.945700000000E-01
     22 F   6 C    -4.201700000000E-01  3.716000000000E-01 -2.945700000000E-01
     23 F   6 C     1.256000000000E-01  4.201700000000E-01 -2.082300000000E-01
     24 F   6 C    -3.716000000000E-01  3.338300000000E-01  2.082300000000E-01
     25 T   6 C    -9.899000000000E-02 -2.142900000000E-01  4.320400000000E-01
     26 F   6 C     3.536700000000E-01  4.689700000000E-01 -4.320400000000E-01
     27 F   6 C     2.142900000000E-01 -3.536700000000E-01  1.153000000000E-01
     28 F   6 C    -4.689700000000E-01  9.899000000000E-02 -1.153000000000E-01
     29 T   6 C     7.302000000000E-02 -6.388000000000E-02 -2.317200000000E-01
     30 F   6 C     1.678400000000E-01  3.047400000000E-01  2.317200000000E-01
     31 F   6 C     6.388000000000E-02 -1.678400000000E-01  1.369000000000E-01
     32 F   6 C    -3.047400000000E-01 -7.302000000000E-02 -1.369000000000E-01
     33 T   6 C    -1.559200000000E-01 -4.140000000000E-03 -3.689200000000E-01
     34 F   6 C     3.647800000000E-01  2.130000000000E-01  3.689200000000E-01
     35 F   6 C     4.140000000000E-03 -3.647800000000E-01 -1.517800000000E-01
     36 F   6 C    -2.130000000000E-01  1.559200000000E-01  1.517800000000E-01
     37 T   6 C     2.196300000000E-01  4.432200000000E-01  4.064100000000E-01
     38 F   6 C     3.681000000000E-02 -1.867800000000E-01 -4.064100000000E-01
     39 F   6 C    -4.432200000000E-01 -3.681000000000E-02 -2.235900000000E-01
     40 F   6 C     1.867800000000E-01 -2.196300000000E-01  2.235900000000E-01
     41 T   7 N    -3.698800000000E-01  8.060000000000E-03  3.036000000000E-01
     42 F   7 N    -2.955400000000E-01  3.265200000000E-01 -3.036000000000E-01
     43 F   7 N    -8.060000000000E-03  2.955400000000E-01 -3.779400000000E-01
     44 F   7 N    -3.265200000000E-01  3.698800000000E-01  3.779400000000E-01
     45 T   7 N     4.956200000000E-01 -4.619000000000E-02  1.298900000000E-01
     46 F   7 N    -1.760800000000E-01  3.657300000000E-01 -1.298900000000E-01
     47 F   7 N     4.619000000000E-02  1.760800000000E-01 -4.581900000000E-01
     48 F   7 N    -3.657300000000E-01 -4.956200000000E-01  4.581900000000E-01
     49 T   7 N    -4.438100000000E-01 -2.597400000000E-01  1.196500000000E-01
     50 F   7 N    -3.793900000000E-01  4.365400000000E-01 -1.196500000000E-01
     51 F   7 N     2.597400000000E-01  3.793900000000E-01 -1.840700000000E-01
     52 F   7 N    -4.365400000000E-01  4.438100000000E-01  1.840700000000E-01
     53 T   7 N     4.516900000000E-01 -2.071600000000E-01  1.889000000000E-02
     54 F   7 N    -2.260500000000E-01  4.328000000000E-01 -1.889000000000E-02
     55 F   7 N     2.071600000000E-01  2.260500000000E-01 -3.411500000000E-01
     56 F   7 N    -4.328000000000E-01 -4.516900000000E-01  3.411500000000E-01
     57 T   7 N    -2.332000000000E-02  2.533000000000E-02 -2.138100000000E-01
     58 F   7 N     2.391400000000E-01  1.904900000000E-01  2.138100000000E-01
     59 F   7 N    -2.533000000000E-02 -2.391400000000E-01 -4.865000000000E-02
     60 F   7 N    -1.904900000000E-01  2.332000000000E-02  4.865000000000E-02
     61 T  30 ZN   -2.500000000000E-01  2.500000000000E-01  5.000000000000E-01
     62 T  30 ZN   -5.000000000000E-01  5.000000000000E-01  0.000000000000E+00

 TRANSFORMATION MATRIX PRIMITIVE-CRYSTALLOGRAPHIC CELL
  0.0000  1.0000  1.0000  1.0000  0.0000  1.0000  1.0000  1.0000  0.0000

 *******************************************************************************
 CRYSTALLOGRAPHIC CELL (VOLUME=       1371.74091142)
         A              B              C           ALPHA      BETA       GAMMA 
    10.15800000    10.15800000    13.29400000    90.000000  90.000000  90.000000

 COORDINATES IN THE CRYSTALLOGRAPHIC CELL
     ATOM                 X/A                 Y/B                 Z/C    
 *******************************************************************************
      1 T   1 H     5.761000000000E-02  2.373700000000E-01 -3.633300000000E-01
      2 F   1 H    -5.761000000000E-02 -2.373700000000E-01 -3.633300000000E-01
      3 F   1 H     2.373700000000E-01 -5.761000000000E-02  3.633300000000E-01
      4 F   1 H    -2.373700000000E-01  5.761000000000E-02  3.633300000000E-01
      5 T  35 BR   -2.408000000000E-02 -3.248100000000E-01  9.083000000000E-02
      6 F  35 BR    2.408000000000E-02  3.248100000000E-01  9.083000000000E-02
      7 F  35 BR   -3.248100000000E-01  2.408000000000E-02 -9.083000000000E-02
      8 F  35 BR    3.248100000000E-01 -2.408000000000E-02 -9.083000000000E-02
      9 T   1 H    -3.941800000000E-01 -1.942000000000E-02  1.369900000000E-01
     10 F   1 H     3.941800000000E-01  1.942000000000E-02  1.369900000000E-01
     11 F   1 H    -1.942000000000E-02  3.941800000000E-01 -1.369900000000E-01
     12 F   1 H     1.942000000000E-02 -3.941800000000E-01 -1.369900000000E-01
     13 T  35 BR   -1.579200000000E-01  5.709000000000E-02  1.240200000000E-01
     14 F  35 BR    1.579200000000E-01 -5.709000000000E-02  1.240200000000E-01
     15 F  35 BR    5.709000000000E-02  1.579200000000E-01 -1.240200000000E-01
     16 F  35 BR   -5.709000000000E-02 -1.579200000000E-01 -1.240200000000E-01
     17 T   6 C    -2.353500000000E-01 -3.140200000000E-01  1.165500000000E-01
     18 F   6 C     2.353500000000E-01  3.140200000000E-01  1.165500000000E-01
     19 F   6 C    -3.140200000000E-01  2.353500000000E-01 -1.165500000000E-01
     20 F   6 C     3.140200000000E-01 -2.353500000000E-01 -1.165500000000E-01
     21 T   6 C    -2.486000000000E-01 -4.568300000000E-01  1.230000000000E-01
     22 F   6 C     2.486000000000E-01  4.568300000000E-01  1.230000000000E-01
     23 F   6 C    -4.568300000000E-01  2.486000000000E-01 -1.230000000000E-01
     24 F   6 C     4.568300000000E-01 -2.486000000000E-01 -1.230000000000E-01
     25 T   6 C    -3.416300000000E-01 -2.263300000000E-01  1.273400000000E-01
     26 F   6 C     3.416300000000E-01  2.263300000000E-01  1.273400000000E-01
     27 F   6 C    -2.263300000000E-01  3.416300000000E-01 -1.273400000000E-01
     28 F   6 C     2.263300000000E-01 -3.416300000000E-01 -1.273400000000E-01
     29 T   6 C    -1.843100000000E-01 -4.741000000000E-02  1.204300000000E-01
     30 F   6 C     1.843100000000E-01  4.741000000000E-02  1.204300000000E-01
     31 F   6 C    -4.741000000000E-02  1.843100000000E-01 -1.204300000000E-01
     32 F   6 C     4.741000000000E-02 -1.843100000000E-01 -1.204300000000E-01
     33 T   6 C    -1.085700000000E-01 -2.603500000000E-01  1.044300000000E-01
     34 F   6 C     1.085700000000E-01  2.603500000000E-01  1.044300000000E-01
     35 F   6 C    -2.603500000000E-01  1.085700000000E-01 -1.044300000000E-01
     36 F   6 C     2.603500000000E-01 -1.085700000000E-01 -1.044300000000E-01
     37 T   6 C     3.150000000000E-01  9.141000000000E-02  1.282200000000E-01
     38 F   6 C    -3.150000000000E-01 -9.141000000000E-02  1.282200000000E-01
     39 F   6 C     9.141000000000E-02 -3.150000000000E-01 -1.282200000000E-01
     40 F   6 C    -9.141000000000E-02  3.150000000000E-01 -1.282200000000E-01
     41 T   7 N    -1.592300000000E-01  4.628300000000E-01  1.672900000000E-01
     42 F   7 N     1.592300000000E-01 -4.628300000000E-01  1.672900000000E-01
     43 F   7 N     4.628300000000E-01  1.592300000000E-01 -1.672900000000E-01
     44 F   7 N    -4.628300000000E-01 -1.592300000000E-01 -1.672900000000E-01
     45 T   7 N    -2.059600000000E-01  3.358500000000E-01  1.597700000000E-01
     46 F   7 N     2.059600000000E-01 -3.358500000000E-01  1.597700000000E-01
     47 F   7 N     3.358500000000E-01  2.059600000000E-01 -1.597700000000E-01
     48 F   7 N    -3.358500000000E-01 -2.059600000000E-01 -1.597700000000E-01
     49 T   7 N     1.518600000000E-01 -3.221000000000E-02 -4.116000000000E-01
     50 F   7 N    -1.518600000000E-01  3.221000000000E-02 -4.116000000000E-01
     51 F   7 N    -3.221000000000E-02 -1.518600000000E-01  4.116000000000E-01
     52 F   7 N     3.221000000000E-02  1.518600000000E-01  4.116000000000E-01
     53 T   7 N    -3.199800000000E-01  3.388700000000E-01  1.128200000000E-01
     54 F   7 N     3.199800000000E-01 -3.388700000000E-01  1.128200000000E-01
     55 F   7 N     3.388700000000E-01  3.199800000000E-01 -1.128200000000E-01
     56 F   7 N    -3.388700000000E-01 -3.199800000000E-01 -1.128200000000E-01
     57 T   7 N    -8.258000000000E-02 -1.312300000000E-01  1.079100000000E-01
     58 F   7 N     8.258000000000E-02  1.312300000000E-01  1.079100000000E-01
     59 F   7 N    -1.312300000000E-01  8.258000000000E-02 -1.079100000000E-01
     60 F   7 N     1.312300000000E-01 -8.258000000000E-02 -1.079100000000E-01
     61 T  30 ZN    4.626932236752E-17  5.000000000000E-01  2.500000000000E-01
     62 T  30 ZN    0.000000000000E+00  0.000000000000E+00  5.000000000000E-01

 T = ATOM BELONGING TO THE ASYMMETRIC UNIT

 ****    4 SYMMOPS - TRANSLATORS IN FRACTIONAL UNITS
 **** MATRICES AND TRANSLATORS IN THE CRYSTALLOGRAPHIC REFERENCE FRAME
   V INV                    ROTATION MATRICES                   TRANSLATORS
   1   1  1.00  0.00  0.00  0.00  1.00  0.00  0.00  0.00  1.00  0.00  0.00  0.00
   2   2  0.00  1.00 -1.00  1.00 -0.00 -1.00 -0.00  0.00 -1.00  0.00  0.00  0.00
   3   4 -0.00 -1.00  0.00  0.00 -1.00  1.00  1.00 -1.00  0.00  0.00  0.00  0.00
   4   3 -1.00 -0.00  1.00 -1.00  0.00 -0.00 -1.00  1.00 -0.00  0.00  0.00  0.00

 DIRECT LATTICE VECTORS CARTESIAN COMPONENTS (ANGSTROM)
          X                    Y                    Z
  -0.507900000000E+01   0.507900000000E+01   0.664700000000E+01
   0.507900000000E+01  -0.507900000000E+01   0.664700000000E+01
   0.507900000000E+01   0.507900000000E+01  -0.664700000000E+01


 CARTESIAN COORDINATES - PRIMITIVE CELL
 *******************************************************************************
 *      ATOM          X(ANGSTROM)         Y(ANGSTROM)         Z(ANGSTROM)
 *******************************************************************************
    1     1 H     5.852023800000E-01  2.411204460000E+00 -4.830109020000E+00
    2     1 H    -5.852023800000E-01 -2.411204460000E+00 -4.830109020000E+00
    3     1 H     2.411204460000E+00 -5.852023800000E-01  4.830109020000E+00
    4     1 H    -2.411204460000E+00  5.852023800000E-01  4.830109020000E+00
    5    35 BR   -2.446046400000E-01 -3.299419980000E+00  1.207494020000E+00
    6    35 BR    2.446046400000E-01  3.299419980000E+00  1.207494020000E+00
    7    35 BR   -3.299419980000E+00  2.446046400000E-01 -1.207494020000E+00
    8    35 BR    3.299419980000E+00 -2.446046400000E-01 -1.207494020000E+00
    9     1 H    -4.004080440000E+00 -1.972683600000E-01  1.821145060000E+00
   10     1 H     4.004080440000E+00  1.972683600000E-01  1.821145060000E+00
   11     1 H    -1.972683600000E-01  4.004080440000E+00 -1.821145060000E+00
   12     1 H     1.972683600000E-01 -4.004080440000E+00 -1.821145060000E+00
   13    35 BR   -1.604151360000E+00  5.799202200000E-01  1.648721880000E+00
   14    35 BR    1.604151360000E+00 -5.799202200000E-01  1.648721880000E+00
   15    35 BR    5.799202200000E-01  1.604151360000E+00 -1.648721880000E+00
   16    35 BR   -5.799202200000E-01 -1.604151360000E+00 -1.648721880000E+00
   17     6 C    -2.390685300000E+00 -3.189815160000E+00  1.549415700000E+00
   18     6 C     2.390685300000E+00  3.189815160000E+00  1.549415700000E+00
   19     6 C    -3.189815160000E+00  2.390685300000E+00 -1.549415700000E+00
   20     6 C     3.189815160000E+00 -2.390685300000E+00 -1.549415700000E+00
   21     6 C    -2.525278800000E+00 -4.640479140000E+00  1.635162000000E+00
   22     6 C     2.525278800000E+00  4.640479140000E+00  1.635162000000E+00
   23     6 C    -4.640479140000E+00  2.525278800000E+00 -1.635162000000E+00
   24     6 C     4.640479140000E+00 -2.525278800000E+00 -1.635162000000E+00
   25     6 C    -3.470277540000E+00 -2.299060140000E+00  1.692857960000E+00
   26     6 C     3.470277540000E+00  2.299060140000E+00  1.692857960000E+00
   27     6 C    -2.299060140000E+00  3.470277540000E+00 -1.692857960000E+00
   28     6 C     2.299060140000E+00 -3.470277540000E+00 -1.692857960000E+00
   29     6 C    -1.872220980000E+00 -4.815907800000E-01  1.600996420000E+00
   30     6 C     1.872220980000E+00  4.815907800000E-01  1.600996420000E+00
   31     6 C    -4.815907800000E-01  1.872220980000E+00 -1.600996420000E+00
   32     6 C     4.815907800000E-01 -1.872220980000E+00 -1.600996420000E+00
   33     6 C    -1.102854060000E+00 -2.644635300000E+00  1.388292420000E+00
   34     6 C     1.102854060000E+00  2.644635300000E+00  1.388292420000E+00
   35     6 C    -2.644635300000E+00  1.102854060000E+00 -1.388292420000E+00
   36     6 C     2.644635300000E+00 -1.102854060000E+00 -1.388292420000E+00
   37     6 C     3.199770000000E+00  9.285427800000E-01  1.704556680000E+00
   38     6 C    -3.199770000000E+00 -9.285427800000E-01  1.704556680000E+00
   39     6 C     9.285427800000E-01 -3.199770000000E+00 -1.704556680000E+00
   40     6 C    -9.285427800000E-01  3.199770000000E+00 -1.704556680000E+00
   41     7 N    -1.617458340000E+00  4.701427140000E+00  2.223953260000E+00
   42     7 N     1.617458340000E+00 -4.701427140000E+00  2.223953260000E+00
   43     7 N     4.701427140000E+00  1.617458340000E+00 -2.223953260000E+00
   44     7 N    -4.701427140000E+00 -1.617458340000E+00 -2.223953260000E+00
   45     7 N    -2.092141680000E+00  3.411564300000E+00  2.123982380000E+00
   46     7 N     2.092141680000E+00 -3.411564300000E+00  2.123982380000E+00
   47     7 N     3.411564300000E+00  2.092141680000E+00 -2.123982380000E+00
   48     7 N    -3.411564300000E+00 -2.092141680000E+00 -2.123982380000E+00
   49     7 N     1.542593880000E+00 -3.271891800000E-01 -5.471810400000E+00
   50     7 N    -1.542593880000E+00  3.271891800000E-01 -5.471810400000E+00
   51     7 N    -3.271891800000E-01 -1.542593880000E+00  5.471810400000E+00
   52     7 N     3.271891800000E-01  1.542593880000E+00  5.471810400000E+00
   53     7 N    -3.250356840000E+00  3.442241460000E+00  1.499829080000E+00
   54     7 N     3.250356840000E+00 -3.442241460000E+00  1.499829080000E+00
   55     7 N     3.442241460000E+00  3.250356840000E+00 -1.499829080000E+00
   56     7 N    -3.442241460000E+00 -3.250356840000E+00 -1.499829080000E+00
   57     7 N    -8.388476400000E-01 -1.333034340000E+00  1.434555540000E+00
   58     7 N     8.388476400000E-01  1.333034340000E+00  1.434555540000E+00
   59     7 N    -1.333034340000E+00  8.388476400000E-01 -1.434555540000E+00
   60     7 N     1.333034340000E+00 -8.388476400000E-01 -1.434555540000E+00
   61    30 ZN    4.700037766092E-16  5.079000000000E+00 -9.970500000000E+00
   62    30 ZN    0.000000000000E+00  0.000000000000E+00  6.647000000000E+00

 *******************************************************************************
 STARTING BASIS SET HANDLING 
 *******************************************************************************

 Loading internal basis set: POB-DZVPP           

 Please cite in your publication:
 Peintinger, M. F., Oliveira, D. V. and Bredow, T. (2013), Generally applicable 
 solid-state Gaussian basis sets, in preparation                                
                                                                                
                    

 *******************************************************************************
 LOCAL ATOMIC FUNCTIONS BASIS SET
 *******************************************************************************
   ATOM   X(AU)   Y(AU)   Z(AU)  N. TYPE  EXPONENT  S COEF   P COEF   D/F/G COEF
 *******************************************************************************
   1 H    1.106   4.557  -9.128
                                  1 S  
                                         2.263E+01 1.441E-02 0.000E+00 0.000E+00
                                         3.236E+00 1.072E-01 0.000E+00 0.000E+00
                                         7.304E-01 3.846E-01 0.000E+00 0.000E+00
                                  2 S  
                                         1.417E-01 1.000E+00 0.000E+00 0.000E+00
                           3-     5 P  
                                         3.944E-01 0.000E+00 1.000E+00 0.000E+00
                           6-     8 P  
                                         1.006E-01 0.000E+00 1.000E+00 0.000E+00
   2 H   -1.106  -4.557  -9.128
   3 H    4.557  -1.106   9.128
   4 H   -4.557   1.106   9.128
   5 BR  -0.462  -6.235   2.282
                                 33 S  
                                         1.133E+05 1.428E-03 0.000E+00 0.000E+00
                                         1.701E+04 1.095E-02 0.000E+00 0.000E+00
                                         3.870E+03 5.442E-02 0.000E+00 0.000E+00
                                         1.093E+03 1.905E-01 0.000E+00 0.000E+00
                                         3.564E+02 3.902E-01 0.000E+00 0.000E+00
                                         1.231E+02 3.081E-01 0.000E+00 0.000E+00
                                 34 S  
                                         2.367E+02-1.123E-01 0.000E+00 0.000E+00
                                         2.847E+01 6.478E-01 0.000E+00 0.000E+00
                                         1.188E+01 4.424E-01 0.000E+00 0.000E+00
                                 35 S  
                                         2.127E+01-2.264E-01 0.000E+00 0.000E+00
                                         3.613E+00 7.382E-01 0.000E+00 0.000E+00
                                         1.663E+00 4.268E-01 0.000E+00 0.000E+00
                                 36 S  
                                         3.641E-01 1.000E+00 0.000E+00 0.000E+00
                                 37 S  
                                         1.243E-01 1.000E+00 0.000E+00 0.000E+00
                          38-    40 P  
                                         1.560E+03 0.000E+00 8.717E-03 0.000E+00
                                         3.685E+02 0.000E+00 6.624E-02 0.000E+00
                                         1.172E+02 0.000E+00 2.650E-01 0.000E+00
                                         4.265E+01 0.000E+00 5.384E-01 0.000E+00
                                         1.609E+01 0.000E+00 3.658E-01 0.000E+00
                          41-    43 P  
                                         8.635E+00 0.000E+00 3.425E-01 0.000E+00
                                         3.561E+00 0.000E+00 5.750E-01 0.000E+00
                                         1.529E+00 0.000E+00 2.433E-01 0.000E+00
                          44-    46 P  
                                         6.447E-01 0.000E+00 1.000E+00 0.000E+00
                          47-    49 P  
                                         2.103E-01 0.000E+00 1.000E+00 0.000E+00
                          50-    54 D  
                                         1.049E+02 0.000E+00 0.000E+00 2.265E-02
                                         3.028E+01 0.000E+00 0.000E+00 1.346E-01
                                         1.065E+01 0.000E+00 0.000E+00 3.647E-01
                                         3.870E+00 0.000E+00 0.000E+00 4.904E-01
                          55-    59 D  
                                         1.342E+00 0.000E+00 0.000E+00 1.000E+00
                          60-    64 D  
                                         4.101E-01 0.000E+00 0.000E+00 1.000E+00
                          65-    69 D  
                                         1.985E-01 0.000E+00 0.000E+00 1.000E+00
   6 BR   0.462   6.235   2.282
   7 BR  -6.235   0.462  -2.282
   8 BR   6.235  -0.462  -2.282
   9 H   -7.567  -0.373   3.441
  10 H    7.567   0.373   3.441
  11 H   -0.373   7.567  -3.441
  12 H    0.373  -7.567  -3.441
  13 BR  -3.031   1.096   3.116
  14 BR   3.031  -1.096   3.116
  15 BR   1.096   3.031  -3.116
  16 BR  -1.096  -3.031  -3.116
  17 C   -4.518  -6.028   2.928
                                361 S  
                                         1.238E+03 5.457E-03 0.000E+00 0.000E+00
                                         1.863E+02 4.064E-02 0.000E+00 0.000E+00
                                         4.225E+01 1.803E-01 0.000E+00 0.000E+00
                                         1.168E+01 4.632E-01 0.000E+00 0.000E+00
                                         3.593E+00 4.409E-01 0.000E+00 0.000E+00
                                362 S  
                                         5.281E+00 1.000E+00 0.000E+00 0.000E+00
                                363 S  
                                         4.447E-01 1.000E+00 0.000E+00 0.000E+00
                         364-   366 P  
                                         9.468E+00 0.000E+00 3.839E-02 0.000E+00
                                         2.010E+00 0.000E+00 2.112E-01 0.000E+00
                                         5.477E-01 0.000E+00 5.133E-01 0.000E+00
                         367-   369 P  
                                         1.604E-01 0.000E+00 1.000E+00 0.000E+00
                         370-   374 D  
                                         6.070E-01 0.000E+00 0.000E+00 1.000E+00
                         375-   379 D  
                                         2.939E-01 0.000E+00 0.000E+00 1.000E+00
  18 C    4.518   6.028   2.928
  19 C   -6.028   4.518  -2.928
  20 C    6.028  -4.518  -2.928
  21 C   -4.772  -8.769   3.090
  22 C    4.772   8.769   3.090
  23 C   -8.769   4.772  -3.090
  24 C    8.769  -4.772  -3.090
  25 C   -6.558  -4.345   3.199
  26 C    6.558   4.345   3.199
  27 C   -4.345   6.558  -3.199
  28 C    4.345  -6.558  -3.199
  29 C   -3.538  -0.910   3.025
  30 C    3.538   0.910   3.025
  31 C   -0.910   3.538  -3.025
  32 C    0.910  -3.538  -3.025
  33 C   -2.084  -4.998   2.623
  34 C    2.084   4.998   2.623
  35 C   -4.998   2.084  -2.623
  36 C    4.998  -2.084  -2.623
  37 C    6.047   1.755   3.221
  38 C   -6.047  -1.755   3.221
  39 C    1.755  -6.047  -3.221
  40 C   -1.755   6.047  -3.221
  41 N   -3.057   8.884   4.203
                                817 S  
                                         1.713E+03-5.393E-03 0.000E+00 0.000E+00
                                         2.576E+02-4.022E-02 0.000E+00 0.000E+00
                                         5.846E+01-1.793E-01 0.000E+00 0.000E+00
                                         1.620E+01-4.638E-01 0.000E+00 0.000E+00
                                         5.005E+00-4.417E-01 0.000E+00 0.000E+00
                                818 S  
                                         6.217E-01 1.000E+00 0.000E+00 0.000E+00
                                819 S  
                                         2.921E-01 1.000E+00 0.000E+00 0.000E+00
                         820-   822 P  
                                         1.357E+01 0.000E+00-4.007E-02 0.000E+00
                                         2.926E+00 0.000E+00-2.181E-01 0.000E+00
                                         7.993E-01 0.000E+00-5.129E-01 0.000E+00
                         823-   825 P  
                                         2.244E-01 0.000E+00 1.000E+00 0.000E+00
                         826-   830 D  
                                         3.118E-01 0.000E+00 0.000E+00 1.000E+00
  42 N    3.057  -8.884   4.203
  43 N    8.884   3.057  -4.203
  44 N   -8.884  -3.057  -4.203
  45 N   -3.954   6.447   4.014
  46 N    3.954  -6.447   4.014
  47 N    6.447   3.954  -4.014
  48 N   -6.447  -3.954  -4.014
  49 N    2.915  -0.618 -10.340
  50 N   -2.915   0.618 -10.340
  51 N   -0.618  -2.915  10.340
  52 N    0.618   2.915  10.340
  53 N   -6.142   6.505   2.834
  54 N    6.142  -6.505   2.834
  55 N    6.505   6.142  -2.834
  56 N   -6.505  -6.142  -2.834
  57 N   -1.585  -2.519   2.711
  58 N    1.585   2.519   2.711
  59 N   -2.519   1.585  -2.711
  60 N    2.519  -1.585  -2.711
  61 ZN   0.000   9.598 -18.842
                               1097 S  
                                         8.200E+04 1.421E-03 0.000E+00 0.000E+00
                                         1.231E+04 1.089E-02 0.000E+00 0.000E+00
                                         2.801E+03 5.406E-02 0.000E+00 0.000E+00
                                         7.910E+02 1.885E-01 0.000E+00 0.000E+00
                                         2.576E+02 3.835E-01 0.000E+00 0.000E+00
                                         8.881E+01 2.972E-01 0.000E+00 0.000E+00
                               1098 S  
                                         1.719E+02-1.105E-01 0.000E+00 0.000E+00
                                         2.030E+01 6.461E-01 0.000E+00 0.000E+00
                                         8.346E+00 4.422E-01 0.000E+00 0.000E+00
                               1099 S  
                                         1.485E+01-2.271E-01 0.000E+00 0.000E+00
                                         2.450E+00 7.243E-01 0.000E+00 0.000E+00
                                         9.985E-01 4.484E-01 0.000E+00 0.000E+00
                               1100 S  
                                         1.493E+00 1.000E+00 0.000E+00 0.000E+00
                               1101 S  
                                         1.830E-01 1.000E+00 0.000E+00 0.000E+00
                        1102-  1104 P  
                                         1.072E+03 0.000E+00 9.277E-03 0.000E+00
                                         2.527E+02 0.000E+00 6.954E-02 0.000E+00
                                         8.010E+01 0.000E+00 2.716E-01 0.000E+00
                                         2.890E+01 0.000E+00 5.340E-01 0.000E+00
                                         1.077E+01 0.000E+00 3.450E-01 0.000E+00
                        1105-  1107 P  
                                         5.645E+00 0.000E+00 3.413E-01 0.000E+00
                                         2.168E+00 0.000E+00 5.639E-01 0.000E+00
                                         8.054E-01 0.000E+00 2.368E-01 0.000E+00
                        1108-  1110 P  
                                         2.721E-01 0.000E+00 1.000E+00 0.000E+00
                        1111-  1115 D  
                                         5.609E+01 0.000E+00 0.000E+00 2.959E-02
                                         1.575E+01 0.000E+00 0.000E+00 1.587E-01
                                         5.312E+00 0.000E+00 0.000E+00 3.798E-01
                                         1.774E+00 0.000E+00 0.000E+00 4.690E-01
                        1116-  1120 D  
                                         5.073E-01 0.000E+00 0.000E+00 1.000E+00
                        1121-  1127 F  
                                         2.814E+00 0.000E+00 0.000E+00 1.000E+00
                        1128-  1134 F  
                                         1.300E+00 0.000E+00 0.000E+00 1.000E+00
  62 ZN   0.000   0.000  12.561

 *******************************************************************************
 FINISHED BASIS SET HANDLING 
 *******************************************************************************

 INFORMATION **** SET_MPP **** PCRYSTAL CALCULATION
 INFORMATION **** READM2 **** NEW DEFAULT: FOCK/KS MATRIX MIXING SET TO 30 %
 INFORMATION **** READM2 **** NEW DEFAULT: FULL DIRECT SCF MODE
 INFORMATION **** READM2 **** NEW DEFAULT: COULOMB BIPOLAR BUFFER SET TO 32 Mb
 INFORMATION **** READM2 **** NEW DEFAULT: EXCHANGE BIPOLAR BUFFER SET TO 32 Mb

 *******************************************************************************
 NEW DEFAULT: DFT INTEGRATION GRID INCREASED TO XLGRID
 NEW DEFAULT: DIIS ACCELERATOR ACTIVE
 USE KEYWORD NODIIS TO TURN IT OFF
 *******************************************************************************

 INFORMATION **** DFTD3_INPUT **** PERFORM DISPERSION CORRECTION DFT-D3(BJ) IN THE BECKE-JOHNSON DAMPING SCHEME

 PLEASE CITE:
 (1) DFT-D3 Reference
  S. Grimme, J. Antony, S. Ehrlich, and H. Krieg, J. Chem. Phys. 132 (2010), 154104
 (2) BJ-Damping Reference
  S. Grimme, S. Ehrlich, and L. Goerigk, J. Comput. Chem. 32 (2011), 1456-1465
 (3) General DFT-D Review
  S. Grimme, A. Hansen, J. G. Brandenburg, and C. Bannwarth,
  Chem. Rev. 116 (2016), 5105-5154

 INFORMATION **** BIPOSIZE **** COULOMB BIPOLAR BUFFER SET TO    30000000
 INFORMATION **** EXCHSIZE **** EXCHANGE BIPOLAR BUFFER SIZE SET TO    30000000
 INFORMATION **** TOLINTEG **** COULOMB AND EXCHANGE SERIES TOLERANCES MODIFIED
 INFORMATION **** MAXCYCLE **** MAX NUMBER OF SCF CYCLES SET TO          50
 *******************************************************************************
 N. OF ATOMS PER CELL        62  COULOMB OVERLAP TOL         (T1) 10**  -12
 NUMBER OF SHELLS           448  COULOMB PENETRATION TOL     (T2) 10**  -12
 NUMBER OF AO              1172  EXCHANGE OVERLAP TOL        (T3) 10**   20
 N. OF ELECTRONS PER CELL   632  EXCHANGE PSEUDO OVP (F(G))  (T4) 10**   20
 CORE ELECTRONS PER CELL    348  EXCHANGE PSEUDO OVP (P(G))  (T5) 10**   20
 N. OF SYMMETRY OPERATORS     4  POLE ORDER IN MONO ZONE                  4
 *******************************************************************************
 TYPE OF CALCULATION :  RESTRICTED CLOSED SHELL
 KOHN-SHAM HAMILTONIAN

 (EXCHANGE)[CORRELATION] FUNCTIONAL:(PERDEW-BURKE-ERNZERHOF)[PERDEW-BURKE-ERNZERHOF]


 CAPPA:IS1  3;IS2  3;IS3  3; K PTS MONK NET   6; SYMMOPS:K SPACE   8;G SPACE   4

 *******************************************************************************
 MAX NUMBER OF SCF CYCLES      50  CONVERGENCE ON DELTAP        10**-16
 WEIGHT OF F(I) IN F(I+1)      30% CONVERGENCE ON ENERGY        10**- 7
 SHRINK. FACT.(MONKH.)    3  3  3  NUMBER OF K POINTS IN THE IBZ      6
 SHRINKING FACTOR(GILAT NET)    3  NUMBER OF K POINTS(GILAT NET)      6
 *******************************************************************************
 *** K POINTS COORDINATES (OBLIQUE COORDINATES IN UNITS OF IS =  3)
   1-R(  0  0  0)   2-C(  1  0  0)   3-C(  1  1  0)   4-C(  2  1  0)
   5-C(  2  1  1)   6-C(  2  2  1)

 DIRECT LATTICE VECTORS COMPON. (A.U.)     RECIP. LATTICE VECTORS COMPON. (A.U.) 
        X            Y            Z              X            Y            Z
   -9.5979190    9.5979190   12.5610096      0.0000000    0.3273202    0.2501067
    9.5979190   -9.5979190   12.5610096      0.3273202    0.0000000    0.2501067
    9.5979190    9.5979190  -12.5610096      0.3273202    0.3273202    0.0000000

 DISK SPACE FOR EIGENVECTORS (FTN 10)    15109424 REALS

 SYMMETRY ADAPTION OF THE BLOCH FUNCTIONS ENABLED
 TTTTTTTTTTTTTTTTTTTTTTTTTTTTTT gordsh1     TELAPSE        1.23 TCPU        0.04

 MATRIX SIZE: P(G) 2367684, F(G) 1184956, P(G) IRR  299080, F(G) IRR  299080
 MAX G-VECTOR INDEX FOR 1- AND 2-ELECTRON INTEGRALS  63

 TTTTTTTTTTTTTTTTTTTTTTTTTTTTTT INPUT       TELAPSE        1.34 TCPU        0.16

 NEIGHBORS OF THE NON-EQUIVALENT ATOMS

 N = NUMBER OF NEIGHBORS AT DISTANCE R
    ATOM  N     R/ANG      R/AU   NEIGHBORS (ATOM LABELS AND CELL INDICES)
   1 H    1     1.0950     2.0692   25 C    0 0 1
   1 H    1     2.1707     4.1021   38 C    0 0 1
   1 H    1     2.1834     4.1260   17 C    0 0 1
   1 H    1     2.5186     4.7595    9 H    0 0 1
   1 H    1     2.5548     4.8279   54 N    0-1 0
   1 H    1     2.7928     5.2776   21 C    0 0 1

   5 BR   1     1.0945     2.0684   33 C    0 0 0
   5 BR   1     2.0667     3.9055   57 N    0 0 0
   5 BR   1     2.1759     4.1119   17 C    0 0 0
   5 BR   1     2.5126     4.7480   46 N    0 0 0
   5 BR   1     2.5429     4.8053   42 N    0 0 0
   5 BR   1     2.6801     5.0646   21 C    0 0 0

   9 H    1     1.0933     2.0660   38 C    0 0 0
   9 H    1     2.1620     4.0855   29 C    0 0 0
   9 H    1     2.1723     4.1051   25 C    0 0 0
   9 H    1     2.1857     4.1305   10 H    0-1-1
   9 H    1     2.5186     4.7595    1 H    0 0-1
   9 H    1     2.5285     4.7782   13 BR   0 0 0

  13 BR   1     1.0959     2.0709   29 C    0 0 0
  13 BR   1     2.0715     3.9145   57 N    0 0 0
  13 BR   1     2.1965     4.1508   38 C    0 0 0
  13 BR   1     2.5285     4.7782    9 H    0 0 0
  13 BR   1     2.5654     4.8479   58 N    0 0 0
  13 BR   1     2.9124     5.5037   45 N    0 0 0

  17 C    1     1.4070     2.6588   25 C    0 0 0
  17 C    1     1.4077     2.6602   33 C    0 0 0
  17 C    1     1.4594     2.7579   21 C    0 0 0
  17 C    1     2.1759     4.1119    5 BR   0 0 0
  17 C    1     2.1834     4.1260    1 H    0 0-1
  17 C    1     2.4067     4.5479   38 C    0 0 0

  21 C    1     1.3492     2.5496   49 N    0 0-1
  21 C    1     1.3553     2.5611   41 N   -1 0-1
  21 C    1     1.4594     2.7579   17 C    0 0 0
  21 C    1     2.2025     4.1620   53 N   -1 0-1
  21 C    1     2.2049     4.1667   45 N   -1 0-1
  21 C    1     2.4633     4.6549   33 C    0 0 0

  25 C    1     1.0950     2.0692    1 H    0 0-1
  25 C    1     1.3970     2.6400   38 C    0 0 0
  25 C    1     1.4070     2.6588   17 C    0 0 0
  25 C    1     2.1723     4.1051    9 H    0 0 0
  25 C    1     2.4118     4.5577   33 C    0 0 0
  25 C    1     2.4219     4.5767   29 C    0 0 0

  29 C    1     1.0959     2.0709   13 BR   0 0 0
  29 C    1     1.3493     2.5497   57 N    0 0 0
  29 C    1     1.4046     2.6543   38 C    0 0 0
  29 C    1     2.1620     4.0855    9 H    0 0 0
  29 C    1     2.3056     4.3570   33 C    0 0 0
  29 C    1     2.4219     4.5767   25 C    0 0 0

  33 C    1     1.0945     2.0684    5 BR   0 0 0
  33 C    1     1.3387     2.5298   57 N    0 0 0
  33 C    1     1.4077     2.6602   17 C    0 0 0
  33 C    1     2.3056     4.3570   29 C    0 0 0
  33 C    1     2.4118     4.5577   25 C    0 0 0
  33 C    1     2.4633     4.6549   21 C    0 0 0

  37 C    1     1.0933     2.0660   10 H    0 0 0
  37 C    1     1.3970     2.6400   26 C    0 0 0
  37 C    1     1.4046     2.6543   30 C    0 0 0
  37 C    1     2.1707     4.1021    2 H    1 1 1
  37 C    1     2.1965     4.1508   14 BR   0 0 0
  37 C    1     2.4067     4.5479   18 C    0 0 0

  41 N    1     1.3553     2.5611   21 C    1 0 1
  41 N    1     1.3781     2.6042   45 N    0 0 0
  41 N    1     1.9919     3.7642   61 ZN   1 1 0
  41 N    1     2.1855     4.1299   53 N    0 0 0
  41 N    1     2.1874     4.1336   49 N    1 0 0
  41 N    1     2.4882     4.7020   17 C    1 0 1

  45 N    1     1.3160     2.4870   53 N    0 0 0
  45 N    1     1.3781     2.6042   41 N    0 0 0
  45 N    1     2.1869     4.1326   49 N    1 0 0
  45 N    1     2.2049     4.1667   21 C    1 0 1
  45 N    1     2.5126     4.7480    6 BR   0 0 0
  45 N    1     2.9124     5.5037   13 BR   0 0 0

  49 N    1     1.3492     2.5496   21 C    0 0 1
  49 N    1     1.3792     2.6063   53 N   -1 0 0
  49 N    1     1.9667     3.7164   62 ZN  -1-1 0
  49 N    1     2.1869     4.1326   45 N   -1 0 0
  49 N    1     2.1874     4.1336   41 N   -1 0 0
  49 N    1     2.5229     4.7676   17 C    0 0 1

  53 N    1     1.3160     2.4870   45 N    0 0 0
  53 N    1     1.3792     2.6063   49 N    1 0 0
  53 N    1     2.1855     4.1299   41 N    0 0 0
  53 N    1     2.2025     4.1620   21 C    1 0 1
  53 N    1     2.5548     4.8279    2 H    1 0 0
  53 N    1     2.8762     5.4352   62 ZN   0-1 0

  57 N    1     1.3387     2.5298   33 C    0 0 0
  57 N    1     1.3493     2.5497   29 C    0 0 0
  57 N    1     2.0667     3.9055    5 BR   0 0 0
  57 N    1     2.0715     3.9145   13 BR   0 0 0
  57 N    1     2.4105     4.5552   38 C    0 0 0
  57 N    1     2.4226     4.5781   17 C    0 0 0

  61 ZN   4     1.9919     3.7642   41 N   -1-1 0   42 N    0-1 1   43 N    0-1 0
                                    44 N    0 0 1
  61 ZN   4     2.7756     5.2452    5 BR   0-1 1    6 BR  -1-1 0    7 BR   0 0 1
                                     8 BR   0-1 0
  61 ZN   4     2.9319     5.5406   45 N   -1-1 0   46 N    0-1 1   47 N    0-1 0
                                    48 N    0 0 1
  61 ZN   4     3.0692     5.7999   21 C    0-1 1   22 C   -1-1 0   23 C    0 0 1
                                    24 C    0-1 0
  61 ZN   4     3.2996     6.2354   33 C    0-1 1   34 C   -1-1 0   35 C    0 0 1
                                    36 C    0-1 0
  61 ZN   4     3.5259     6.6629   17 C    0-1 1   18 C   -1-1 0   19 C    0 0 1
                                    20 C    0-1 0

  62 ZN   4     1.9667     3.7164   49 N    1 1 0   50 N    1 1 0   51 N    0 0 0
                                    52 N    0 0 0
  62 ZN   4     2.8762     5.4352   53 N    0 1 0   54 N    1 0 0   55 N    0 0-1
                                    56 N    1 1 1
  62 ZN   4     3.0639     5.7900   21 C    1 1 1   22 C    0 0-1   23 C    0 1 0
                                    24 C    1 0 0
  62 ZN   4     3.0753     5.8115    1 H    1 1 0    2 H    1 1 0    3 H    0 0 0
                                     4 H    0 0 0
  62 ZN   4     3.6307     6.8610   25 C    1 1 1   26 C    0 0-1   27 C    0 1 0
                                    28 C    1 0 0
  62 ZN   4     3.6327     6.8649   17 C    1 1 1   18 C    0 0-1   19 C    0 1 0
                                    20 C    1 0 0


 SYMMETRY ALLOWED ELASTIC DISTORTION 1
  0.5773503  0.0000000  0.0000000
  0.0000000  0.5773503  0.0000000
  0.0000000  0.0000000  0.5773503

 SYMMETRY ALLOWED ELASTIC DISTORTION 2
  0.4082483  0.0000000  0.0000000
  0.0000000  0.4082483  0.0000000
  0.0000000  0.0000000 -0.8164966

 SYMMETRY ALLOWED INTERNAL DEGREE(S) OF FREEDOM:  45
 TTTTTTTTTTTTTTTTTTTTTTTTTTTTTT SYMM        TELAPSE        1.64 TCPU        0.43
 TTTTTTTTTTTTTTTTTTTTTTTTTTTTTT INT_SCREEN  TELAPSE        1.67 TCPU        0.46

 *******************************************************************************
 *                             OPTIMIZATION STARTS                             *
 *******************************************************************************
 RECLASIFICATION OF INDICES FOR INTEGRAL CALC ACCORDING TO DIFFERENT CRITERIA:
           FIXDELTE                  FIXDELTX              FIXDELTN
          0.10000000               0.80000000                 47
 DEFAULT MAX NUM OF POINTS  100
 *******************************************************************************

 *******************************************************************************
 COORDINATE AND CELL OPTIMIZATION - POINT    1
 INFORMATION **** EXCBUF **** EXCH. BIPO BUFFER: WORDS USED =           0

 DFT PARAMETERS

     ATOM       ELECTRONS   NET CHARGE   R(ANGSTROM)
   1   1  H       1.0000      0.0000     1.11000000
   5  35  BR     35.0000      0.0000     1.14000000
  17   6  C       6.0000      0.0000     0.77000000
  41   7  N       7.0000      0.0000     0.74000000
  61  30  ZN     30.0000      0.0000     1.37000000

 SIZE OF GRID=     439804
 TTTTTTTTTTTTTTTTTTTTTTTTTTTTTT MAKE_GRID2  TELAPSE        8.34 TCPU        7.10
 BECKE WEIGHT FUNCTION
 RADSAFE =     2.00
 TOLERANCES - DENSITY:10**- 6; POTENTIAL:10**- 9; GRID WGT:10**-14

 RADIAL INTEGRATION  - INTERVALS (POINTS,UPPER LIMIT):            1( 75,  4.0*R)

 ANGULAR INTEGRATION - INTERVALS (ACCURACY LEVEL [N. POINTS] UPPER LIMIT):
  1(  4[  86]   0.2)  2(  8[ 194]   0.5)  3( 12[ 350]   0.9)  4( 16[ 974]   3.5)
  5( 12[ 350]9999.0)
 TTTTTTTTTTTTTTTTTTTTTTTTTTTTTT INT_CALC    TELAPSE        8.50 TCPU        7.26

 *******************************************************************************
 C:\Users\wilso\AppData\Local\Temp\tmp_p\newconn.mol                             
 CRYSTAL - SCF - TYPE OF CALCULATION :  RESTRICTED CLOSED SHELL
 *******************************************************************************

 CAPPA:IS1  3;IS2  3;IS3  3; K PTS MONK NET   6; SYMMOPS:K SPACE   8;G SPACE   4

 TTTTTTTTTTTTTTTTTTTTTTTTTTTTTT SDIK        TELAPSE        8.83 TCPU        7.59

 AAAAAAAAAAAAAAAAAAAAAAAAAAAAAAAAAAAAAAAAAAAAAAAAAAAAAAAAAAAAAAAAAAAAAAAAAAAAAAA
         ATOMIC WAVEFUNCTION(S)


 NUCLEAR CHARGE  1.0  SYMMETRY SPECIES            S
 N. ELECTRONS    1.0  NUMBER OF PRIMITIVE GTOS    4
                      NUMBER OF CONTRACTED GTOS   2
                      NUMBER OF CLOSED SHELLS     0
                      OPEN SHELL OCCUPATION       1

  ZNUC SCFIT  TOTAL HF ENERGY   KINETIC ENERGY   VIRIAL THEOREM ACCURACY
   1.0   1   -4.946643675E-01  4.917913167E-01 -2.005842012E+00  9.4E-17

 NUCLEAR CHARGE 35.0  SYMMETRY SPECIES            S    P    D
 N. ELECTRONS   35.0  NUMBER OF PRIMITIVE GTOS   14   10    7
                      NUMBER OF CONTRACTED GTOS   5    4    4
                      NUMBER OF CLOSED SHELLS     4    2    1
                      OPEN SHELL OCCUPATION       0    5    0

  ZNUC SCFIT  TOTAL HF ENERGY   KINETIC ENERGY   VIRIAL THEOREM ACCURACY
  35.0  13   -2.572060514E+03  2.572021521E+03 -2.000015161E+00  3.6E-06

 NUCLEAR CHARGE  6.0  SYMMETRY SPECIES            S    P
 N. ELECTRONS    6.0  NUMBER OF PRIMITIVE GTOS    7    4
                      NUMBER OF CONTRACTED GTOS   3    2
                      NUMBER OF CLOSED SHELLS     2    0
                      OPEN SHELL OCCUPATION       0    2

  ZNUC SCFIT  TOTAL HF ENERGY   KINETIC ENERGY   VIRIAL THEOREM ACCURACY
   6.0   6   -3.750912652E+01  3.905246519E+01 -1.960480378E+00  3.7E-06

 NUCLEAR CHARGE  7.0  SYMMETRY SPECIES            S    P
 N. ELECTRONS    7.0  NUMBER OF PRIMITIVE GTOS    7    4
                      NUMBER OF CONTRACTED GTOS   3    2
                      NUMBER OF CLOSED SHELLS     2    0
                      OPEN SHELL OCCUPATION       0    3

  ZNUC SCFIT  TOTAL HF ENERGY   KINETIC ENERGY   VIRIAL THEOREM ACCURACY
   7.0   9   -5.432196661E+01  5.425066284E+01 -2.001314339E+00  1.2E-06

 NUCLEAR CHARGE 30.0  SYMMETRY SPECIES            S    P    D
 N. ELECTRONS   30.0  NUMBER OF PRIMITIVE GTOS   14    9    5
                      NUMBER OF CONTRACTED GTOS   5    3    2
                      NUMBER OF CLOSED SHELLS     4    2    1
                      OPEN SHELL OCCUPATION       0    0    0

  ZNUC SCFIT  TOTAL HF ENERGY   KINETIC ENERGY   VIRIAL THEOREM ACCURACY
  30.0  10   -1.777404290E+03  1.777325716E+03 -2.000044209E+00  2.5E-06

 AAAAAAAAAAAAAAAAAAAAAAAAAAAAAAAAAAAAAAAAAAAAAAAAAAAAAAAAAAAAAAAAAAAAAAAAAAAAAAA

 CHARGE NORMALIZATION FACTOR   1.00000000
 TOTAL ATOMIC CHARGES:
   1.0000000   1.0000000   1.0000000   1.0000000  35.0000000  35.0000000
  35.0000000  35.0000000   1.0000000   1.0000000   1.0000000   1.0000000
  35.0000000  35.0000000  35.0000000  35.0000000   6.0000000   6.0000000
   6.0000000   6.0000000   6.0000000   6.0000000   6.0000000   6.0000000
   6.0000000   6.0000000   6.0000000   6.0000000   6.0000000   6.0000000
   6.0000000   6.0000000   6.0000000   6.0000000   6.0000000   6.0000000
   6.0000000   6.0000000   6.0000000   6.0000000   7.0000000   7.0000000
   7.0000000   7.0000000   7.0000000   7.0000000   7.0000000   7.0000000
   7.0000000   7.0000000   7.0000000   7.0000000   7.0000000   7.0000000
   7.0000000   7.0000000   7.0000000   7.0000000   7.0000000   7.0000000
  30.0000000  30.0000000
 TTTTTTTTTTTTTTTTTTTTTTTTTTTTTT MOQGAD      TELAPSE       11.57 TCPU       10.33
 TTTTTTTTTTTTTTTTTTTTTTTTTTTTTT SHELLXN     TELAPSE      136.60 TCPU      126.75
 TTTTTTTTTTTTTTTTTTTTTTTTTTTTTT MONMO3      TELAPSE      148.18 TCPU      138.29
 NUMERICALLY INTEGRATED DENSITY    632.0000128458
 TTTTTTTTTTTTTTTTTTTTTTTTTTTTTT NUMDFT      TELAPSE      151.07 TCPU      141.17
 CYC   0 ETOT(AU) -2.617409045042E+04 DETOT -2.62E+04 tst  0.00E+00 PX  1.00E+00
 TTTTTTTTTTTTTTTTTTTTTTTTTTTTTT DIIS        TELAPSE      151.18 TCPU      141.28
 TTTTTTTTTTTTTTTTTTTTTTTTTTTTTT FDIK        TELAPSE      216.71 TCPU      198.09
 INSULATING STATE
 TOP OF VALENCE BANDS -    BAND    316; K    4; EIG -1.3228238E-01 AU
 TOP OF VALENCE BANDS -    BAND    316; K    1; EIG -1.3252535E-01 AU
 BOTTOM OF VIRTUAL BANDS - BAND    317; K    6; EIG -1.1131455E-01 AU
 INDIRECT ENERGY BAND GAP:   0.5706 eV
 BOTTOM OF VIRTUAL BANDS - BAND    317; K    1; EIG -1.1033380E-01 AU
 TTTTTTTTTTTTTTTTTTTTTTTTTTTTTT PDIG        TELAPSE      217.82 TCPU      199.20
 CHARGE NORMALIZATION FACTOR   1.00000000
 TOTAL ATOMIC CHARGES:
   1.2102704   1.2102704   1.2102704   1.2102704  34.1755799  34.1755799
  34.1755799  34.1755799   1.1376815   1.1376815   1.1376815   1.1376815
  34.0532797  34.0532797  34.0532797  34.0532797   6.1221100   6.1221100
   6.1221100   6.1221100   5.5036977   5.5036977   5.5036977   5.5036977
   6.0560197   6.0560197   6.0560197   6.0560197   6.5792879   6.5792879
   6.5792879   6.5792879   6.6848231   6.6848231   6.6848231   6.6848231
   6.0736200   6.0736200   6.0736200   6.0736200   7.3880915   7.3880915
   7.3880915   7.3880915   7.1760298   7.1760298   7.1760298   7.1760298
   7.3796668   7.3796668   7.3796668   7.3796668   7.1765035   7.1765035
   7.1765035   7.1765035   7.4910125   7.4910125   7.4910125   7.4910125
  27.3639589  27.8053457
 TTTTTTTTTTTTTTTTTTTTTTTTTTTTTT MOQGAD      TELAPSE      217.89 TCPU      199.26
 TTTTTTTTTTTTTTTTTTTTTTTTTTTTTT SHELLXN     TELAPSE      356.38 TCPU      334.91
 TTTTTTTTTTTTTTTTTTTTTTTTTTTTTT MONMO3      TELAPSE      367.15 TCPU      345.64
 NUMERICALLY INTEGRATED DENSITY    631.9999890652
 TTTTTTTTTTTTTTTTTTTTTTTTTTTTTT NUMDFT      TELAPSE      375.78 TCPU      354.24
 CYC   1 ETOT(AU) -2.614422043529E+04 DETOT  2.99E+01 tst  0.00E+00 PX  1.00E+00
 TTTTTTTTTTTTTTTTTTTTTTTTTTTTTT DIIS        TELAPSE      376.03 TCPU      354.48
 DIIS TEST: 0.21389E+02 AT SCF   CYCLE   1 - MIX   30 %
 TTTTTTTTTTTTTTTTTTTTTTTTTTTTTT FDIK        TELAPSE      391.67 TCPU      369.99
 INSULATING STATE
 TOP OF VALENCE BANDS -    BAND    316; K    6; EIG -8.1246817E-02 AU
 TOP OF VALENCE BANDS -    BAND    316; K    1; EIG -8.3461204E-02 AU
 BOTTOM OF VIRTUAL BANDS - BAND    317; K    3; EIG -7.6898826E-02 AU
 INDIRECT ENERGY BAND GAP:   0.1183 eV
 BOTTOM OF VIRTUAL BANDS - BAND    317; K    1; EIG -6.8466017E-02 AU
 TTTTTTTTTTTTTTTTTTTTTTTTTTTTTT PDIG        TELAPSE      392.77 TCPU      371.09
 CHARGE NORMALIZATION FACTOR   1.00000000
 TOTAL ATOMIC CHARGES:
   1.2778356   1.2778356   1.2778356   1.2778356  35.3761106  35.3761106
  35.3761106  35.3761106   1.2033094   1.2033094   1.2033094   1.2033094
  34.1805136  34.1805136  34.1805136  34.1805136   6.1955641   6.1955641
   6.1955641   6.1955641   6.5584357   6.5584357   6.5584357   6.5584357
   6.0795439   6.0795439   6.0795439   6.0795439   6.2214968   6.2214968
   6.2214968   6.2214968   6.2627121   6.2627121   6.2627121   6.2627121
   5.5251812   5.5251812   5.5251812   5.5251812   7.7675103   7.7675103
   7.7675103   7.7675103   7.1874261   7.1874261   7.1874261   7.1874261
   7.0621256   7.0621256   7.0621256   7.0621256   6.7688257   6.7688257
   6.7688257   6.7688257   4.7256174   4.7256174   4.7256174   4.7256174
  32.5961841  29.8349830
 TTTTTTTTTTTTTTTTTTTTTTTTTTTTTT MOQGAD      TELAPSE      392.84 TCPU      371.16
 TTTTTTTTTTTTTTTTTTTTTTTTTTTTTT SHELLXN     TELAPSE      529.99 TCPU      505.51
 TTTTTTTTTTTTTTTTTTTTTTTTTTTTTT MONMO3      TELAPSE      545.38 TCPU      520.86
 NUMERICALLY INTEGRATED DENSITY    631.9999752083
 TTTTTTTTTTTTTTTTTTTTTTTTTTTTTT NUMDFT      TELAPSE      554.11 TCPU      529.56
 CYC   2 ETOT(AU) -2.612784116911E+04 DETOT  1.64E+01 tst  5.03E-01 PX  4.42E+00
 TTTTTTTTTTTTTTTTTTTTTTTTTTTTTT DIIS        TELAPSE      554.36 TCPU      529.80
 DIIS TEST: 0.13337E+03 AT SCF   CYCLE   2 - DIIS ACTIVE - HISTORY:     2 CYCLES
 TTTTTTTTTTTTTTTTTTTTTTTTTTTTTT FDIK        TELAPSE      573.44 TCPU      547.02
 INSULATING STATE
 TOP OF VALENCE BANDS -    BAND    316; K    1; EIG -1.3191835E-01 AU
 BOTTOM OF VIRTUAL BANDS - BAND    317; K    1; EIG -1.0528186E-01 AU
 DIRECT ENERGY BAND GAP:   0.7248 eV
 TTTTTTTTTTTTTTTTTTTTTTTTTTTTTT PDIG        TELAPSE      574.56 TCPU      548.14
 CHARGE NORMALIZATION FACTOR   1.00000000
 TOTAL ATOMIC CHARGES:
   1.2499073   1.2499073   1.2499073   1.2499073  34.7039815  34.7039815
  34.7039815  34.7039815   1.0464758   1.0464758   1.0464758   1.0464758
  35.2883782  35.2883782  35.2883782  35.2883782   5.7692858   5.7692858
   5.7692858   5.7692858   6.1242191   6.1242191   6.1242191   6.1242191
   5.9696086   5.9696086   5.9696086   5.9696086   6.4491502   6.4491502
   6.4491502   6.4491502   5.9471293   5.9471293   5.9471293   5.9471293
   5.7874540   5.7874540   5.7874540   5.7874540   6.2549708   6.2549708
   6.2549708   6.2549708   6.9541432   6.9541432   6.9541432   6.9541432
   6.7657199   6.7657199   6.7657199   6.7657199   7.0768415   7.0768415
   7.0768415   7.0768415   7.6101327   7.6101327   7.6101327   7.6101327
  30.0852027  29.9252057
 TTTTTTTTTTTTTTTTTTTTTTTTTTTTTT MOQGAD      TELAPSE      574.62 TCPU      548.20
 TTTTTTTTTTTTTTTTTTTTTTTTTTTTTT SHELLXN     TELAPSE      709.82 TCPU      682.92
 TTTTTTTTTTTTTTTTTTTTTTTTTTTTTT MONMO3      TELAPSE      724.30 TCPU      697.35
 NUMERICALLY INTEGRATED DENSITY    632.0000196848
 TTTTTTTTTTTTTTTTTTTTTTTTTTTTTT NUMDFT      TELAPSE      732.89 TCPU      705.91
 CYC   3 ETOT(AU) -2.614283749400E+04 DETOT -1.50E+01 tst  3.09E-01 PX  3.55E+00
 TTTTTTTTTTTTTTTTTTTTTTTTTTTTTT DIIS        TELAPSE      733.14 TCPU      706.16
 DIIS TEST: 0.26377E+02 AT SCF   CYCLE   3 - DIIS ACTIVE - HISTORY:     3 CYCLES
 TTTTTTTTTTTTTTTTTTTTTTTTTTTTTT FDIK        TELAPSE      750.95 TCPU      723.82
 INSULATING STATE
 TOP OF VALENCE BANDS -    BAND    316; K    1; EIG -1.3311952E-01 AU
 BOTTOM OF VIRTUAL BANDS - BAND    317; K    4; EIG -8.4735954E-02 AU
 INDIRECT ENERGY BAND GAP:   1.3166 eV
 BOTTOM OF VIRTUAL BANDS - BAND    317; K    1; EIG -8.1945372E-02 AU
 TTTTTTTTTTTTTTTTTTTTTTTTTTTTTT PDIG        TELAPSE      752.05 TCPU      724.91
 CHARGE NORMALIZATION FACTOR   1.00000000
 TOTAL ATOMIC CHARGES:
   1.1488352   1.1488352   1.1488352   1.1488352  34.6676646  34.6676646
  34.6676646  34.6676646   1.0934548   1.0934548   1.0934548   1.0934548
  34.3798829  34.3798829  34.3798829  34.3798829   6.3481705   6.3481705
   6.3481705   6.3481705   5.7100544   5.7100544   5.7100544   5.7100544
   6.0873185   6.0873185   6.0873185   6.0873185   6.0343687   6.0343687
   6.0343687   6.0343687   6.2813996   6.2813996   6.2813996   6.2813996
   6.0793314   6.0793314   6.0793314   6.0793314   7.4419169   7.4419169
   7.4419169   7.4419169   7.1314761   7.1314761   7.1314761   7.1314761
   7.1104498   7.1104498   7.1104498   7.1104498   6.9807369   6.9807369
   6.9807369   6.9807369   7.1197208   7.1197208   7.1197208   7.1197208
  28.7332768  28.8075989
 TTTTTTTTTTTTTTTTTTTTTTTTTTTTTT MOQGAD      TELAPSE      752.12 TCPU      724.98
 TTTTTTTTTTTTTTTTTTTTTTTTTTTTTT SHELLXN     TELAPSE      889.15 TCPU      859.39
 TTTTTTTTTTTTTTTTTTTTTTTTTTTTTT MONMO3      TELAPSE      904.45 TCPU      874.62
 NUMERICALLY INTEGRATED DENSITY    631.9999761149
 TTTTTTTTTTTTTTTTTTTTTTTTTTTTTT NUMDFT      TELAPSE      913.15 TCPU      883.28
 CYC   4 ETOT(AU) -2.614692216233E+04 DETOT -4.08E+00 tst  8.91E-02 PX  8.48E-01
 TTTTTTTTTTTTTTTTTTTTTTTTTTTTTT DIIS        TELAPSE      913.39 TCPU      883.52
 DIIS TEST: 0.31488E+01 AT SCF   CYCLE   4 - DIIS ACTIVE - HISTORY:     4 CYCLES
 TTTTTTTTTTTTTTTTTTTTTTTTTTTTTT FDIK        TELAPSE      932.08 TCPU      900.44
 INSULATING STATE
 TOP OF VALENCE BANDS -    BAND    316; K    1; EIG -1.3913222E-01 AU
 BOTTOM OF VIRTUAL BANDS - BAND    317; K    4; EIG -8.8320854E-02 AU
 INDIRECT ENERGY BAND GAP:   1.3826 eV
 BOTTOM OF VIRTUAL BANDS - BAND    317; K    1; EIG -8.3654815E-02 AU
 TTTTTTTTTTTTTTTTTTTTTTTTTTTTTT PDIG        TELAPSE      933.21 TCPU      901.56
 CHARGE NORMALIZATION FACTOR   1.00000000
 TOTAL ATOMIC CHARGES:
   1.1932690   1.1932690   1.1932690   1.1932690  34.6378712  34.6378712
  34.6378712  34.6378712   1.1011474   1.1011474   1.1011474   1.1011474
  34.4555433  34.4555433  34.4555433  34.4555433   5.9519326   5.9519326
   5.9519326   5.9519326   5.8148277   5.8148277   5.8148277   5.8148277
   6.1087464   6.1087464   6.1087464   6.1087464   6.4482421   6.4482421
   6.4482421   6.4482421   6.3232365   6.3232365   6.3232365   6.3232365
   5.8020372   5.8020372   5.8020372   5.8020372   7.2087836   7.2087836
   7.2087836   7.2087836   7.0751606   7.0751606   7.0751606   7.0751606
   7.2755631   7.2755631   7.2755631   7.2755631   7.1432327   7.1432327
   7.1432327   7.1432327   7.0184751   7.0184751   7.0184751   7.0184751
  28.9450583  28.8226670
 TTTTTTTTTTTTTTTTTTTTTTTTTTTTTT MOQGAD      TELAPSE      933.27 TCPU      901.62
 TTTTTTTTTTTTTTTTTTTTTTTTTTTTTT SHELLXN     TELAPSE     1070.62 TCPU     1036.32
 TTTTTTTTTTTTTTTTTTTTTTTTTTTTTT MONMO3      TELAPSE     1084.99 TCPU     1050.66
 NUMERICALLY INTEGRATED DENSITY    631.9999817302
 TTTTTTTTTTTTTTTTTTTTTTTTTTTTTT NUMDFT      TELAPSE     1093.55 TCPU     1059.20
 CYC   5 ETOT(AU) -2.614722831809E+04 DETOT -3.06E-01 tst  1.86E-03 PX  1.37E-01
 TTTTTTTTTTTTTTTTTTTTTTTTTTTTTT DIIS        TELAPSE     1093.81 TCPU     1059.46
 DIIS TEST: 0.85248E+00 AT SCF   CYCLE   5 - DIIS ACTIVE - HISTORY:     5 CYCLES
 TTTTTTTTTTTTTTTTTTTTTTTTTTTTTT FDIK        TELAPSE     1108.63 TCPU     1074.11
 INSULATING STATE
 TOP OF VALENCE BANDS -    BAND    316; K    1; EIG -1.5067828E-01 AU
 BOTTOM OF VIRTUAL BANDS - BAND    317; K    6; EIG -8.7696145E-02 AU
 INDIRECT ENERGY BAND GAP:   1.7138 eV
 BOTTOM OF VIRTUAL BANDS - BAND    317; K    1; EIG -8.7565048E-02 AU
 TTTTTTTTTTTTTTTTTTTTTTTTTTTTTT PDIG        TELAPSE     1109.74 TCPU     1075.21
 CHARGE NORMALIZATION FACTOR   1.00000000
 TOTAL ATOMIC CHARGES:
   1.1699297   1.1699297   1.1699297   1.1699297  34.6394027  34.6394027
  34.6394027  34.6394027   1.0797525   1.0797525   1.0797525   1.0797525
  34.4591197  34.4591197  34.4591197  34.4591197   6.1504653   6.1504653
   6.1504653   6.1504653   5.8658220   5.8658220   5.8658220   5.8658220
   6.0818029   6.0818029   6.0818029   6.0818029   6.3087609   6.3087609
   6.3087609   6.3087609   6.3054908   6.3054908   6.3054908   6.3054908
   5.9507389   5.9507389   5.9507389   5.9507389   7.2279081   7.2279081
   7.2279081   7.2279081   7.1846659   7.1846659   7.1846659   7.1846659
   6.9866933   6.9866933   6.9866933   6.9866933   6.9635964   6.9635964
   6.9635964   6.9635964   7.1534220   7.1534220   7.1534220   7.1534220
  28.9772465  28.9124687
 TTTTTTTTTTTTTTTTTTTTTTTTTTTTTT MOQGAD      TELAPSE     1109.80 TCPU     1075.28
 TTTTTTTTTTTTTTTTTTTTTTTTTTTTTT SHELLXN     TELAPSE     1246.94 TCPU     1209.85
 TTTTTTTTTTTTTTTTTTTTTTTTTTTTTT MONMO3      TELAPSE     1261.43 TCPU     1224.30
 NUMERICALLY INTEGRATED DENSITY    631.9999852233
 TTTTTTTTTTTTTTTTTTTTTTTTTTTTTT NUMDFT      TELAPSE     1270.06 TCPU     1232.90
 CYC   6 ETOT(AU) -2.614731772497E+04 DETOT -8.94E-02 tst  1.17E-03 PX  8.86E-02
 TTTTTTTTTTTTTTTTTTTTTTTTTTTTTT DIIS        TELAPSE     1270.43 TCPU     1233.27
 DIIS TEST: 0.36812E+00 AT SCF   CYCLE   6 - DIIS ACTIVE - HISTORY:     6 CYCLES
 TTTTTTTTTTTTTTTTTTTTTTTTTTTTTT FDIK        TELAPSE     1284.82 TCPU     1247.54
 INSULATING STATE
 TOP OF VALENCE BANDS -    BAND    316; K    1; EIG -1.4812375E-01 AU
 BOTTOM OF VIRTUAL BANDS - BAND    317; K    6; EIG -8.3669304E-02 AU
 INDIRECT ENERGY BAND GAP:   1.7539 eV
 BOTTOM OF VIRTUAL BANDS - BAND    317; K    1; EIG -8.3175474E-02 AU
[...]
  61 ZN   4     2.9962     5.6619    5 BR   0-1 1    6 BR  -1-1 0    7 BR   0 0 1
                                     8 BR   0-1 0
  61 ZN   4     3.1128     5.8824   45 N   -1-1 0   46 N    0-1 1   47 N    0-1 0
                                    48 N    0 0 1
  61 ZN   4     3.4102     6.4443   21 C    0-1 1   22 C   -1-1 0   23 C    0 0 1
                                    24 C    0-1 0
  61 ZN   4     3.7594     7.1043   33 C    0-1 1   34 C   -1-1 0   35 C    0 0 1
                                    36 C    0-1 0
  61 ZN   4     3.9453     7.4556   17 C    0-1 1   18 C   -1-1 0   19 C    0 0 1
                                    20 C    0-1 0

  62 ZN   4     2.0383     3.8517   49 N    1 1 0   50 N    1 1 0   51 N    0 0 0
                                    52 N    0 0 0
  62 ZN   4     2.8772     5.4371   53 N    0 1 0   54 N    1 0 0   55 N    0 0-1
                                    56 N    1 1 1
  62 ZN   4     3.1794     6.0082    1 H    1 1 0    2 H    1 1 0    3 H    0 0 0
                                     4 H    0 0 0
  62 ZN   4     3.1992     6.0456   21 C    1 1 1   22 C    0 0-1   23 C    0 1 0
                                    24 C    1 0 0
  62 ZN   4     3.7583     7.1022   17 C    1 1 1   18 C    0 0-1   19 C    0 1 0
                                    20 C    1 0 0
  62 ZN   4     3.7607     7.1067   25 C    1 1 1   26 C    0 0-1   27 C    0 1 0
                                    28 C    1 0 0


 FINAL OPTIMIZED GEOMETRY - DIMENSIONALITY OF THE SYSTEM      3
 (NON PERIODIC DIRECTION: LATTICE PARAMETER FORMALLY SET TO 500)
 *******************************************************************************
 LATTICE PARAMETERS (ANGSTROMS AND DEGREES) - BOHR = 0.5291772083 ANGSTROM
 PRIMITIVE CELL - CENTRING CODE 6/0 VOLUME=   831.212351 - DENSITY  2.668 g/cm^3
         A              B              C           ALPHA      BETA       GAMMA 
    10.39127760    10.39127760    10.39127760   116.379305 116.379305  96.394686
 *******************************************************************************
 ATOMS IN THE ASYMMETRIC UNIT   17 - ATOMS IN THE UNIT CELL:   62
     ATOM                 X/A                 Y/B                 Z/C    
 *******************************************************************************
      1 T   1 H    -1.355639614344E-01 -3.094410334767E-01  2.742787505269E-01
      2 F   1 H     4.162802159964E-01 -4.098427119613E-01 -2.742787505269E-01
      3 F   1 H     3.094410334767E-01 -4.162802159964E-01  1.738770720423E-01
      4 F   1 H     4.098427119613E-01  1.355639614344E-01 -1.738770720423E-01
      5 T  35 BR   -2.701158492183E-01  6.890408900691E-02 -3.470371351199E-01
      6 F  35 BR    4.159412241268E-01  7.692128590160E-02  3.470371351199E-01
      7 F  35 BR   -6.890408900691E-02 -4.159412241268E-01 -3.390199382252E-01
      8 F  35 BR   -7.692128590160E-02  2.701158492183E-01  3.390199382252E-01
      9 T   1 H     1.038636553220E-01 -2.685110762286E-01 -4.696040277365E-01
     10 F   1 H     2.010929515078E-01 -4.265323169415E-01  4.696040277365E-01
     11 F   1 H     2.685110762286E-01 -2.010929515078E-01  3.723747315506E-01
     12 F   1 H     4.265323169415E-01 -1.038636553220E-01 -3.723747315506E-01
     13 T  35 BR    2.525401683284E-01 -5.518443104666E-02 -9.230500070387E-02
     14 F  35 BR    3.712056965721E-02  3.448451690323E-01  9.230500070387E-02
     15 F  35 BR    5.518443104666E-02 -3.712056965721E-02  3.077245993751E-01
     16 F  35 BR   -3.448451690323E-01 -2.525401683284E-01 -3.077245993751E-01
     17 T   6 C    -1.922127730384E-01 -1.384497969400E-01  4.337506591326E-01
     18 F   6 C     4.277995439274E-01  3.740365678291E-01 -4.337506591326E-01
     19 F   6 C     1.384497969400E-01 -4.277995439274E-01 -5.376297609837E-02
     20 F   6 C    -3.740365678291E-01  1.922127730384E-01  5.376297609837E-02
     21 T   6 C    -3.131250578360E-01 -1.358553576012E-01  2.933995506704E-01
     22 F   6 C    -4.292549082716E-01  3.934753914936E-01 -2.933995506704E-01
     23 F   6 C     1.358553576012E-01  4.292549082716E-01 -1.772697002348E-01
     24 F   6 C    -3.934753914936E-01  3.131250578360E-01  1.772697002348E-01
     25 T   6 C    -1.031010080178E-01 -2.271845469788E-01  4.056595808502E-01
     26 F   6 C     3.671558721710E-01  4.912394111320E-01 -4.056595808502E-01
     27 F   6 C     2.271845469788E-01 -3.671558721710E-01  1.240835389610E-01
     28 F   6 C    -4.912394111320E-01  1.031010080178E-01 -1.240835389610E-01
     29 T   6 C     6.968614275385E-02 -9.419716039552E-02 -2.871642189397E-01
     30 F   6 C     1.929670585442E-01  3.568503616936E-01  2.871642189397E-01
     31 F   6 C     9.419716039552E-02 -1.929670585442E-01  1.638833031494E-01
     32 F   6 C    -3.568503616936E-01 -6.968614275385E-02 -1.638833031494E-01
     33 T   6 C    -1.453535812429E-01 -4.057781983394E-02 -3.940491459402E-01
     34 F   6 C     3.534713261063E-01  2.486955646973E-01  3.940491459402E-01
     35 F   6 C     4.057781983394E-02 -3.534713261063E-01 -1.047757614090E-01
     36 F   6 C    -2.486955646973E-01  1.453535812429E-01  1.047757614090E-01
     37 T   6 C     2.492214000121E-01  4.838369571755E-01  4.534127886357E-01
     38 F   6 C     3.042416853988E-02 -2.041913886236E-01 -4.534127886357E-01
     39 F   6 C    -4.838369571755E-01 -3.042416853988E-02 -2.346155571634E-01
     40 F   6 C     2.041913886236E-01 -2.492214000121E-01  2.346155571634E-01
     41 T   7 N    -3.276272729459E-01 -5.199767949438E-03  2.981312058033E-01
     42 F   7 N    -3.033309737527E-01  3.742415212508E-01 -2.981312058033E-01
     43 F   7 N     5.199767949438E-03  3.033309737527E-01 -3.224275049965E-01
     44 F   7 N    -3.742415212508E-01  3.276272729459E-01  3.224275049965E-01
     45 T   7 N    -4.438539759312E-01 -5.617647839231E-02  1.329356407895E-01
     46 F   7 N    -1.891121191818E-01  4.232103832794E-01 -1.329356407895E-01
     47 F   7 N     5.617647839231E-02  1.891121191818E-01 -3.876774975389E-01
     48 F   7 N    -4.232103832794E-01  4.438539759312E-01  3.876774975389E-01
     49 T   7 N    -4.187683530603E-01 -2.633161263016E-01  1.316327031400E-01
     50 F   7 N    -3.949488294416E-01  4.495989437997E-01 -1.316327031400E-01
     51 F   7 N     2.633161263016E-01  3.949488294416E-01 -1.554522267587E-01
     52 F   7 N    -4.495989437997E-01  4.187683530603E-01  1.554522267587E-01
     53 T   7 N    -4.983738134833E-01 -2.097136138097E-01  3.314371274487E-02
     54 F   7 N    -2.428573265546E-01  4.684824737718E-01 -3.314371274487E-02
     55 F   7 N     2.097136138097E-01  2.428573265546E-01 -2.886601996735E-01
     56 F   7 N    -4.684824737718E-01  4.983738134833E-01  2.886601996735E-01
     57 T   7 N    -1.972602361795E-02 -1.816921461933E-02 -2.589532966755E-01
     58 F   7 N     2.407840820562E-01  2.392272730576E-01  2.589532966755E-01
     59 F   7 N     1.816921461933E-02 -2.407840820562E-01 -1.556808998620E-03
     60 F   7 N    -2.392272730576E-01  1.972602361795E-02  1.556808998620E-03
     61 T  30 ZN   -2.500000000000E-01  2.500000000000E-01 -5.000000000000E-01
     62 T  30 ZN    5.000000000000E-01  5.000000000000E-01  1.499943102029E-19

 TRANSFORMATION MATRIX PRIMITIVE-CRYSTALLOGRAPHIC CELL
  0.0000  1.0000  1.0000  1.0000  0.0000  1.0000  1.0000  1.0000  0.0000

 *******************************************************************************
 CRYSTALLOGRAPHIC CELL (VOLUME=       1662.42470157)
         A              B              C           ALPHA      BETA       GAMMA 
    10.95467766    10.95467766    13.85296629    90.000000  90.000000  90.000000

 COORDINATES IN THE CRYSTALLOGRAPHIC CELL
     ATOM                 X/A                 Y/B                 Z/C    
 *******************************************************************************
      1 T   1 H     5.020083924232E-02  2.240779112846E-01 -3.596418727190E-01
      2 F   1 H    -5.020083924232E-02 -2.240779112846E-01 -3.596418727190E-01
      3 F   1 H     2.240779112846E-01 -5.020083924232E-02  3.596418727190E-01
      4 F   1 H    -2.240779112846E-01  5.020083924232E-02  3.596418727190E-01
      5 T  35 BR   -4.008598447343E-03 -3.430285366725E-01  7.291268745425E-02
      6 F  35 BR    4.008598447342E-03  3.430285366725E-01  7.291268745425E-02
      7 F  35 BR   -3.430285366725E-01  4.008598447342E-03 -7.291268745425E-02
      8 F  35 BR    3.430285366725E-01 -4.008598447343E-03 -7.291268745425E-02
      9 T   1 H    -4.209893796436E-01 -4.861464809291E-02  1.524783034149E-01
     10 F   1 H     4.209893796436E-01  4.861464809292E-02  1.524783034149E-01
     11 F   1 H    -4.861464809292E-02  4.209893796436E-01 -1.524783034149E-01
     12 F   1 H     4.861464809292E-02 -4.209893796436E-01 -1.524783034149E-01
     13 T  35 BR   -2.000148000395E-01  1.077097993356E-01  1.448303689928E-01
     14 F  35 BR    2.000148000395E-01 -1.077097993356E-01  1.448303689928E-01
     15 F  35 BR    1.077097993356E-01  2.000148000395E-01 -1.448303689928E-01
     16 F  35 BR   -1.077097993356E-01 -2.000148000395E-01 -1.448303689928E-01
     17 T   6 C    -2.562431823845E-01 -3.100061584829E-01  1.177933854445E-01
     18 F   6 C     2.562431823845E-01  3.100061584829E-01  1.177933854445E-01
     19 F   6 C    -3.100061584829E-01  2.562431823845E-01 -1.177933854445E-01
     20 F   6 C     3.100061584829E-01 -2.562431823845E-01 -1.177933854445E-01
     21 T   6 C    -2.646653745474E-01 -4.419350747822E-01  1.288100169462E-01
     22 F   6 C     2.646653745474E-01  4.419350747822E-01  1.288100169462E-01
     23 F   6 C    -4.419350747822E-01  2.646653745474E-01 -1.288100169462E-01
     24 F   6 C     4.419350747822E-01 -2.646653745474E-01 -1.288100169462E-01
     25 T   6 C    -3.592119790554E-01 -2.351284400944E-01  1.320274320766E-01
     26 F   6 C     3.592119790554E-01  2.351284400944E-01  1.320274320766E-01
     27 F   6 C    -2.351284400944E-01  3.592119790554E-01 -1.320274320766E-01
     28 F   6 C     2.351284400944E-01 -3.592119790554E-01 -1.320274320766E-01
     29 T   6 C    -2.255237610445E-01 -6.164045789518E-02  1.313266006490E-01
     30 F   6 C     2.255237610445E-01  6.164045789518E-02  1.313266006490E-01
     31 F   6 C    -6.164045789518E-02  2.255237610445E-01 -1.313266006490E-01
     32 F   6 C     6.164045789518E-02 -2.255237610445E-01 -1.313266006490E-01
     33 T   6 C    -1.446366922656E-01 -2.494124536746E-01  1.040588724317E-01
     34 F   6 C     1.446366922656E-01  2.494124536746E-01  1.040588724317E-01
     35 F   6 C    -2.494124536746E-01  1.446366922656E-01 -1.040588724317E-01
     36 F   6 C     2.494124536746E-01 -1.446366922656E-01 -1.040588724317E-01
     37 T   6 C     3.440141728996E-01  1.093986157361E-01  1.398227842760E-01
     38 F   6 C    -3.440141728996E-01 -1.093986157361E-01  1.398227842760E-01
     39 F   6 C     1.093986157361E-01 -3.440141728996E-01 -1.398227842760E-01
     40 F   6 C    -1.093986157361E-01  3.440141728996E-01 -1.398227842760E-01
     41 T   7 N    -1.897206446001E-01  4.878518504034E-01  1.845208766507E-01
     42 F   7 N     1.897206446001E-01 -4.878518504034E-01  1.845208766507E-01
     43 F   7 N     4.878518504034E-01  1.897206446001E-01 -1.845208766507E-01
     44 F   7 N    -4.878518504034E-01 -1.897206446001E-01 -1.845208766507E-01
     45 T   7 N    -2.396934308358E-01  3.726290716253E-01  1.835169524435E-01
     46 F   7 N     2.396934308358E-01 -3.726290716253E-01  1.835169524435E-01
     47 F   7 N     3.726290716253E-01  2.396934308358E-01 -1.835169524435E-01
     48 F   7 N    -3.726290716253E-01 -2.396934308358E-01 -1.835169524435E-01
     49 T   7 N     1.435424649493E-01 -1.190976180935E-02 -4.068585912510E-01
     50 F   7 N    -1.435424649493E-01  1.190976180935E-02 -4.068585912510E-01
     51 F   7 N    -1.190976180935E-02 -1.435424649493E-01  4.068585912510E-01
     52 F   7 N     1.190976180935E-02  1.435424649493E-01  4.068585912510E-01
     53 T   7 N    -3.390980437908E-01  3.722417565357E-01  1.293844299811E-01
     54 F   7 N     3.390980437908E-01 -3.722417565357E-01  1.293844299811E-01
     55 F   7 N     3.722417565357E-01  3.390980437908E-01 -1.293844299811E-01
     56 F   7 N    -3.722417565357E-01 -3.390980437908E-01 -1.293844299811E-01
     57 T   7 N    -1.286982438385E-01 -1.302550528371E-01  1.105290292191E-01
     58 F   7 N     1.286982438385E-01  1.302550528371E-01  1.105290292191E-01
     59 F   7 N    -1.302550528371E-01  1.286982438385E-01 -1.105290292191E-01
     60 F   7 N     1.302550528371E-01 -1.286982438385E-01 -1.105290292191E-01
     61 T  30 ZN    4.626932236752E-17 -5.000000000000E-01  2.500000000000E-01
     62 T  30 ZN    0.000000000000E+00  1.499943102029E-19 -5.000000000000E-01

 T = ATOM BELONGING TO THE ASYMMETRIC UNIT
 INFORMATION **** fort.34 **** GEOMETRY OUTPUT FILE

 DIRECT LATTICE VECTORS CARTESIAN COMPONENTS (ANGSTROM)
          X                    Y                    Z
  -0.547733882889E+01   0.547733882889E+01   0.692648314597E+01
   0.547733882889E+01  -0.547733882889E+01   0.692648314597E+01
   0.547733882889E+01   0.547733882889E+01  -0.692648314597E+01


 CARTESIAN COORDINATES - PRIMITIVE CELL
 *******************************************************************************
 *      ATOM          X(ANGSTROM)         Y(ANGSTROM)         Z(ANGSTROM)
 *******************************************************************************
    1     1 H     5.499340120495E-01  2.454701288350E+00 -4.982106739946E+00
    2     1 H    -5.499340120495E-01 -2.454701288350E+00 -4.982106739946E+00
    3     1 H     2.454701288350E+00 -5.499340120495E-01  4.982106739946E+00
    4     1 H    -2.454701288350E+00  5.499340120495E-01  4.982106739946E+00
    5    35 BR   -4.391290385010E-02 -3.757767046667E+00  1.010057001558E+00
    6    35 BR    4.391290385010E-02  3.757767046667E+00  1.010057001558E+00
    7    35 BR   -3.757767046667E+00  4.391290385010E-02 -1.010057001558E+00
    8    35 BR    3.757767046667E+00 -4.391290385010E-02 -1.010057001558E+00
    9     1 H    -4.611802951343E+00 -5.325577993041E-01  2.112276797459E+00
   10     1 H     4.611802951343E+00  5.325577993041E-01  2.112276797459E+00
   11     1 H    -5.325577993041E-01  4.611802951343E+00 -2.112276797459E+00
   12     1 H     5.325577993041E-01 -4.611802951343E+00 -2.112276797459E+00
   13    35 BR   -2.191097661217E+00  1.179926132306E+00  2.006330219707E+00
   14    35 BR    2.191097661217E+00 -1.179926132306E+00  2.006330219707E+00
   15    35 BR    1.179926132306E+00  2.191097661217E+00 -2.006330219707E+00
   16    35 BR   -1.179926132306E+00 -2.191097661217E+00 -2.006330219707E+00
   17     6 C    -2.807061465026E+00 -3.396017538106E+00  1.631787797976E+00
   18     6 C     2.807061465026E+00  3.396017538106E+00  1.631787797976E+00
   19     6 C    -3.396017538106E+00  2.807061465026E+00 -1.631787797976E+00
   20     6 C     3.396017538106E+00 -2.807061465026E+00 -1.631787797976E+00
   21     6 C    -2.899323865342E+00 -4.841256289905E+00  1.784400822820E+00
   22     6 C     2.899323865342E+00  4.841256289905E+00  1.784400822820E+00
   23     6 C    -4.841256289905E+00  2.899323865342E+00 -1.784400822820E+00
   24     6 C     4.841256289905E+00 -2.899323865342E+00 -1.784400822820E+00
   25     6 C    -3.935051441364E+00 -2.575756269410E+00  1.828971566168E+00
   26     6 C     3.935051441364E+00  2.575756269410E+00  1.828971566168E+00
   27     6 C    -2.575756269410E+00  3.935051441364E+00 -1.828971566168E+00
   28     6 C     2.575756269410E+00 -3.935051441364E+00 -1.828971566168E+00
   29     6 C    -2.470540106413E+00 -6.752513469194E-01  1.819262972026E+00
   30     6 C     2.470540106413E+00  6.752513469194E-01  1.819262972026E+00
   31     6 C    -6.752513469194E-01  2.470540106413E+00 -1.819262972026E+00
   32     6 C     6.752513469194E-01 -2.470540106413E+00 -1.819262972026E+00
   33     6 C    -1.584448341257E+00 -2.732233033840E+00  1.441524052173E+00
   34     6 C     1.584448341257E+00  2.732233033840E+00  1.441524052173E+00
   35     6 C    -2.732233033840E+00  1.584448341257E+00 -1.441524052173E+00
   36     6 C     2.732233033840E+00 -1.584448341257E+00 -1.441524052173E+00
   37     6 C     3.768564373821E+00  1.198426571596E+00  1.936960317420E+00
   38     6 C    -3.768564373821E+00 -1.198426571596E+00  1.936960317420E+00
   39     6 C     1.198426571596E+00 -3.768564373821E+00 -1.936960317420E+00
   40     6 C    -1.198426571596E+00  3.768564373821E+00 -1.936960317420E+00
   41     7 N    -2.078328506620E+00  5.344259765919E+00  2.556161484401E+00
   42     7 N     2.078328506620E+00 -5.344259765919E+00  2.556161484401E+00
   43     7 N     5.344259765919E+00  2.078328506620E+00 -2.556161484401E+00
   44     7 N    -5.344259765919E+00 -2.078328506620E+00 -2.556161484401E+00
   45     7 N    -2.625764271493E+00  4.082031365572E+00  2.542254156200E+00
   46     7 N     2.625764271493E+00 -4.082031365572E+00  2.542254156200E+00
   47     7 N     4.082031365572E+00  2.625764271493E+00 -2.542254156200E+00
   48     7 N    -4.082031365572E+00 -2.625764271493E+00 -2.542254156200E+00
   49     7 N     1.572461433723E+00 -1.304676016023E-01 -5.636198350186E+00
   50     7 N    -1.572461433723E+00  1.304676016023E-01 -5.636198350186E+00
   51     7 N    -1.304676016023E-01 -1.572461433723E+00  5.636198350186E+00
   52     7 N     1.304676016023E-01  1.572461433723E+00  5.636198350186E+00
   53     7 N    -3.714709764111E+00  4.077788453613E+00  1.792358147229E+00
   54     7 N     3.714709764111E+00 -4.077788453613E+00  1.792358147229E+00
   55     7 N     4.077788453613E+00  3.714709764111E+00 -1.792358147229E+00
   56     7 N    -4.077788453613E+00 -3.714709764111E+00 -1.792358147229E+00
   57     7 N    -1.409847776372E+00 -1.426902117127E+00  1.531154916053E+00
   58     7 N     1.409847776372E+00  1.426902117127E+00  1.531154916053E+00
   59     7 N    -1.426902117127E+00  1.409847776372E+00 -1.531154916053E+00
   60     7 N     1.426902117127E+00 -1.409847776372E+00 -1.531154916053E+00
   61    30 ZN    5.068655119799E-16  5.477338828888E+00 -1.038972471895E+01
   62    30 ZN    0.000000000000E+00  1.643139318773E-18  6.926483145970E+00

 ****    4 SYMMOPS - TRANSLATORS IN FRACTIONAL UNITS
 **** MATRICES AND TRANSLATORS IN THE CRYSTALLOGRAPHIC REFERENCE FRAME
   V INV                    ROTATION MATRICES                   TRANSLATORS
   1   1  1.00  0.00  0.00  0.00  1.00  0.00  0.00  0.00  1.00  0.00  0.00  0.00
   2   2 -0.00  1.00 -1.00  1.00 -0.00 -1.00 -0.00  0.00 -1.00  0.00  0.00  0.00
   3   4 -0.00 -1.00  0.00  0.00 -1.00  1.00  1.00 -1.00  0.00  0.00  0.00  0.00
   4   3 -1.00 -0.00  1.00 -1.00  0.00 -0.00 -1.00  1.00 -0.00  0.00  0.00  0.00
 TTTTTTTTTTTTTTTTTTTTTTTTTTTTTT END         TELAPSE   177590.98 TCPU   173643.03
 EEEEEEEEEE TERMINATION  DATE 23 11 2023 TIME 09:20:13.0
NODE    0 CPU TIME =    173643.029
NODE    1 CPU TIME =    174430.601
NODE    2 CPU TIME =    174327.091
NODE    3 CPU TIME =    174124.375
NODE    4 CPU TIME =    174915.376
NODE    5 CPU TIME =    174403.992
NODE    6 CPU TIME =    174345.701
NODE    7 CPU TIME =    174123.312
NODE    8 CPU TIME =    174808.356
NODE    9 CPU TIME =    174296.311
NODE   10 CPU TIME =    174010.741
NODE   11 CPU TIME =    174050.709
NODE   12 CPU TIME =    174475.393
NODE   13 CPU TIME =    174166.037
NODE   14 CPU TIME =    174115.553
NODE   15 CPU TIME =    173749.322
NODE   16 CPU TIME =    174374.158
NODE   17 CPU TIME =    173899.356
NODE   18 CPU TIME =    173866.562
NODE   19 CPU TIME =    173650.886
NODE   20 CPU TIME =    174213.069
NODE   21 CPU TIME =    173574.473
NODE   22 CPU TIME =    173588.211
NODE   23 CPU TIME =    173394.100
    TOTAL CPU TIME =   4178546.712
trying normal rsh (/usr/bin/rsh)
exec: No such file or directory
trying normal rsh (/usr/bin/rsh)
exec: No such file or directory
trying normal rsh (/usr/bin/rsh)
exec: No such file or directory
trying normal rsh (/usr/bin/rsh)
exec: No such file or directory
