Loading crystal17/1.0.2/intel/19.0
  Loading requirement: intel/19.0 ompi/4.0.1/intel/19.0
 PROCESS            5  OF           24  WORKING
 PROCESS           12  OF           24  WORKING
 PROCESS           16  OF           24  WORKING
 PROCESS           20  OF           24  WORKING
 PROCESS            7  OF           24  WORKING
 PROCESS           11  OF           24  WORKING
 PROCESS           15  OF           24  WORKING
 PROCESS           21  OF           24  WORKING
 PROCESS            0  OF           24  WORKING
 PROCESS            2  OF           24  WORKING
 PROCESS            3  OF           24  WORKING
 PROCESS            4  OF           24  WORKING
 PROCESS           23  OF           24  WORKING
 PROCESS            6  OF           24  WORKING
 PROCESS            8  OF           24  WORKING
 PROCESS            9  OF           24  WORKING
 PROCESS           10  OF           24  WORKING
 PROCESS           13  OF           24  WORKING
 PROCESS           14  OF           24  WORKING
 PROCESS           17  OF           24  WORKING
 PROCESS           18  OF           24  WORKING
 PROCESS           19  OF           24  WORKING
 PROCESS           22  OF           24  WORKING
 PROCESS            1  OF           24  WORKING

         
 *******************************************************************************
 *                                                                             *
 *                               CRYSTAL17                                     *
 *                      public : 1.0.2 - March 1st, 2018                       *
 *                       HTTP://WWW.CRYSTAL.UNITO.IT                           *
 *                                                                             *
 *                              MAIN AUTHORS                                   *
 *                                                                             *
 *  R. DOVESI(1,11), V.R. SAUNDERS(2), C. ROETTI(1,11), R. ORLANDO(1,11),      *
 *  C.M. ZICOVICH-WILSON(1,3), F. PASCALE(4), B. CIVALLERI(1,11),              *
 *  K. DOLL(5), N.M. HARRISON(2,6), I.J. BUSH(7), Ph. D'ARCO(8),               *
 *  M. LLUNELL(9), M. CAUSA'(10), Y. NOEL(8), L. MASCHIO(1,11), A. ERBA(1,11)  *
 *  M. RE'RAT(14), S. CASASSA(1,11)                                            *
 *                                                                             *
 *        CONTRIBUTIONS TO THE CODE HAVE ALSO BEEN GIVEN BY                    *
 *                                                                             *
 *  M. FERRABONE(1,11), M. DE LA PIERRE(1,11), M. FERRERO(1,11),               *
 *  J. BAIMA(1,11), E. ALBANESE(1,11), M.F. PEINTINGER(12), R. BAST(13),       *
 *  B. KIRTMAN(15), V. LACIVITA(1,11), R. DEMICHELIS(1,16)                     *
 *  G. BRANDEBURG(17), S. SALUSTRO(1,11), G. SANSONE(1,11)                     *
 *  M.T. RUGGIERO(18)                                                          *
 *                                                                             *
 * (1) THEORETICAL CHEMISTRY GROUP - UNIVERSITA' DI TORINO - TORINO (ITALY)    *
 * (2) COMPUTATIONAL SCIENCE & ENGINEERING DEPARTMENT - STFC DARESBURY (UK)    *
 * (3) UNIVERSIDAD AUTONOMA DEL ESTADO DE MORELOS - CUERNAVACA (MEXICO)        *
 * (4) UNIVERSITE' DE LORRAINE - NANCY (FRANCE)                                *
 * (5) UNIVERSITAET STUTTGART- STUTTGART (GERMANY)                             *
 * (6) IMPERIAL COLLEGE - LONDON (UK)                                          *
 * (7) OXFORD E-RESEARCH CENTRE - OXFORD (UK)                                  *
 * (8) UPMC - SORBONNE UNIVERSITES - PARIS (FRANCE)                            *
 * (9) UNIVERSIDAD DE BARCELONA - BARCELONA (SPAIN)                            *
 *(10) UNIVERSITA' DI NAPOLI "FEDERICO II" - NAPOLI (ITALY)                    *
 *(11) NIS - NANOSTRUCTURED INTERFACES AND SURFACES - TORINO (ITALY)           *
 *(12) MPI FUER CHEMISCHE ENERGIEKONVERSION - MUELHEIM AN DER RUHR (GERMANY)   *
 *(13) UNIVERSITY OF TROMSO - TROMSO (NORWAY)                                  *
 *(14) UNIVERSITE' DE PAU ET DES PAYS DE L'ADOUR - PAU (FRANCE)                *
 *(15) UNIVERSITY OF CALIFORNIA SANTA BARBARA - SANTA BARBARA (USA)            *
 *(16) CURTIN UNIVERSITY - PERTH (AUSTRALIA)                                   *
 *(17) UNIVERSITY COLLEGE LONDON - LONDON (UK)                                 *
 *(18) CAMBRIDGE UNIVERSITY - CAMBRIDGE (UK)                                   *
 *                                                                             *
 *******************************************************************************
 EEEEEEEEEE STARTING  DATE 05 12 2023 TIME 05:33:41.0
 Z:\home\sanoj\Downloads\tmp_p\newconn.mol                                       

 CRYSTAL CALCULATION
 (INPUT ACCORDING TO THE INTERNATIONAL TABLES FOR X-RAY CRYSTALLOGRAPHY)
 CRYSTAL FAMILY                       :  TETRAGONAL  
 CRYSTAL CLASS  (GROTH - 1921)        :  TETRAGONAL DISPHENOIDAL              

 SPACE GROUP (NONCENTROSYMMETRIC)     :  I -4            

 LATTICE PARAMETERS  (ANGSTROMS AND DEGREES) - CONVENTIONAL CELL
        A           B           C        ALPHA        BETA       GAMMA
    11.01024    11.01024    13.73989    90.00000    90.00000    90.00000


 NUMBER OF IRREDUCIBLE ATOMS IN THE CONVENTIONAL CELL:   17

 INPUT COORDINATES

 ATOM AT. N.              COORDINATES
   1   1     3.902600000000E-01  4.621200000000E-01  3.772900000000E-01
   2   6     2.809700000000E-01  7.973200000000E-01  3.918500000000E-01
   3   6     2.508800000000E-01 -7.375000000000E-02  3.762600000000E-01
   4   6     1.949900000000E-01  7.037100000000E-01  3.786100000000E-01
   5   6     3.570900000000E-01  5.556300000000E-01  3.817100000000E-01
   6   6     4.014800000000E-01  7.568800000000E-01  4.057200000000E-01
   7   6     7.656400000000E-01  4.173300000000E-01  3.693400000000E-01
   8   7     3.177400000000E-01 -3.380000000000E-03  3.144800000000E-01
   9   7     2.615600000000E-01  1.078200000000E-01  3.108200000000E-01
  10   7     1.547000000000E-01 -7.210000000000E-03  4.100800000000E-01
  11   7     1.653600000000E-01  1.059100000000E-01  3.678700000000E-01
  12   7     4.385500000000E-01  6.423900000000E-01  4.023400000000E-01
  13  17     4.378000000000E-02  7.425100000000E-01  3.737000000000E-01
  14  17     5.160100000000E-01  8.609300000000E-01  4.266700000000E-01
  15  17     1.380700000000E-01  4.632100000000E-01  3.474700000000E-01
  16  30     0.000000000000E+00  5.000000000000E-01  7.500000000000E-01
  17  30     0.000000000000E+00  0.000000000000E+00  5.000000000000E-01

 *******************************************************************************

 << INFORMATION >>: FROM NOW ON, ALL COORDINATES REFER TO THE PRIMITIVE CELL

 *******************************************************************************

 LATTICE PARAMETERS  (ANGSTROMS AND DEGREES) - PRIMITIVE CELL
       A          B          C        ALPHA      BETA     GAMMA        VOLUME
   10.38311   10.38311   10.38311   115.96208 115.96208  97.14886    832.812357

 COORDINATES OF THE EQUIVALENT ATOMS (FRACTIONAL UNITS)

 N. ATOM EQUIV AT. N.          X                  Y                  Z

   1   1   1    1 H    -1.60590000000E-01 -2.32450000000E-01 -1.47620000000E-01
   2   1   2    1 H    -8.48300000000E-02 -1.29700000000E-02  1.47620000000E-01
   3   1   3    1 H     2.32450000000E-01  8.48300000000E-02  7.18600000000E-02
   4   1   4    1 H     1.29700000000E-02  1.60590000000E-01 -7.18600000000E-02

   5   2   1    6 C     1.89170000000E-01 -3.27180000000E-01  7.82900000000E-02
   6   2   2    6 C    -4.05470000000E-01  1.10880000000E-01 -7.82900000000E-02
   7   2   3    6 C     3.27180000000E-01  4.05470000000E-01 -4.83650000000E-01
   8   2   4    6 C    -1.10880000000E-01 -1.89170000000E-01  4.83650000000E-01

   9   3   1    6 C     3.02510000000E-01 -3.72860000000E-01  1.77130000000E-01
  10   3   2    6 C     4.50010000000E-01  1.25380000000E-01 -1.77130000000E-01
  11   3   3    6 C     3.72860000000E-01 -4.50010000000E-01 -3.24630000000E-01
  12   3   4    6 C    -1.25380000000E-01 -3.02510000000E-01  3.24630000000E-01

  13   4   1    6 C     8.23200000000E-02 -4.26400000000E-01 -1.01300000000E-01
  14   4   2    6 C    -3.25100000000E-01  1.83620000000E-01  1.01300000000E-01
  15   4   3    6 C     4.26400000000E-01  3.25100000000E-01 -4.91280000000E-01
  16   4   4    6 C    -1.83620000000E-01 -8.23200000000E-02  4.91280000000E-01

  17   5   1    6 C    -6.26600000000E-02 -2.61200000000E-01 -8.72800000000E-02
  18   5   2    6 C    -1.73920000000E-01  2.46200000000E-02  8.72800000000E-02
  19   5   3    6 C     2.61200000000E-01  1.73920000000E-01  1.98540000000E-01
  20   5   4    6 C    -2.46200000000E-02  6.26600000000E-02 -1.98540000000E-01

  21   6   1    6 C     1.62600000000E-01 -1.92800000000E-01  1.58360000000E-01
  22   6   2    6 C    -3.51160000000E-01  4.24000000000E-03 -1.58360000000E-01
  23   6   3    6 C     1.92800000000E-01  3.51160000000E-01  3.55400000000E-01
  24   6   4    6 C    -4.24000000000E-03 -1.62600000000E-01 -3.55400000000E-01

  25   7   1    6 C    -2.13330000000E-01  1.34980000000E-01  1.82970000000E-01
  26   7   2    6 C    -4.79900000000E-02 -3.96300000000E-01 -1.82970000000E-01
  27   7   3    6 C    -1.34980000000E-01  4.79900000000E-02 -3.48310000000E-01
  28   7   4    6 C     3.96300000000E-01  2.13330000000E-01  3.48310000000E-01

  29   8   1    7 N     3.11100000000E-01 -3.67780000000E-01  3.14360000000E-01
  30   8   2    7 N     3.17860000000E-01 -3.26000000000E-03 -3.14360000000E-01
  31   8   3    7 N     3.67780000000E-01 -3.17860000000E-01 -3.21120000000E-01
  32   8   4    7 N     3.26000000000E-03 -3.11100000000E-01  3.21120000000E-01

  33   9   1    7 N     4.18640000000E-01 -4.27620000000E-01  3.69380000000E-01
  34   9   2    7 N     2.03000000000E-01  4.92600000000E-02 -3.69380000000E-01
  35   9   3    7 N     4.27620000000E-01 -2.03000000000E-01 -1.53740000000E-01
  36   9   4    7 N    -4.92600000000E-02 -4.18640000000E-01  1.53740000000E-01

  37  10   1    7 N     4.02870000000E-01 -4.35220000000E-01  1.47490000000E-01
  38  10   2    7 N     4.17290000000E-01  2.55380000000E-01 -1.47490000000E-01
  39  10   3    7 N     4.35220000000E-01 -4.17290000000E-01 -1.61910000000E-01
  40  10   4    7 N    -2.55380000000E-01 -4.02870000000E-01  1.61910000000E-01

  41  11   1    7 N     4.73780000000E-01 -4.66770000000E-01  2.71270000000E-01
  42  11   2    7 N     2.61960000000E-01  2.02510000000E-01 -2.71270000000E-01
  43  11   3    7 N     4.66770000000E-01 -2.61960000000E-01 -5.94500000000E-02
  44  11   4    7 N    -2.02510000000E-01 -4.73780000000E-01  5.94500000000E-02

  45  12   1    7 N     4.47300000000E-02 -1.59110000000E-01  8.09400000000E-02
  46  12   2    7 N    -2.40050000000E-01 -3.62100000000E-02 -8.09400000000E-02
  47  12   3    7 N     1.59110000000E-01  2.40050000000E-01  2.03840000000E-01
  48  12   4    7 N     3.62100000000E-02 -4.47300000000E-02 -2.03840000000E-01

  49  13   1   17 CL    1.16210000000E-01  4.17480000000E-01 -2.13710000000E-01
  50  13   2   17 CL   -3.68810000000E-01  3.29920000000E-01  2.13710000000E-01
  51  13   3   17 CL   -4.17480000000E-01  3.68810000000E-01 -3.01270000000E-01
  52  13   4   17 CL   -3.29920000000E-01 -1.16210000000E-01  3.01270000000E-01

  53  14   1   17 CL    2.87600000000E-01 -5.73200000000E-02  3.76940000000E-01
  54  14   2   17 CL   -4.34260000000E-01 -8.93400000000E-02 -3.76940000000E-01
  55  14   3   17 CL    5.73200000000E-02  4.34260000000E-01  3.44920000000E-01
  56  14   4   17 CL    8.93400000000E-02 -2.87600000000E-01 -3.44920000000E-01

  57  15   1   17 CL   -1.89320000000E-01  4.85540000000E-01 -3.98720000000E-01
  58  15   2   17 CL   -1.15740000000E-01  2.09400000000E-01  3.98720000000E-01
  59  15   3   17 CL   -4.85540000000E-01  1.15740000000E-01  3.25140000000E-01
  60  15   4   17 CL   -2.09400000000E-01  1.89320000000E-01 -3.25140000000E-01

  61  16   1   30 ZN    2.50000000000E-01 -2.50000000000E-01 -5.00000000000E-01

  62  17   1   30 ZN   -5.00000000000E-01 -5.00000000000E-01  0.00000000000E+00

 NUMBER OF SYMMETRY OPERATORS         :    4
 *******************************************************************************
 * GEOMETRY EDITING - INPUT COORDINATES ARE GIVEN IN ANGSTROM         
 *******************************************************************************

 GEOMETRY NOW FULLY CONSISTENT WITH THE GROUP

 GCALCO - MAX INDICES DIRECT LATTICE VECTOR    14    14    16
 NO.OF VECTORS CREATED 6999 STARS  482 RMAX   211.09218 BOHR

 GEOMETRY FOR WAVE FUNCTION - DIMENSIONALITY OF THE SYSTEM    3
 (NON PERIODIC DIRECTION: LATTICE PARAMETER FORMALLY SET TO 500)
 *******************************************************************************
 LATTICE PARAMETERS (ANGSTROMS AND DEGREES) - BOHR = 0.5291772083 ANGSTROM
 PRIMITIVE CELL - CENTRING CODE 6/0 VOLUME=   832.812357 - DENSITY  2.232 g/cm^3
         A              B              C           ALPHA      BETA       GAMMA 
    10.38310593    10.38310593    10.38310593   115.962077 115.962077  97.148861
 *******************************************************************************
 ATOMS IN THE ASYMMETRIC UNIT   17 - ATOMS IN THE UNIT CELL:   62
     ATOM                 X/A                 Y/B                 Z/C    
 *******************************************************************************
      1 T   1 H    -1.605900000000E-01 -2.324500000000E-01 -1.476200000000E-01
      2 F   1 H    -8.483000000000E-02 -1.297000000000E-02  1.476200000000E-01
      3 F   1 H     2.324500000000E-01  8.483000000000E-02  7.186000000000E-02
      4 F   1 H     1.297000000000E-02  1.605900000000E-01 -7.186000000000E-02
      5 T   6 C     1.891700000000E-01 -3.271800000000E-01  7.829000000000E-02
      6 F   6 C    -4.054700000000E-01  1.108800000000E-01 -7.829000000000E-02
      7 F   6 C     3.271800000000E-01  4.054700000000E-01 -4.836500000000E-01
      8 F   6 C    -1.108800000000E-01 -1.891700000000E-01  4.836500000000E-01
      9 T   6 C     3.025100000000E-01 -3.728600000000E-01  1.771300000000E-01
     10 F   6 C     4.500100000000E-01  1.253800000000E-01 -1.771300000000E-01
     11 F   6 C     3.728600000000E-01 -4.500100000000E-01 -3.246300000000E-01
     12 F   6 C    -1.253800000000E-01 -3.025100000000E-01  3.246300000000E-01
     13 T   6 C     8.232000000000E-02 -4.264000000000E-01 -1.013000000000E-01
     14 F   6 C    -3.251000000000E-01  1.836200000000E-01  1.013000000000E-01
     15 F   6 C     4.264000000000E-01  3.251000000000E-01 -4.912800000000E-01
     16 F   6 C    -1.836200000000E-01 -8.232000000000E-02  4.912800000000E-01
     17 T   6 C    -6.266000000000E-02 -2.612000000000E-01 -8.728000000000E-02
     18 F   6 C    -1.739200000000E-01  2.462000000000E-02  8.728000000000E-02
     19 F   6 C     2.612000000000E-01  1.739200000000E-01  1.985400000000E-01
     20 F   6 C    -2.462000000000E-02  6.266000000000E-02 -1.985400000000E-01
     21 T   6 C     1.626000000000E-01 -1.928000000000E-01  1.583600000000E-01
     22 F   6 C    -3.511600000000E-01  4.240000000000E-03 -1.583600000000E-01
     23 F   6 C     1.928000000000E-01  3.511600000000E-01  3.554000000000E-01
     24 F   6 C    -4.240000000000E-03 -1.626000000000E-01 -3.554000000000E-01
     25 T   6 C    -2.133300000000E-01  1.349800000000E-01  1.829700000000E-01
     26 F   6 C    -4.799000000000E-02 -3.963000000000E-01 -1.829700000000E-01
     27 F   6 C    -1.349800000000E-01  4.799000000000E-02 -3.483100000000E-01
     28 F   6 C     3.963000000000E-01  2.133300000000E-01  3.483100000000E-01
     29 T   7 N     3.111000000000E-01 -3.677800000000E-01  3.143600000000E-01
     30 F   7 N     3.178600000000E-01 -3.260000000000E-03 -3.143600000000E-01
     31 F   7 N     3.677800000000E-01 -3.178600000000E-01 -3.211200000000E-01
     32 F   7 N     3.260000000000E-03 -3.111000000000E-01  3.211200000000E-01
     33 T   7 N     4.186400000000E-01 -4.276200000000E-01  3.693800000000E-01
     34 F   7 N     2.030000000000E-01  4.926000000000E-02 -3.693800000000E-01
     35 F   7 N     4.276200000000E-01 -2.030000000000E-01 -1.537400000000E-01
     36 F   7 N    -4.926000000000E-02 -4.186400000000E-01  1.537400000000E-01
     37 T   7 N     4.028700000000E-01 -4.352200000000E-01  1.474900000000E-01
     38 F   7 N     4.172900000000E-01  2.553800000000E-01 -1.474900000000E-01
     39 F   7 N     4.352200000000E-01 -4.172900000000E-01 -1.619100000000E-01
     40 F   7 N    -2.553800000000E-01 -4.028700000000E-01  1.619100000000E-01
     41 T   7 N     4.737800000000E-01 -4.667700000000E-01  2.712700000000E-01
     42 F   7 N     2.619600000000E-01  2.025100000000E-01 -2.712700000000E-01
     43 F   7 N     4.667700000000E-01 -2.619600000000E-01 -5.945000000000E-02
     44 F   7 N    -2.025100000000E-01 -4.737800000000E-01  5.945000000000E-02
     45 T   7 N     4.473000000000E-02 -1.591100000000E-01  8.094000000000E-02
     46 F   7 N    -2.400500000000E-01 -3.621000000000E-02 -8.094000000000E-02
     47 F   7 N     1.591100000000E-01  2.400500000000E-01  2.038400000000E-01
     48 F   7 N     3.621000000000E-02 -4.473000000000E-02 -2.038400000000E-01
     49 T  17 CL    1.162100000000E-01  4.174800000000E-01 -2.137100000000E-01
     50 F  17 CL   -3.688100000000E-01  3.299200000000E-01  2.137100000000E-01
     51 F  17 CL   -4.174800000000E-01  3.688100000000E-01 -3.012700000000E-01
     52 F  17 CL   -3.299200000000E-01 -1.162100000000E-01  3.012700000000E-01
     53 T  17 CL    2.876000000000E-01 -5.732000000000E-02  3.769400000000E-01
     54 F  17 CL   -4.342600000000E-01 -8.934000000000E-02 -3.769400000000E-01
     55 F  17 CL    5.732000000000E-02  4.342600000000E-01  3.449200000000E-01
     56 F  17 CL    8.934000000000E-02 -2.876000000000E-01 -3.449200000000E-01
     57 T  17 CL   -1.893200000000E-01  4.855400000000E-01 -3.987200000000E-01
     58 F  17 CL   -1.157400000000E-01  2.094000000000E-01  3.987200000000E-01
     59 F  17 CL   -4.855400000000E-01  1.157400000000E-01  3.251400000000E-01
     60 F  17 CL   -2.094000000000E-01  1.893200000000E-01 -3.251400000000E-01
     61 T  30 ZN    2.500000000000E-01 -2.500000000000E-01 -5.000000000000E-01
     62 T  30 ZN   -5.000000000000E-01 -5.000000000000E-01  0.000000000000E+00

 TRANSFORMATION MATRIX PRIMITIVE-CRYSTALLOGRAPHIC CELL
  0.0000  1.0000  1.0000  1.0000  0.0000  1.0000  1.0000  1.0000  0.0000

 *******************************************************************************
 CRYSTALLOGRAPHIC CELL (VOLUME=       1665.62471496)
         A              B              C           ALPHA      BETA       GAMMA 
    11.01024319    11.01024319    13.73989246    90.000000  90.000000  90.000000

 COORDINATES IN THE CRYSTALLOGRAPHIC CELL
     ATOM                 X/A                 Y/B                 Z/C    
 *******************************************************************************
      1 T   1 H    -1.097400000000E-01 -3.788000000000E-02 -1.227100000000E-01
      2 F   1 H     1.097400000000E-01  3.788000000000E-02 -1.227100000000E-01
      3 F   1 H    -3.788000000000E-02  1.097400000000E-01  1.227100000000E-01
      4 F   1 H     3.788000000000E-02 -1.097400000000E-01  1.227100000000E-01
      5 T   6 C    -2.190300000000E-01  2.973200000000E-01 -1.081500000000E-01
      6 F   6 C     2.190300000000E-01 -2.973200000000E-01 -1.081500000000E-01
      7 F   6 C     2.973200000000E-01  2.190300000000E-01  1.081500000000E-01
      8 F   6 C    -2.973200000000E-01 -2.190300000000E-01  1.081500000000E-01
      9 T   6 C    -2.491200000000E-01  4.262500000000E-01 -1.237400000000E-01
     10 F   6 C     2.491200000000E-01 -4.262500000000E-01 -1.237400000000E-01
     11 F   6 C     4.262500000000E-01  2.491200000000E-01  1.237400000000E-01
     12 F   6 C    -4.262500000000E-01 -2.491200000000E-01  1.237400000000E-01
     13 T   6 C    -3.050100000000E-01  2.037100000000E-01 -1.213900000000E-01
     14 F   6 C     3.050100000000E-01 -2.037100000000E-01 -1.213900000000E-01
     15 F   6 C     2.037100000000E-01  3.050100000000E-01  1.213900000000E-01
     16 F   6 C    -2.037100000000E-01 -3.050100000000E-01  1.213900000000E-01
     17 T   6 C    -1.429100000000E-01  5.563000000000E-02 -1.182900000000E-01
     18 F   6 C     1.429100000000E-01 -5.563000000000E-02 -1.182900000000E-01
     19 F   6 C     5.563000000000E-02  1.429100000000E-01  1.182900000000E-01
     20 F   6 C    -5.563000000000E-02 -1.429100000000E-01  1.182900000000E-01
     21 T   6 C    -9.852000000000E-02  2.568800000000E-01 -9.428000000000E-02
     22 F   6 C     9.852000000000E-02 -2.568800000000E-01 -9.428000000000E-02
     23 F   6 C     2.568800000000E-01  9.852000000000E-02  9.428000000000E-02
     24 F   6 C    -2.568800000000E-01 -9.852000000000E-02  9.428000000000E-02
     25 T   6 C     2.656400000000E-01 -8.267000000000E-02 -1.306600000000E-01
     26 F   6 C    -2.656400000000E-01  8.267000000000E-02 -1.306600000000E-01
     27 F   6 C    -8.267000000000E-02 -2.656400000000E-01  1.306600000000E-01
     28 F   6 C     8.267000000000E-02  2.656400000000E-01  1.306600000000E-01
     29 T   7 N     3.177400000000E-01 -3.380000000000E-03  3.144800000000E-01
     30 F   7 N    -3.177400000000E-01  3.380000000000E-03  3.144800000000E-01
     31 F   7 N    -3.380000000000E-03 -3.177400000000E-01 -3.144800000000E-01
     32 F   7 N     3.380000000000E-03  3.177400000000E-01 -3.144800000000E-01
     33 T   7 N     2.615600000000E-01  1.078200000000E-01  3.108200000000E-01
     34 F   7 N    -2.615600000000E-01 -1.078200000000E-01  3.108200000000E-01
     35 F   7 N     1.078200000000E-01 -2.615600000000E-01 -3.108200000000E-01
     36 F   7 N    -1.078200000000E-01  2.615600000000E-01 -3.108200000000E-01
     37 T   7 N     1.547000000000E-01 -7.210000000000E-03  4.100800000000E-01
     38 F   7 N    -1.547000000000E-01  7.210000000000E-03  4.100800000000E-01
     39 F   7 N    -7.210000000000E-03 -1.547000000000E-01 -4.100800000000E-01
     40 F   7 N     7.210000000000E-03  1.547000000000E-01 -4.100800000000E-01
     41 T   7 N     1.653600000000E-01  1.059100000000E-01  3.678700000000E-01
     42 F   7 N    -1.653600000000E-01 -1.059100000000E-01  3.678700000000E-01
     43 F   7 N     1.059100000000E-01 -1.653600000000E-01 -3.678700000000E-01
     44 F   7 N    -1.059100000000E-01  1.653600000000E-01 -3.678700000000E-01
     45 T   7 N    -6.145000000000E-02  1.423900000000E-01 -9.766000000000E-02
     46 F   7 N     6.145000000000E-02 -1.423900000000E-01 -9.766000000000E-02
     47 F   7 N     1.423900000000E-01  6.145000000000E-02  9.766000000000E-02
     48 F   7 N    -1.423900000000E-01 -6.145000000000E-02  9.766000000000E-02
     49 T  17 CL    4.378000000000E-02 -2.574900000000E-01  3.737000000000E-01
     50 F  17 CL   -4.378000000000E-02  2.574900000000E-01  3.737000000000E-01
     51 F  17 CL   -2.574900000000E-01 -4.378000000000E-02 -3.737000000000E-01
     52 F  17 CL    2.574900000000E-01  4.378000000000E-02 -3.737000000000E-01
     53 T  17 CL    1.601000000000E-02  3.609300000000E-01 -7.333000000000E-02
     54 F  17 CL   -1.601000000000E-02 -3.609300000000E-01 -7.333000000000E-02
     55 F  17 CL    3.609300000000E-01 -1.601000000000E-02  7.333000000000E-02
     56 F  17 CL   -3.609300000000E-01  1.601000000000E-02  7.333000000000E-02
     57 T  17 CL   -3.619300000000E-01 -3.679000000000E-02 -1.525300000000E-01
     58 F  17 CL    3.619300000000E-01  3.679000000000E-02 -1.525300000000E-01
     59 F  17 CL   -3.679000000000E-02  3.619300000000E-01  1.525300000000E-01
     60 F  17 CL    3.679000000000E-02 -3.619300000000E-01  1.525300000000E-01
     61 T  30 ZN    5.000000000000E-01  4.268786516850E-17  2.500000000000E-01
     62 T  30 ZN    0.000000000000E+00  0.000000000000E+00 -5.000000000000E-01

 T = ATOM BELONGING TO THE ASYMMETRIC UNIT

 ****    4 SYMMOPS - TRANSLATORS IN FRACTIONAL UNITS
 **** MATRICES AND TRANSLATORS IN THE CRYSTALLOGRAPHIC REFERENCE FRAME
   V INV                    ROTATION MATRICES                   TRANSLATORS
   1   1  1.00  0.00  0.00  0.00  1.00  0.00  0.00  0.00  1.00  0.00  0.00  0.00
   2   2 -0.00  1.00 -1.00  1.00 -0.00 -1.00  0.00  0.00 -1.00  0.00  0.00  0.00
   3   4  0.00 -1.00 -0.00  0.00 -1.00  1.00  1.00 -1.00  0.00  0.00  0.00  0.00
   4   3 -1.00  0.00  1.00 -1.00  0.00 -0.00 -1.00  1.00  0.00  0.00  0.00  0.00

 DIRECT LATTICE VECTORS CARTESIAN COMPONENTS (ANGSTROM)
          X                    Y                    Z
  -0.550512159315E+01   0.550512159315E+01   0.686994622815E+01
   0.550512159315E+01  -0.550512159315E+01   0.686994622815E+01
   0.550512159315E+01   0.550512159315E+01  -0.686994622815E+01


 CARTESIAN COORDINATES - PRIMITIVE CELL
 *******************************************************************************
 *      ATOM          X(ANGSTROM)         Y(ANGSTROM)         Z(ANGSTROM)
 *******************************************************************************
    1     1 H    -1.208264087265E+00 -4.170680118970E-01 -1.686022203313E+00
    2     1 H     1.208264087265E+00  4.170680118970E-01 -1.686022203313E+00
    3     1 H    -4.170680118970E-01  1.208264087265E+00  1.686022203313E+00
    4     1 H     4.170680118970E-01 -1.208264087265E+00  1.686022203313E+00
    5     6 C    -2.411573565095E+00  3.273565504151E+00 -1.485969369149E+00
    6     6 C     2.411573565095E+00 -3.273565504151E+00 -1.485969369149E+00
    7     6 C     3.273565504151E+00  2.411573565095E+00  1.485969369149E+00
    8     6 C    -3.273565504151E+00 -2.411573565095E+00  1.485969369149E+00
    9     6 C    -2.742871782571E+00  4.693116158160E+00 -1.700174292543E+00
   10     6 C     2.742871782571E+00 -4.693116158160E+00 -1.700174292543E+00
   11     6 C     4.693116158160E+00  2.742871782571E+00  1.700174292543E+00
   12     6 C    -4.693116158160E+00 -2.742871782571E+00  1.700174292543E+00
   13     6 C    -3.358234274253E+00  2.242896639481E+00 -1.667885545270E+00
   14     6 C     3.358234274253E+00 -2.242896639481E+00 -1.667885545270E+00
   15     6 C     2.242896639481E+00  3.358234274253E+00  1.667885545270E+00
   16     6 C    -2.242896639481E+00 -3.358234274253E+00  1.667885545270E+00
   17     6 C    -1.573473853754E+00  6.124998284539E-01 -1.625291878656E+00
   18     6 C     1.573473853754E+00 -6.124998284539E-01 -1.625291878656E+00
   19     6 C     6.124998284539E-01  1.573473853754E+00  1.625291878656E+00
   20     6 C    -6.124998284539E-01 -1.573473853754E+00  1.625291878656E+00
   21     6 C    -1.084729158714E+00  2.828311269697E+00 -1.295397060780E+00
   22     6 C     1.084729158714E+00 -2.828311269697E+00 -1.295397060780E+00
   23     6 C     2.828311269697E+00  1.084729158714E+00  1.295397060780E+00
   24     6 C    -2.828311269697E+00 -1.084729158714E+00  1.295397060780E+00
   25     6 C     2.924761000009E+00 -9.102168042114E-01 -1.795254348340E+00
   26     6 C    -2.924761000009E+00  9.102168042114E-01 -1.795254348340E+00
   27     6 C    -9.102168042114E-01 -2.924761000009E+00  1.795254348340E+00
   28     6 C     9.102168042114E-01  2.924761000009E+00  1.795254348340E+00
   29     7 N     3.498394670015E+00 -3.721462196969E-02  4.320921379657E+00
   30     7 N    -3.498394670015E+00  3.721462196969E-02  4.320921379657E+00
   31     7 N    -3.721462196969E-02 -3.498394670015E+00 -4.320921379657E+00
   32     7 N     3.721462196969E-02  3.498394670015E+00 -4.320921379657E+00
   33     7 N     2.879839207809E+00  1.187124420347E+00  4.270633373267E+00
   34     7 N    -2.879839207809E+00 -1.187124420347E+00  4.270633373267E+00
   35     7 N     1.187124420347E+00 -2.879839207809E+00 -4.270633373267E+00
   36     7 N    -1.187124420347E+00  2.879839207809E+00 -4.270633373267E+00
   37     7 N     1.703284620921E+00 -7.938385337322E-02  5.634455098480E+00
   38     7 N    -1.703284620921E+00  7.938385337322E-02  5.634455098480E+00
   39     7 N    -7.938385337322E-02 -1.703284620921E+00 -5.634455098480E+00
   40     7 N     7.938385337322E-02  1.703284620921E+00 -5.634455098480E+00
   41     7 N     1.820653813287E+00  1.166094855861E+00  5.054494237899E+00
   42     7 N    -1.820653813287E+00 -1.166094855861E+00  5.054494237899E+00
   43     7 N     1.166094855861E+00 -1.820653813287E+00 -5.054494237899E+00
   44     7 N    -1.166094855861E+00  1.820653813287E+00 -5.054494237899E+00
   45     7 N    -6.765794437981E-01  1.567748527297E+00 -1.341837897282E+00
   46     7 N     6.765794437981E-01 -1.567748527297E+00 -1.341837897282E+00
   47     7 N     1.567748527297E+00  6.765794437981E-01  1.341837897282E+00
   48     7 N    -1.567748527297E+00 -6.765794437981E-01  1.341837897282E+00
   49    17 CL    4.820284466962E-01 -2.835027518040E+00  5.134597810919E+00
   50    17 CL   -4.820284466962E-01  2.835027518040E+00  5.134597810919E+00
   51    17 CL   -2.835027518040E+00 -4.820284466962E-01 -5.134597810919E+00
   52    17 CL    2.835027518040E+00  4.820284466962E-01 -5.134597810919E+00
   53    17 CL    1.762739934127E-01  3.973927073231E+00 -1.007546313820E+00
   54    17 CL   -1.762739934127E-01 -3.973927073231E+00 -1.007546313820E+00
   55    17 CL    3.973927073231E+00 -1.762739934127E-01  1.007546313820E+00
   56    17 CL   -3.973927073231E+00  1.762739934127E-01  1.007546313820E+00
   57    17 CL   -3.984937316418E+00 -4.050668468240E-01 -2.095745796359E+00
   58    17 CL    3.984937316418E+00  4.050668468240E-01 -2.095745796359E+00
   59    17 CL   -4.050668468240E-01  3.984937316418E+00  2.095745796359E+00
   60    17 CL    4.050668468240E-01 -3.984937316418E+00  2.095745796359E+00
   61    30 ZN    5.505121593150E+00  4.700037766092E-16 -1.030491934222E+01
   62    30 ZN    0.000000000000E+00  0.000000000000E+00  6.869946228150E+00

 *******************************************************************************
 STARTING BASIS SET HANDLING 
 *******************************************************************************

 Loading internal basis set: POB-DZVPP           

 Please cite in your publication:
 Peintinger, M. F., Oliveira, D. V. and Bredow, T. (2013), Generally applicable 
 solid-state Gaussian basis sets, in preparation                                
                                                                                
                    

 *******************************************************************************
 LOCAL ATOMIC FUNCTIONS BASIS SET
 *******************************************************************************
   ATOM   X(AU)   Y(AU)   Z(AU)  N. TYPE  EXPONENT  S COEF   P COEF   D/F/G COEF
 *******************************************************************************
   1 H   -2.283  -0.788  -3.186
                                  1 S  
                                         2.263E+01 1.441E-02 0.000E+00 0.000E+00
                                         3.236E+00 1.072E-01 0.000E+00 0.000E+00
                                         7.304E-01 3.846E-01 0.000E+00 0.000E+00
                                  2 S  
                                         1.417E-01 1.000E+00 0.000E+00 0.000E+00
                           3-     5 P  
                                         3.944E-01 0.000E+00 1.000E+00 0.000E+00
                           6-     8 P  
                                         1.006E-01 0.000E+00 1.000E+00 0.000E+00
   2 H    2.283   0.788  -3.186
   3 H   -0.788   2.283   3.186
   4 H    0.788  -2.283   3.186
   5 C   -4.557   6.186  -2.808
                                 33 S  
                                         1.238E+03 5.457E-03 0.000E+00 0.000E+00
                                         1.863E+02 4.064E-02 0.000E+00 0.000E+00
                                         4.225E+01 1.803E-01 0.000E+00 0.000E+00
                                         1.168E+01 4.632E-01 0.000E+00 0.000E+00
                                         3.593E+00 4.409E-01 0.000E+00 0.000E+00
                                 34 S  
                                         5.281E+00 1.000E+00 0.000E+00 0.000E+00
                                 35 S  
                                         4.447E-01 1.000E+00 0.000E+00 0.000E+00
                          36-    38 P  
                                         9.468E+00 0.000E+00 3.839E-02 0.000E+00
                                         2.010E+00 0.000E+00 2.112E-01 0.000E+00
                                         5.477E-01 0.000E+00 5.133E-01 0.000E+00
                          39-    41 P  
                                         1.604E-01 0.000E+00 1.000E+00 0.000E+00
                          42-    46 D  
                                         6.070E-01 0.000E+00 0.000E+00 1.000E+00
                          47-    51 D  
                                         2.939E-01 0.000E+00 0.000E+00 1.000E+00
   6 C    4.557  -6.186  -2.808
   7 C    6.186   4.557   2.808
   8 C   -6.186  -4.557   2.808
   9 C   -5.183   8.869  -3.213
  10 C    5.183  -8.869  -3.213
  11 C    8.869   5.183   3.213
  12 C   -8.869  -5.183   3.213
  13 C   -6.346   4.238  -3.152
  14 C    6.346  -4.238  -3.152
  15 C    4.238   6.346   3.152
  16 C   -4.238  -6.346   3.152
  17 C   -2.973   1.157  -3.071
  18 C    2.973  -1.157  -3.071
  19 C    1.157   2.973   3.071
  20 C   -1.157  -2.973   3.071
  21 C   -2.050   5.345  -2.448
  22 C    2.050  -5.345  -2.448
  23 C    5.345   2.050   2.448
  24 C   -5.345  -2.050   2.448
  25 C    5.527  -1.720  -3.393
  26 C   -5.527   1.720  -3.393
  27 C   -1.720  -5.527   3.393
  28 C    1.720   5.527   3.393
  29 N    6.611  -0.070   8.165
                                489 S  
                                         1.713E+03-5.393E-03 0.000E+00 0.000E+00
                                         2.576E+02-4.022E-02 0.000E+00 0.000E+00
                                         5.846E+01-1.793E-01 0.000E+00 0.000E+00
                                         1.620E+01-4.638E-01 0.000E+00 0.000E+00
                                         5.005E+00-4.417E-01 0.000E+00 0.000E+00
                                490 S  
                                         6.217E-01 1.000E+00 0.000E+00 0.000E+00
                                491 S  
                                         2.921E-01 1.000E+00 0.000E+00 0.000E+00
                         492-   494 P  
                                         1.357E+01 0.000E+00-4.007E-02 0.000E+00
                                         2.926E+00 0.000E+00-2.181E-01 0.000E+00
                                         7.993E-01 0.000E+00-5.129E-01 0.000E+00
                         495-   497 P  
                                         2.244E-01 0.000E+00 1.000E+00 0.000E+00
                         498-   502 D  
                                         3.118E-01 0.000E+00 0.000E+00 1.000E+00
  30 N   -6.611   0.070   8.165
  31 N   -0.070  -6.611  -8.165
  32 N    0.070   6.611  -8.165
  33 N    5.442   2.243   8.070
  34 N   -5.442  -2.243   8.070
  35 N    2.243  -5.442  -8.070
  36 N   -2.243   5.442  -8.070
  37 N    3.219  -0.150  10.648
  38 N   -3.219   0.150  10.648
  39 N   -0.150  -3.219 -10.648
  40 N    0.150   3.219 -10.648
  41 N    3.441   2.204   9.552
  42 N   -3.441  -2.204   9.552
  43 N    2.204  -3.441  -9.552
  44 N   -2.204   3.441  -9.552
  45 N   -1.279   2.963  -2.536
  46 N    1.279  -2.963  -2.536
  47 N    2.963   1.279   2.536
  48 N   -2.963  -1.279   2.536
  49 CL   0.911  -5.357   9.703
                                769 S  
                                         1.045E+04 1.971E-03 0.000E+00 0.000E+00
                                         1.572E+03 1.475E-02 0.000E+00 0.000E+00
                                         3.571E+02 6.668E-02 0.000E+00 0.000E+00
                                         1.003E+02 1.723E-01 0.000E+00 0.000E+00
                                         3.081E+01 1.588E-01 0.000E+00 0.000E+00
                                770 S  
                                         5.192E+01-1.001E-01 0.000E+00 0.000E+00
                                         5.705E+00 6.084E-01 0.000E+00 0.000E+00
                                         2.351E+00 5.435E-01 0.000E+00 0.000E+00
                                771 S  
                                         4.886E-01 1.000E+00 0.000E+00 0.000E+00
                                772 S  
                                         1.984E-01 1.000E+00 0.000E+00 0.000E+00
                         773-   775 P  
                                         3.077E+02 0.000E+00-8.780E-03 0.000E+00
                                         7.210E+01 0.000E+00-6.356E-02 0.000E+00
                                         2.253E+01 0.000E+00-2.402E-01 0.000E+00
                                         7.899E+00 0.000E+00-4.780E-01 0.000E+00
                                         2.877E+00 0.000E+00-3.852E-01 0.000E+00
                         776-   778 P  
                                         9.483E-01 0.000E+00 1.000E+00 0.000E+00
                         779-   781 P  
                                         2.521E-01 0.000E+00 1.000E+00 0.000E+00
                         782-   786 D  
                                         9.722E-01 0.000E+00 0.000E+00 1.000E+00
                         787-   791 D  
                                         2.060E-01 0.000E+00 0.000E+00 1.000E+00
  50 CL  -0.911   5.357   9.703
  51 CL  -5.357  -0.911  -9.703
  52 CL   5.357   0.911  -9.703
  53 CL   0.333   7.510  -1.904
  54 CL  -0.333  -7.510  -1.904
  55 CL   7.510  -0.333   1.904
  56 CL  -7.510   0.333   1.904
  57 CL  -7.530  -0.765  -3.960
  58 CL   7.530   0.765  -3.960
  59 CL  -0.765   7.530   3.960
  60 CL   0.765  -7.530   3.960
  61 ZN  10.403   0.000 -19.473
                               1045 S  
                                         8.200E+04 1.421E-03 0.000E+00 0.000E+00
                                         1.231E+04 1.089E-02 0.000E+00 0.000E+00
                                         2.801E+03 5.406E-02 0.000E+00 0.000E+00
                                         7.910E+02 1.885E-01 0.000E+00 0.000E+00
                                         2.576E+02 3.835E-01 0.000E+00 0.000E+00
                                         8.881E+01 2.972E-01 0.000E+00 0.000E+00
                               1046 S  
                                         1.719E+02-1.105E-01 0.000E+00 0.000E+00
                                         2.030E+01 6.461E-01 0.000E+00 0.000E+00
                                         8.346E+00 4.422E-01 0.000E+00 0.000E+00
                               1047 S  
                                         1.485E+01-2.271E-01 0.000E+00 0.000E+00
                                         2.450E+00 7.243E-01 0.000E+00 0.000E+00
                                         9.985E-01 4.484E-01 0.000E+00 0.000E+00
                               1048 S  
                                         1.493E+00 1.000E+00 0.000E+00 0.000E+00
                               1049 S  
                                         1.830E-01 1.000E+00 0.000E+00 0.000E+00
                        1050-  1052 P  
                                         1.072E+03 0.000E+00 9.277E-03 0.000E+00
                                         2.527E+02 0.000E+00 6.954E-02 0.000E+00
                                         8.010E+01 0.000E+00 2.716E-01 0.000E+00
                                         2.890E+01 0.000E+00 5.340E-01 0.000E+00
                                         1.077E+01 0.000E+00 3.450E-01 0.000E+00
                        1053-  1055 P  
                                         5.645E+00 0.000E+00 3.413E-01 0.000E+00
                                         2.168E+00 0.000E+00 5.639E-01 0.000E+00
                                         8.054E-01 0.000E+00 2.368E-01 0.000E+00
                        1056-  1058 P  
                                         2.721E-01 0.000E+00 1.000E+00 0.000E+00
                        1059-  1063 D  
                                         5.609E+01 0.000E+00 0.000E+00 2.959E-02
                                         1.575E+01 0.000E+00 0.000E+00 1.587E-01
                                         5.312E+00 0.000E+00 0.000E+00 3.798E-01
                                         1.774E+00 0.000E+00 0.000E+00 4.690E-01
                        1064-  1068 D  
                                         5.073E-01 0.000E+00 0.000E+00 1.000E+00
                        1069-  1075 F  
                                         2.814E+00 0.000E+00 0.000E+00 1.000E+00
                        1076-  1082 F  
                                         1.300E+00 0.000E+00 0.000E+00 1.000E+00
  62 ZN   0.000   0.000  12.982

 *******************************************************************************
 FINISHED BASIS SET HANDLING 
 *******************************************************************************

 INFORMATION **** SET_MPP **** PCRYSTAL CALCULATION
 INFORMATION **** READM2 **** NEW DEFAULT: FOCK/KS MATRIX MIXING SET TO 30 %
 INFORMATION **** READM2 **** NEW DEFAULT: FULL DIRECT SCF MODE
 INFORMATION **** READM2 **** NEW DEFAULT: COULOMB BIPOLAR BUFFER SET TO 32 Mb
 INFORMATION **** READM2 **** NEW DEFAULT: EXCHANGE BIPOLAR BUFFER SET TO 32 Mb

 *******************************************************************************
 NEW DEFAULT: DFT INTEGRATION GRID INCREASED TO XLGRID
 NEW DEFAULT: DIIS ACCELERATOR ACTIVE
 USE KEYWORD NODIIS TO TURN IT OFF
 *******************************************************************************

 INFORMATION **** DFTD3_INPUT **** PERFORM DISPERSION CORRECTION DFT-D3(BJ) IN THE BECKE-JOHNSON DAMPING SCHEME

 PLEASE CITE:
 (1) DFT-D3 Reference
  S. Grimme, J. Antony, S. Ehrlich, and H. Krieg, J. Chem. Phys. 132 (2010), 154104
 (2) BJ-Damping Reference
  S. Grimme, S. Ehrlich, and L. Goerigk, J. Comput. Chem. 32 (2011), 1456-1465
 (3) General DFT-D Review
  S. Grimme, A. Hansen, J. G. Brandenburg, and C. Bannwarth,
  Chem. Rev. 116 (2016), 5105-5154

 INFORMATION **** TOLINTEG **** COULOMB AND EXCHANGE SERIES TOLERANCES MODIFIED
 INFORMATION **** BIPOSIZE **** COULOMB BIPOLAR BUFFER SET TO   100000000
 INFORMATION **** MAXCYCLE **** MAX NUMBER OF SCF CYCLES SET TO          50
 *******************************************************************************
 N. OF ATOMS PER CELL        62  COULOMB OVERLAP TOL         (T1) 10**  -12
 NUMBER OF SHELLS           436  COULOMB PENETRATION TOL     (T2) 10**  -12
 NUMBER OF AO              1120  EXCHANGE OVERLAP TOL        (T3) 10**   20
 N. OF ELECTRONS PER CELL   552  EXCHANGE PSEUDO OVP (F(G))  (T4) 10**   20
 CORE ELECTRONS PER CELL    244  EXCHANGE PSEUDO OVP (P(G))  (T5) 10**   20
 N. OF SYMMETRY OPERATORS     4  POLE ORDER IN MONO ZONE                  4
 *******************************************************************************
 TYPE OF CALCULATION :  RESTRICTED CLOSED SHELL
 KOHN-SHAM HAMILTONIAN

 (EXCHANGE)[CORRELATION] FUNCTIONAL:(PERDEW-BURKE-ERNZERHOF)[PERDEW-BURKE-ERNZERHOF]


 CAPPA:IS1  3;IS2  3;IS3  3; K PTS MONK NET   6; SYMMOPS:K SPACE   8;G SPACE   4

 *******************************************************************************
 MAX NUMBER OF SCF CYCLES      50  CONVERGENCE ON DELTAP        10**-16
 WEIGHT OF F(I) IN F(I+1)      30% CONVERGENCE ON ENERGY        10**- 6
 SHRINK. FACT.(MONKH.)    3  3  3  NUMBER OF K POINTS IN THE IBZ      6
 SHRINKING FACTOR(GILAT NET)    3  NUMBER OF K POINTS(GILAT NET)      6
 *******************************************************************************
 *** K POINTS COORDINATES (OBLIQUE COORDINATES IN UNITS OF IS =  3)
   1-R(  0  0  0)   2-C(  1  0  0)   3-C(  1  1  0)   4-C(  2  1  0)
   5-C(  2  1  1)   6-C(  2  2  1)

 DIRECT LATTICE VECTORS COMPON. (A.U.)     RECIP. LATTICE VECTORS COMPON. (A.U.) 
        X            Y            Z              X            Y            Z
  -10.4031721   10.4031721   12.9823169      0.0000000    0.3019841    0.2419901
   10.4031721  -10.4031721   12.9823169      0.3019841    0.0000000    0.2419901
   10.4031721   10.4031721  -12.9823169      0.3019841    0.3019841    0.0000000

 DISK SPACE FOR EIGENVECTORS (FTN 10)    13798400 REALS

 SYMMETRY ADAPTION OF THE BLOCH FUNCTIONS ENABLED
 TTTTTTTTTTTTTTTTTTTTTTTTTTTTTT gordsh1     TELAPSE        9.52 TCPU        0.06

 MATRIX SIZE: P(G) 1761528, F(G)  881412, P(G) IRR  222674, F(G) IRR  222674
 MAX G-VECTOR INDEX FOR 1- AND 2-ELECTRON INTEGRALS  63

 TTTTTTTTTTTTTTTTTTTTTTTTTTTTTT INPUT       TELAPSE        9.56 TCPU        0.10

 NEIGHBORS OF THE NON-EQUIVALENT ATOMS

 N = NUMBER OF NEIGHBORS AT DISTANCE R
    ATOM  N     R/ANG      R/AU   NEIGHBORS (ATOM LABELS AND CELL INDICES)
   1 H    1     1.0941     2.0676   17 C    0 0 0
   1 H    1     2.0834     3.9371   45 N    0 0 0
   1 H    1     2.1726     4.1055   26 C    0 0 0
   1 H    1     2.2350     4.2235   46 N    0 0 0
   1 H    1     2.5564     4.8310    2 H    0 0 0
   1 H    1     2.7893     5.2709   18 C    0 0 0

   5 C    1     1.4112     2.6668   13 C    0 0 0
   5 C    1     1.4125     2.6692   21 C    0 0 0
   5 C    1     1.4734     2.7842    9 C    0 0 0
   5 C    1     2.4374     4.6060   45 N    0 0 0
   5 C    1     2.4381     4.6074   26 C    0 0 0
   5 C    1     2.4717     4.6708   29 N    0-1 0

   9 C    1     1.3648     2.5792   29 N    0-1 0
   9 C    1     1.3690     2.5870   37 N    0-1 0
   9 C    1     1.4734     2.7842    5 C    0 0 0
   9 C    1     2.1938     4.1457   41 N    0-1 0
   9 C    1     2.1952     4.1483   33 N    0-1 0
   9 C    1     2.5265     4.7744   13 C    0 0 0

  13 C    1     1.4072     2.6592   26 C    0 0 0
  13 C    1     1.4112     2.6668    5 C    0 0 0
  13 C    1     1.7201     3.2506   49 CL   0-1 0
  13 C    1     2.3770     4.4919   21 C    0 0 0
  13 C    1     2.4177     4.5688   17 C    0 0 0
  13 C    1     2.5265     4.7744    9 C    0 0 0

  17 C    1     1.0941     2.0676    1 H    0 0 0
  17 C    1     1.3406     2.5334   45 N    0 0 0
  17 C    1     1.3941     2.6345   26 C    0 0 0
  17 C    1     2.2929     4.3330   21 C    0 0 0
  17 C    1     2.4177     4.5688   13 C    0 0 0
  17 C    1     2.6593     5.0254   57 CL   0 0 0

  21 C    1     1.3258     2.5054   45 N    0 0 0
  21 C    1     1.4125     2.6692    5 C    0 0 0
  21 C    1     1.7278     3.2651   53 CL   0 0 0
  21 C    1     2.2929     4.3330   17 C    0 0 0
  21 C    1     2.3770     4.4919   13 C    0 0 0
  21 C    1     2.5280     4.7772    9 C    0 0 0

  25 C    1     1.3941     2.6345   18 C    0 0 0
  25 C    1     1.4072     2.6592   14 C    0 0 0
  25 C    1     1.7159     3.2425   58 CL   0 0 0
  25 C    1     2.1726     4.1055    2 H    0 0 0
  25 C    1     2.3858     4.5086   46 N    0 0 0
  25 C    1     2.4381     4.6074    6 C    0 0 0

  29 N    1     1.3648     2.5792    9 C    0 1 0
  29 N    1     1.3726     2.5939   33 N    0 0 0
  29 N    1     2.1911     4.1406   41 N    0 0 0
  29 N    1     2.1939     4.1459   61 ZN   1 1 0
  29 N    1     2.2248     4.2042   37 N    0 0 0
  29 N    1     2.4717     4.6708    5 C    0 1 0

  33 N    1     1.3179     2.4904   41 N    0 0 0
  33 N    1     1.3726     2.5939   29 N    0 0 0
  33 N    1     2.1952     4.1483    9 C    0 1 0
  33 N    1     2.2019     4.1610   37 N    0 0 0
  33 N    1     2.9410     5.5578   54 CL   1 1 1
  33 N    1     2.9774     5.6266   23 C    0 0 0

  37 N    1     1.3690     2.5870    9 C    0 1 0
  37 N    1     1.3789     2.6057   41 N    0 0 0
  37 N    1     2.1057     3.9792   62 ZN   0 0 0
  37 N    1     2.2019     4.1610   33 N    0 0 0
  37 N    1     2.2248     4.2042   29 N    0 0 0
  37 N    1     2.5744     4.8649    5 C    0 1 0

  41 N    1     1.3179     2.4904   33 N    0 0 0
  41 N    1     1.3789     2.6057   37 N    0 0 0
  41 N    1     2.1911     4.1406   29 N    0 0 0
  41 N    1     2.1938     4.1457    9 C    0 1 0
  41 N    1     2.8232     5.3351   62 ZN   0 0 0
  41 N    1     2.8450     5.3763   50 CL   0 0 0

  45 N    1     1.3258     2.5054   21 C    0 0 0
  45 N    1     1.3406     2.5334   17 C    0 0 0
  45 N    1     2.0834     3.9371    1 H    0 0 0
  45 N    1     2.2350     4.2235    2 H    0 0 0
  45 N    1     2.3858     4.5086   26 C    0 0 0
  45 N    1     2.4374     4.6060    5 C    0 0 0

  49 CL   1     1.7201     3.2506   13 C    0 1 0
  49 CL   1     2.6919     5.0870    5 C    0 1 0
  49 CL   1     2.7393     5.1765   26 C    0 1 0
  49 CL   1     2.8450     5.3763   42 N    0 0 0
  49 CL   1     3.0445     5.7533   58 CL   0 0-1
  49 CL   1     3.0485     5.7608    9 C    0 1 0

  53 CL   1     1.7278     3.2651   21 C    0 0 0
  53 CL   1     2.5746     4.8654   45 N    0 0 0
  53 CL   1     2.7233     5.1463    5 C    0 0 0
  53 CL   1     2.8612     5.4069   30 N    0 0 1
  53 CL   1     2.8754     5.4338   61 ZN   1 0 0
  53 CL   1     2.9410     5.5578   34 N    0 0 1

  57 CL   1     1.7159     3.2425   26 C    0 0 0
  57 CL   1     2.6593     5.0254   17 C    0 0 0
  57 CL   1     2.7545     5.2053   13 C    0 0 0
  57 CL   1     2.8068     5.3040    1 H    0 0 0
  57 CL   1     3.0445     5.7533   50 CL  -1-1-1
  57 CL   1     3.1465     5.9459   58 CL   0-1-1

  61 ZN   4     2.1939     4.1459   29 N   -1-1 0   30 N   -1 0 1   31 N    0 0 1
                                    32 N   -1 0 0
  61 ZN   4     2.8754     5.4338   53 CL  -1 0 0   54 CL   0 0 1   55 CL  -1-1 0
                                    56 CL  -1 0 1
  61 ZN   4     3.0000     5.6691   33 N   -1-1 0   34 N   -1 0 1   35 N    0 0 1
                                    36 N   -1 0 0
  61 ZN   4     3.3455     6.3220    9 C   -1 0 0   10 C    0 0 1   11 C   -1-1 0
                                    12 C   -1 0 1
  61 ZN   4     3.5944     6.7924   21 C   -1 0 0   22 C    0 0 1   23 C   -1-1 0
                                    24 C   -1 0 1
  61 ZN   4     3.8202     7.2192    5 C   -1 0 0    6 C    0 0 1    7 C   -1-1 0
                                     8 C   -1 0 1

  62 ZN   4     2.1057     3.9792   37 N    0 0 0   38 N    0 0 0   39 N    1 1 0
                                    40 N    1 1 0
  62 ZN   4     2.8232     5.3351   41 N    0 0 0   42 N    0 0 0   43 N    1 1 0
                                    44 N    1 1 0
  62 ZN   4     3.3436     6.3186    9 C    0 1 0   10 C    1 0 0   11 C    0 0-1
                                    12 C    1 1 1
  62 ZN   4     3.3587     6.3471   49 CL   0 0 0   50 CL   0 0 0   51 CL   1 1 0
                                    52 CL   1 1 0
  62 ZN   4     4.0570     7.6666   33 N    0 0 0   34 N    0 0 0   35 N    1 1 0
                                    36 N    1 1 0
  62 ZN   4     4.0937     7.7359    5 C    0 1 0    6 C    1 0 0    7 C    0 0-1
                                     8 C    1 1 1


 SYMMETRY ALLOWED INTERNAL DEGREE(S) OF FREEDOM:  45
 TTTTTTTTTTTTTTTTTTTTTTTTTTTTTT SYMM        TELAPSE       10.08 TCPU        0.61
 TTTTTTTTTTTTTTTTTTTTTTTTTTTTTT INT_SCREEN  TELAPSE       10.09 TCPU        0.62
 INFORMATION **** EXCBUF **** EXCH. BIPO BUFFER: WORDS USED =           0

 DFT PARAMETERS

     ATOM       ELECTRONS   NET CHARGE   R(ANGSTROM)
   1   1  H       1.0000      0.0000     1.11000000
   5   6  C       6.0000      0.0000     0.77000000
  29   7  N       7.0000      0.0000     0.74000000
  49  17  CL     17.0000      0.0000     0.99000000
  61  30  ZN     30.0000      0.0000     1.37000000

 SIZE OF GRID=     487393
 TTTTTTTTTTTTTTTTTTTTTTTTTTTTTT MAKE_GRID2  TELAPSE       10.81 TCPU        1.34
 BECKE WEIGHT FUNCTION
 RADSAFE =     2.00
 TOLERANCES - DENSITY:10**- 6; POTENTIAL:10**- 9; GRID WGT:10**-14

 RADIAL INTEGRATION  - INTERVALS (POINTS,UPPER LIMIT):            1( 75,  4.0*R)

 ANGULAR INTEGRATION - INTERVALS (ACCURACY LEVEL [N. POINTS] UPPER LIMIT):
  1(  4[  86]   0.2)  2(  8[ 194]   0.5)  3( 12[ 350]   0.9)  4( 16[ 974]   3.5)
  5( 12[ 350]9999.0)
 TTTTTTTTTTTTTTTTTTTTTTTTTTTTTT INT_CALC    TELAPSE       10.86 TCPU        1.39
 EEEEEEEEEE INT_CALC TERMINATION  DATE 05 12 2023 TIME 05:33:51.8

 *******************************************************************************
 Z:\home\sanoj\Downloads\tmp_p\newconn.mol                                       
 CRYSTAL - SCF - TYPE OF CALCULATION :  RESTRICTED CLOSED SHELL
 *******************************************************************************

 CAPPA:IS1  3;IS2  3;IS3  3; K PTS MONK NET   6; SYMMOPS:K SPACE   8;G SPACE   4

 TTTTTTTTTTTTTTTTTTTTTTTTTTTTTT SDIK        TELAPSE       11.10 TCPU        1.63

 AAAAAAAAAAAAAAAAAAAAAAAAAAAAAAAAAAAAAAAAAAAAAAAAAAAAAAAAAAAAAAAAAAAAAAAAAAAAAAA
         ATOMIC WAVEFUNCTION(S)


 NUCLEAR CHARGE  1.0  SYMMETRY SPECIES            S
 N. ELECTRONS    1.0  NUMBER OF PRIMITIVE GTOS    4
                      NUMBER OF CONTRACTED GTOS   2
                      NUMBER OF CLOSED SHELLS     0
                      OPEN SHELL OCCUPATION       1

  ZNUC SCFIT  TOTAL HF ENERGY   KINETIC ENERGY   VIRIAL THEOREM ACCURACY
   1.0   1   -4.946643675E-01  4.917913167E-01 -2.005842012E+00  9.4E-17

 NUCLEAR CHARGE  6.0  SYMMETRY SPECIES            S    P
 N. ELECTRONS    6.0  NUMBER OF PRIMITIVE GTOS    7    4
                      NUMBER OF CONTRACTED GTOS   3    2
                      NUMBER OF CLOSED SHELLS     2    0
                      OPEN SHELL OCCUPATION       0    2

  ZNUC SCFIT  TOTAL HF ENERGY   KINETIC ENERGY   VIRIAL THEOREM ACCURACY
   6.0   6   -3.750912652E+01  3.905246519E+01 -1.960480378E+00  3.7E-06

 NUCLEAR CHARGE  7.0  SYMMETRY SPECIES            S    P
 N. ELECTRONS    7.0  NUMBER OF PRIMITIVE GTOS    7    4
                      NUMBER OF CONTRACTED GTOS   3    2
                      NUMBER OF CLOSED SHELLS     2    0
                      OPEN SHELL OCCUPATION       0    3

  ZNUC SCFIT  TOTAL HF ENERGY   KINETIC ENERGY   VIRIAL THEOREM ACCURACY
   7.0   9   -5.432196661E+01  5.425066284E+01 -2.001314339E+00  1.2E-06

 NUCLEAR CHARGE 17.0  SYMMETRY SPECIES            S    P
 N. ELECTRONS   17.0  NUMBER OF PRIMITIVE GTOS   10    7
                      NUMBER OF CONTRACTED GTOS   4    3
                      NUMBER OF CLOSED SHELLS     3    1
                      OPEN SHELL OCCUPATION       0    5

  ZNUC SCFIT  TOTAL HF ENERGY   KINETIC ENERGY   VIRIAL THEOREM ACCURACY
  17.0   9   -4.593005957E+02  4.593991532E+02 -1.999785464E+00  2.3E-06

 NUCLEAR CHARGE 30.0  SYMMETRY SPECIES            S    P    D
 N. ELECTRONS   30.0  NUMBER OF PRIMITIVE GTOS   14    9    5
                      NUMBER OF CONTRACTED GTOS   5    3    2
                      NUMBER OF CLOSED SHELLS     4    2    1
                      OPEN SHELL OCCUPATION       0    0    0

  ZNUC SCFIT  TOTAL HF ENERGY   KINETIC ENERGY   VIRIAL THEOREM ACCURACY
  30.0  10   -1.777404290E+03  1.777325716E+03 -2.000044209E+00  2.5E-06

 AAAAAAAAAAAAAAAAAAAAAAAAAAAAAAAAAAAAAAAAAAAAAAAAAAAAAAAAAAAAAAAAAAAAAAAAAAAAAAA

 TOTAL ATOMIC CHARGES:
   1.0000000   1.0000000   1.0000000   1.0000000   6.0000000   6.0000000
   6.0000000   6.0000000   6.0000000   6.0000000   6.0000000   6.0000000
   6.0000000   6.0000000   6.0000000   6.0000000   6.0000000   6.0000000
   6.0000000   6.0000000   6.0000000   6.0000000   6.0000000   6.0000000
   6.0000000   6.0000000   6.0000000   6.0000000   7.0000000   7.0000000
   7.0000000   7.0000000   7.0000000   7.0000000   7.0000000   7.0000000
   7.0000000   7.0000000   7.0000000   7.0000000   7.0000000   7.0000000
   7.0000000   7.0000000   7.0000000   7.0000000   7.0000000   7.0000000
  17.0000000  17.0000000  17.0000000  17.0000000  17.0000000  17.0000000
  17.0000000  17.0000000  17.0000000  17.0000000  17.0000000  17.0000000
  30.0000000  30.0000000
 TTTTTTTTTTTTTTTTTTTTTTTTTTTTTT MOQGAD      TELAPSE       14.58 TCPU        5.10
 TTTTTTTTTTTTTTTTTTTTTTTTTTTTTT SHELLXN     TELAPSE       69.00 TCPU       58.40
 TTTTTTTTTTTTTTTTTTTTTTTTTTTTTT MONMO3      TELAPSE       77.15 TCPU       66.53
 NUMERICALLY INTEGRATED DENSITY    551.9999085618
 TTTTTTTTTTTTTTTTTTTTTTTTTTTTTT NUMDFT      TELAPSE       79.24 TCPU       68.61
 CYC   0 ETOT(AU) -1.108899094006E+04 DETOT -1.11E+04 tst  0.00E+00 PX  1.00E+00
 TTTTTTTTTTTTTTTTTTTTTTTTTTTTTT DIIS        TELAPSE       79.33 TCPU       68.70
 TTTTTTTTTTTTTTTTTTTTTTTTTTTTTT FDIK        TELAPSE      135.60 TCPU      118.39
 INSULATING STATE
 TOP OF VALENCE BANDS -    BAND    276; K    4; EIG -1.2785223E-01 AU
 TOP OF VALENCE BANDS -    BAND    276; K    1; EIG -1.2856895E-01 AU
 BOTTOM OF VIRTUAL BANDS - BAND    277; K    6; EIG -9.2749067E-02 AU
 INDIRECT ENERGY BAND GAP:   0.9552 eV
 BOTTOM OF VIRTUAL BANDS - BAND    277; K    1; EIG -9.0350793E-02 AU
 TTTTTTTTTTTTTTTTTTTTTTTTTTTTTT PDIG        TELAPSE      136.45 TCPU      119.24
 TOTAL ATOMIC CHARGES:
   1.3005745   1.3005745   1.3005745   1.3005745   6.3005119   6.3005119
   6.3005119   6.3005119   5.5110125   5.5110125   5.5110125   5.5110125
   5.4828443   5.4828443   5.4828443   5.4828443   5.9834085   5.9834085
   5.9834085   5.9834085   5.0822141   5.0822141   5.0822141   5.0822141
   5.4076705   5.4076705   5.4076705   5.4076705   7.4819374   7.4819374
   7.4819374   7.4819374   7.2103689   7.2103689   7.2103689   7.2103689
   7.4532119   7.4532119   7.4532119   7.4532119   7.1592957   7.1592957
   7.1592957   7.1592957   7.5718056   7.5718056   7.5718056   7.5718056
  17.3107034  17.3107034  17.3107034  17.3107034  17.3654608  17.3654608
  17.3654608  17.3654608  17.3608553  17.3608553  17.3608553  17.3608553
  28.0367794  28.0357193
 TTTTTTTTTTTTTTTTTTTTTTTTTTTTTT MOQGAD      TELAPSE      136.50 TCPU      119.29
 TTTTTTTTTTTTTTTTTTTTTTTTTTTTTT SHELLXN     TELAPSE      205.59 TCPU      181.70
 TTTTTTTTTTTTTTTTTTTTTTTTTTTTTT MONMO3      TELAPSE      212.54 TCPU      188.63
 NUMERICALLY INTEGRATED DENSITY    551.9998811642
 TTTTTTTTTTTTTTTTTTTTTTTTTTTTTT NUMDFT      TELAPSE      218.20 TCPU      194.27
 CYC   1 ETOT(AU) -1.108328092804E+04 DETOT  5.71E+00 tst  0.00E+00 PX  1.00E+00
 TTTTTTTTTTTTTTTTTTTTTTTTTTTTTT DIIS        TELAPSE      218.65 TCPU      194.72
 DIIS TEST: 0.86754E+01 AT SCF   CYCLE   1 - MIX   30 %
 TTTTTTTTTTTTTTTTTTTTTTTTTTTTTT FDIK        TELAPSE      238.01 TCPU      209.99
 INSULATING STATE
 TOP OF VALENCE BANDS -    BAND    276; K    4; EIG -1.4832985E-01 AU
 TOP OF VALENCE BANDS -    BAND    276; K    1; EIG -1.4958724E-01 AU
 BOTTOM OF VIRTUAL BANDS - BAND    277; K    6; EIG -1.2872644E-01 AU
 INDIRECT ENERGY BAND GAP:   0.5334 eV
 BOTTOM OF VIRTUAL BANDS - BAND    277; K    1; EIG -1.2418543E-01 AU
 TTTTTTTTTTTTTTTTTTTTTTTTTTTTTT PDIG        TELAPSE      238.85 TCPU      210.84
 TOTAL ATOMIC CHARGES:
   1.2769146   1.2769146   1.2769146   1.2769146   6.2825965   6.2825965
   6.2825965   6.2825965   6.4547317   6.4547317   6.4547317   6.4547317
   6.2636138   6.2636138   6.2636138   6.2636138   5.9168699   5.9168699
   5.9168699   5.9168699   6.1452583   6.1452583   6.1452583   6.1452583
   5.8001169   5.8001169   5.8001169   5.8001169   6.8928523   6.8928523
   6.8928523   6.8928523   6.9288794   6.9288794   6.9288794   6.9288794
   6.9453443   6.9453443   6.9453443   6.9453443   6.8803212   6.8803212
   6.8803212   6.8803212   5.9739887   5.9739887   5.9739887   5.9739887
  17.1225755  17.1225755  17.1225755  17.1225755  17.2847583  17.2847583
  17.2847583  17.2847583  17.1246192  17.1246192  17.1246192  17.1246192
  29.4405947  29.3856431
 TTTTTTTTTTTTTTTTTTTTTTTTTTTTTT MOQGAD      TELAPSE      238.90 TCPU      210.88
 TTTTTTTTTTTTTTTTTTTTTTTTTTTTTT SHELLXN     TELAPSE      303.10 TCPU      272.80
 TTTTTTTTTTTTTTTTTTTTTTTTTTTTTT MONMO3      TELAPSE      308.97 TCPU      278.65
 NUMERICALLY INTEGRATED DENSITY    551.9998690710
 TTTTTTTTTTTTTTTTTTTTTTTTTTTTTT NUMDFT      TELAPSE      314.67 TCPU      284.33
 CYC   2 ETOT(AU) -1.108141728752E+04 DETOT  1.86E+00 tst  1.29E-02 PX  5.88E-01
 TTTTTTTTTTTTTTTTTTTTTTTTTTTTTT DIIS        TELAPSE      315.03 TCPU      284.68
 DIIS TEST: 0.23639E+02 AT SCF   CYCLE   2 - DIIS ACTIVE - HISTORY:     2 CYCLES
 TTTTTTTTTTTTTTTTTTTTTTTTTTTTTT FDIK        TELAPSE      334.28 TCPU      300.60
 INSULATING STATE
 TOP OF VALENCE BANDS -    BAND    276; K    3; EIG -2.3484385E-01 AU
 TOP OF VALENCE BANDS -    BAND    276; K    1; EIG -2.3687556E-01 AU
 BOTTOM OF VIRTUAL BANDS - BAND    277; K    6; EIG -1.2702404E-01 AU
 INDIRECT ENERGY BAND GAP:   2.9339 eV
 BOTTOM OF VIRTUAL BANDS - BAND    277; K    1; EIG -1.2583935E-01 AU
 TTTTTTTTTTTTTTTTTTTTTTTTTTTTTT PDIG        TELAPSE      335.14 TCPU      301.46
 TOTAL ATOMIC CHARGES:
   1.2292162   1.2292162   1.2292162   1.2292162   5.9809766   5.9809766
   5.9809766   5.9809766   5.9568638   5.9568638   5.9568638   5.9568638
   5.7014945   5.7014945   5.7014945   5.7014945   6.2234446   6.2234446
   6.2234446   6.2234446   5.6652407   5.6652407   5.6652407   5.6652407
   5.6095332   5.6095332   5.6095332   5.6095332   7.0870290   7.0870290
   7.0870290   7.0870290   7.1124130   7.1124130   7.1124130   7.1124130
   7.0560448   7.0560448   7.0560448   7.0560448   7.0810535   7.0810535
   7.0810535   7.0810535   7.2905313   7.2905313   7.2905313   7.2905313
  17.1651602  17.1651602  17.1651602  17.1651602  17.1391882  17.1391882
  17.1391882  17.1391882  17.1316353  17.1316353  17.1316353  17.1316353
  29.1217895  29.1589109
 TTTTTTTTTTTTTTTTTTTTTTTTTTTTTT MOQGAD      TELAPSE      335.19 TCPU      301.50
 TTTTTTTTTTTTTTTTTTTTTTTTTTTTTT SHELLXN     TELAPSE      399.40 TCPU      363.26
 TTTTTTTTTTTTTTTTTTTTTTTTTTTTTT MONMO3      TELAPSE      405.78 TCPU      369.61
 NUMERICALLY INTEGRATED DENSITY    551.9998789518
 TTTTTTTTTTTTTTTTTTTTTTTTTTTTTT NUMDFT      TELAPSE      411.48 TCPU      375.30
 CYC   3 ETOT(AU) -1.108442274869E+04 DETOT -3.01E+00 tst  1.06E-02 PX  3.16E-01
 TTTTTTTTTTTTTTTTTTTTTTTTTTTTTT DIIS        TELAPSE      411.70 TCPU      375.52
 DIIS TEST: 0.27260E+01 AT SCF   CYCLE   3 - DIIS ACTIVE - HISTORY:     3 CYCLES
 TTTTTTTTTTTTTTTTTTTTTTTTTTTTTT FDIK        TELAPSE      429.53 TCPU      390.70
 INSULATING STATE
 TOP OF VALENCE BANDS -    BAND    276; K    4; EIG -2.2922213E-01 AU
 TOP OF VALENCE BANDS -    BAND    276; K    1; EIG -2.3111315E-01 AU
 BOTTOM OF VIRTUAL BANDS - BAND    277; K    6; EIG -1.2582220E-01 AU
 INDIRECT ENERGY BAND GAP:   2.8137 eV
 BOTTOM OF VIRTUAL BANDS - BAND    277; K    1; EIG -1.2230986E-01 AU
 TTTTTTTTTTTTTTTTTTTTTTTTTTTTTT PDIG        TELAPSE      430.37 TCPU      391.54
 TOTAL ATOMIC CHARGES:
   1.2639663   1.2639663   1.2639663   1.2639663   6.2913485   6.2913485
   6.2913485   6.2913485   5.8568428   5.8568428   5.8568428   5.8568428
   5.8030375   5.8030375   5.8030375   5.8030375   5.8952139   5.8952139
   5.8952139   5.8952139   5.4713182   5.4713182   5.4713182   5.4713182
   5.5795611   5.5795611   5.5795611   5.5795611   7.2722382   7.2722382
   7.2722382   7.2722382   7.0794172   7.0794172   7.0794172   7.0794172
   7.2604021   7.2604021   7.2604021   7.2604021   7.0381933   7.0381933
   7.0381933   7.0381933   7.0155007   7.0155007   7.0155007   7.0155007
  17.2311946  17.2311946  17.2311946  17.2311946  17.2810789  17.2810789
  17.2810789  17.2810789  17.2696168  17.2696168  17.2696168  17.2696168
  28.7742887  28.7899905
 TTTTTTTTTTTTTTTTTTTTTTTTTTTTTT MOQGAD      TELAPSE      430.42 TCPU      391.59
 TTTTTTTTTTTTTTTTTTTTTTTTTTTTTT SHELLXN     TELAPSE      494.53 TCPU      453.18
 TTTTTTTTTTTTTTTTTTTTTTTTTTTTTT MONMO3      TELAPSE      500.63 TCPU      459.27
 NUMERICALLY INTEGRATED DENSITY    551.9998818850
 TTTTTTTTTTTTTTTTTTTTTTTTTTTTTT NUMDFT      TELAPSE      506.30 TCPU      464.92
 CYC   4 ETOT(AU) -1.108481464944E+04 DETOT -3.92E-01 tst  4.02E-03 PX  2.32E-01
 TTTTTTTTTTTTTTTTTTTTTTTTTTTTTT DIIS        TELAPSE      517.23 TCPU      475.81
 DIIS TEST: 0.63232E+00 AT SCF   CYCLE   4 - DIIS ACTIVE - HISTORY:     4 CYCLES
 TTTTTTTTTTTTTTTTTTTTTTTTTTTTTT FDIK        TELAPSE      535.51 TCPU      490.79
 INSULATING STATE
 TOP OF VALENCE BANDS -    BAND    276; K    1; EIG -2.4169887E-01 AU
 BOTTOM OF VIRTUAL BANDS - BAND    277; K    6; EIG -1.2974498E-01 AU
 INDIRECT ENERGY BAND GAP:   3.0464 eV
 BOTTOM OF VIRTUAL BANDS - BAND    277; K    1; EIG -1.2728487E-01 AU
 TTTTTTTTTTTTTTTTTTTTTTTTTTTTTT PDIG        TELAPSE      536.37 TCPU      491.65
 TOTAL ATOMIC CHARGES:
   1.2518603   1.2518603   1.2518603   1.2518603   6.2228158   6.2228158
   6.2228158   6.2228158   5.9088469   5.9088469   5.9088469   5.9088469
   5.7858061   5.7858061   5.7858061   5.7858061   6.0260140   6.0260140
   6.0260140   6.0260140   5.5743946   5.5743946   5.5743946   5.5743946
   5.5902688   5.5902688   5.5902688   5.5902688   7.1915461   7.1915461
   7.1915461   7.1915461   7.1396261   7.1396261   7.1396261   7.1396261
   7.1542394   7.1542394   7.1542394   7.1542394   7.0575144   7.0575144
   7.0575144   7.0575144   7.0669045   7.0669045   7.0669045   7.0669045
  17.1851340  17.1851340  17.1851340  17.1851340  17.2546198  17.2546198
  17.2546198  17.2546198  17.2084430  17.2084430  17.2084430  17.2084430
  28.7641093  28.7637556
 TTTTTTTTTTTTTTTTTTTTTTTTTTTTTT MOQGAD      TELAPSE      536.42 TCPU      491.70
 TTTTTTTTTTTTTTTTTTTTTTTTTTTTTT SHELLXN     TELAPSE      601.16 TCPU      553.60
 TTTTTTTTTTTTTTTTTTTTTTTTTTTTTT MONMO3      TELAPSE      606.95 TCPU      559.37
 NUMERICALLY INTEGRATED DENSITY    551.9998790950
 TTTTTTTTTTTTTTTTTTTTTTTTTTTTTT NUMDFT      TELAPSE      612.64 TCPU      565.05
 CYC   5 ETOT(AU) -1.108489414356E+04 DETOT -7.95E-02 tst  5.23E-04 PX  4.31E-02
 TTTTTTTTTTTTTTTTTTTTTTTTTTTTTT DIIS        TELAPSE      613.09 TCPU      565.49
 DIIS TEST: 0.88732E-01 AT SCF   CYCLE   5 - DIIS ACTIVE - HISTORY:     5 CYCLES
 TTTTTTTTTTTTTTTTTTTTTTTTTTTTTT FDIK        TELAPSE      629.77 TCPU      576.83
 INSULATING STATE
 TOP OF VALENCE BANDS -    BAND    276; K    1; EIG -2.3961774E-01 AU
 BOTTOM OF VIRTUAL BANDS - BAND    277; K    6; EIG -1.2724990E-01 AU
 INDIRECT ENERGY BAND GAP:   3.0577 eV
 BOTTOM OF VIRTUAL BANDS - BAND    277; K    1; EIG -1.2447904E-01 AU
 TTTTTTTTTTTTTTTTTTTTTTTTTTTTTT PDIG        TELAPSE      630.62 TCPU      577.68
 TOTAL ATOMIC CHARGES:
   1.2544882   1.2544882   1.2544882   1.2544882   6.2002173   6.2002173
   6.2002173   6.2002173   5.8834829   5.8834829   5.8834829   5.8834829
   5.7713744   5.7713744   5.7713744   5.7713744   6.0111913   6.0111913
   6.0111913   6.0111913   5.5184153   5.5184153   5.5184153   5.5184153
   5.5816887   5.5816887   5.5816887   5.5816887   7.2044948   7.2044948
   7.2044948   7.2044948   7.0717992   7.0717992   7.0717992   7.0717992
   7.2257274   7.2257274   7.2257274   7.2257274   7.0757636   7.0757636
   7.0757636   7.0757636   7.0917922   7.0917922   7.0917922   7.0917922
  17.2196512  17.2196512  17.2196512  17.2196512  17.2578621  17.2578621
  17.2578621  17.2578621  17.2324603  17.2324603  17.2324603  17.2324603
  28.7937672  28.8045971
 TTTTTTTTTTTTTTTTTTTTTTTTTTTTTT MOQGAD      TELAPSE      630.67 TCPU      577.73
 TTTTTTTTTTTTTTTTTTTTTTTTTTTTTT SHELLXN     TELAPSE      694.84 TCPU      639.39
 TTTTTTTTTTTTTTTTTTTTTTTTTTTTTT MONMO3      TELAPSE      701.43 TCPU      645.96
 NUMERICALLY INTEGRATED DENSITY    551.9998793696
 TTTTTTTTTTTTTTTTTTTTTTTTTTTTTT NUMDFT      TELAPSE      707.10 TCPU      651.62
 CYC   6 ETOT(AU) -1.108490420969E+04 DETOT -1.01E-02 tst  5.32E-05 PX  3.91E-02
 TTTTTTTTTTTTTTTTTTTTTTTTTTTTTT DIIS        TELAPSE      707.55 TCPU      652.05
 DIIS TEST: 0.31378E-01 AT SCF   CYCLE   6 - DIIS ACTIVE - HISTORY:     6 CYCLES
 TTTTTTTTTTTTTTTTTTTTTTTTTTTTTT FDIK        TELAPSE      725.19 TCPU      666.99
 INSULATING STATE
 TOP OF VALENCE BANDS -    BAND    276; K    1; EIG -2.3938702E-01 AU
 BOTTOM OF VIRTUAL BANDS - BAND    277; K    6; EIG -1.2734443E-01 AU
 INDIRECT ENERGY BAND GAP:   3.0488 eV
 BOTTOM OF VIRTUAL BANDS - BAND    277; K    1; EIG -1.2476695E-01 AU
 TTTTTTTTTTTTTTTTTTTTTTTTTTTTTT PDIG        TELAPSE      726.05 TCPU      667.85
 TOTAL ATOMIC CHARGES:
   1.2541799   1.2541799   1.2541799   1.2541799   6.2031954   6.2031954
   6.2031954   6.2031954   5.8899675   5.8899675   5.8899675   5.8899675
   5.7712630   5.7712630   5.7712630   5.7712630   6.0034242   6.0034242
   6.0034242   6.0034242   5.5349306   5.5349306   5.5349306   5.5349306
   5.5801146   5.5801146   5.5801146   5.5801146   7.2325314   7.2325314
   7.2325314   7.2325314   7.1181635   7.1181635   7.1181635   7.1181635
   7.1780063   7.1780063   7.1780063   7.1780063   7.0431332   7.0431332
   7.0431332   7.0431332   7.0979754   7.0979754   7.0979754   7.0979754
  17.2093982  17.2093982  17.2093982  17.2093982  17.2528785  17.2528785
  17.2528785  17.2528785  17.2284595  17.2284595  17.2284595  17.2284595
  28.8012019  28.8083130
 TTTTTTTTTTTTTTTTTTTTTTTTTTTTTT MOQGAD      TELAPSE      726.09 TCPU      667.89
 TTTTTTTTTTTTTTTTTTTTTTTTTTTTTT SHELLXN     TELAPSE      790.29 TCPU      729.55
 TTTTTTTTTTTTTTTTTTTTTTTTTTTTTT MONMO3      TELAPSE      796.73 TCPU      735.96
 NUMERICALLY INTEGRATED DENSITY    551.9998799298
 TTTTTTTTTTTTTTTTTTTTTTTTTTTTTT NUMDFT      TELAPSE      802.40 TCPU      741.58
 CYC   7 ETOT(AU) -1.108490703867E+04 DETOT -2.83E-03 tst  2.44E-05 PX  1.28E-02
 TTTTTTTTTTTTTTTTTTTTTTTTTTTTTT DIIS        TELAPSE      802.67 TCPU      741.85
 DIIS TEST: 0.16685E-01 AT SCF   CYCLE   7 - DIIS ACTIVE - HISTORY:     7 CYCLES
 TTTTTTTTTTTTTTTTTTTTTTTTTTTTTT FDIK        TELAPSE      817.24 TCPU      754.22
 INSULATING STATE
 TOP OF VALENCE BANDS -    BAND    276; K    1; EIG -2.3950085E-01 AU
 BOTTOM OF VIRTUAL BANDS - BAND    277; K    6; EIG -1.2773213E-01 AU
 INDIRECT ENERGY BAND GAP:   3.0414 eV
 BOTTOM OF VIRTUAL BANDS - BAND    277; K    1; EIG -1.2509976E-01 AU
 TTTTTTTTTTTTTTTTTTTTTTTTTTTTTT PDIG        TELAPSE      818.09 TCPU      755.07
 TOTAL ATOMIC CHARGES:
   1.2535706   1.2535706   1.2535706   1.2535706   6.2034634   6.2034634
   6.2034634   6.2034634   5.8947515   5.8947515   5.8947515   5.8947515
   5.7742812   5.7742812   5.7742812   5.7742812   6.0119431   6.0119431
   6.0119431   6.0119431   5.5404419   5.5404419   5.5404419   5.5404419
   5.5850530   5.5850530   5.5850530   5.5850530   7.2011935   7.2011935
   7.2011935   7.2011935   7.1051044   7.1051044   7.1051044   7.1051044
   7.1934697   7.1934697   7.1934697   7.1934697   7.0645989   7.0645989
   7.0645989   7.0645989   7.0916113   7.0916113   7.0916113   7.0916113
  17.2070200  17.2070200  17.2070200  17.2070200  17.2484564  17.2484564
  17.2484564  17.2484564  17.2239453  17.2239453  17.2239453  17.2239453
  28.7970725  28.8073100
 TTTTTTTTTTTTTTTTTTTTTTTTTTTTTT MOQGAD      TELAPSE      818.14 TCPU      755.12
 TTTTTTTTTTTTTTTTTTTTTTTTTTTTTT SHELLXN     TELAPSE      882.52 TCPU      816.75
 TTTTTTTTTTTTTTTTTTTTTTTTTTTTTT MONMO3      TELAPSE      888.56 TCPU      822.77
 NUMERICALLY INTEGRATED DENSITY    551.9998798853
 TTTTTTTTTTTTTTTTTTTTTTTTTTTTTT NUMDFT      TELAPSE      894.22 TCPU      828.41
 CYC   8 ETOT(AU) -1.108490947377E+04 DETOT -2.44E-03 tst  5.81E-06 PX  7.96E-03
 TTTTTTTTTTTTTTTTTTTTTTTTTTTTTT DIIS        TELAPSE      894.55 TCPU      828.74
 DIIS TEST: 0.10180E-02 AT SCF   CYCLE   8 - DIIS ACTIVE - HISTORY:     8 CYCLES
 TTTTTTTTTTTTTTTTTTTTTTTTTTTTTT FDIK        TELAPSE      912.39 TCPU      844.18
 INSULATING STATE
 TOP OF VALENCE BANDS -    BAND    276; K    1; EIG -2.3978787E-01 AU
 BOTTOM OF VIRTUAL BANDS - BAND    277; K    6; EIG -1.2782564E-01 AU
 INDIRECT ENERGY BAND GAP:   3.0466 eV
 BOTTOM OF VIRTUAL BANDS - BAND    277; K    1; EIG -1.2524488E-01 AU
 TTTTTTTTTTTTTTTTTTTTTTTTTTTTTT PDIG        TELAPSE      913.26 TCPU      845.05
 TOTAL ATOMIC CHARGES:
   1.2530282   1.2530282   1.2530282   1.2530282   6.2032485   6.2032485
   6.2032485   6.2032485   5.8899580   5.8899580   5.8899580   5.8899580
   5.7714970   5.7714970   5.7714970   5.7714970   6.0157461   6.0157461
   6.0157461   6.0157461   5.5385047   5.5385047   5.5385047   5.5385047
   5.5838453   5.5838453   5.5838453   5.5838453   7.2132869   7.2132869
   7.2132869   7.2132869   7.0998602   7.0998602   7.0998602   7.0998602
   7.1955017   7.1955017   7.1955017   7.1955017   7.0589131   7.0589131
   7.0589131   7.0589131   7.0897906   7.0897906   7.0897906   7.0897906
  17.2077224  17.2077224  17.2077224  17.2077224  17.2535599  17.2535599
  17.2535599  17.2535599  17.2244434  17.2244434  17.2244434  17.2244434
  28.7978569  28.8065189
 TTTTTTTTTTTTTTTTTTTTTTTTTTTTTT MOQGAD      TELAPSE      913.31 TCPU      845.09
 TTTTTTTTTTTTTTTTTTTTTTTTTTTTTT SHELLXN     TELAPSE      977.66 TCPU      907.02
 TTTTTTTTTTTTTTTTTTTTTTTTTTTTTT MONMO3      TELAPSE      983.93 TCPU      913.27
 NUMERICALLY INTEGRATED DENSITY    551.9998796018
 TTTTTTTTTTTTTTTTTTTTTTTTTTTTTT NUMDFT      TELAPSE      989.58 TCPU      918.90
 CYC   9 ETOT(AU) -1.108490958643E+04 DETOT -1.13E-04 tst  7.69E-07 PX  2.67E-03
 TTTTTTTTTTTTTTTTTTTTTTTTTTTTTT DIIS        TELAPSE      989.96 TCPU      919.28
 DIIS TEST: 0.37608E-03 AT SCF   CYCLE   9 - DIIS ACTIVE - HISTORY:     9 CYCLES
 TTTTTTTTTTTTTTTTTTTTTTTTTTTTTT FDIK        TELAPSE     1005.18 TCPU      932.92
 INSULATING STATE
 TOP OF VALENCE BANDS -    BAND    276; K    1; EIG -2.3977913E-01 AU
 BOTTOM OF VIRTUAL BANDS - BAND    277; K    6; EIG -1.2776748E-01 AU
 INDIRECT ENERGY BAND GAP:   3.0480 eV
 BOTTOM OF VIRTUAL BANDS - BAND    277; K    1; EIG -1.2514404E-01 AU
 TTTTTTTTTTTTTTTTTTTTTTTTTTTTTT PDIG        TELAPSE     1006.04 TCPU      933.77
 TOTAL ATOMIC CHARGES:
   1.2532213   1.2532213   1.2532213   1.2532213   6.2038791   6.2038791
   6.2038791   6.2038791   5.8915412   5.8915412   5.8915412   5.8915412
   5.7732367   5.7732367   5.7732367   5.7732367   6.0115852   6.0115852
   6.0115852   6.0115852   5.5367562   5.5367562   5.5367562   5.5367562
   5.5835516   5.5835516   5.5835516   5.5835516   7.2072291   7.2072291
   7.2072291   7.2072291   7.1055385   7.1055385   7.1055385   7.1055385
   7.1919233   7.1919233   7.1919233   7.1919233   7.0611721   7.0611721
   7.0611721   7.0611721   7.0927807   7.0927807   7.0927807   7.0927807
  17.2082866  17.2082866  17.2082866  17.2082866  17.2523648  17.2523648
  17.2523648  17.2523648  17.2254332  17.2254332  17.2254332  17.2254332
  28.7983866  28.8076141
 TTTTTTTTTTTTTTTTTTTTTTTTTTTTTT MOQGAD      TELAPSE     1006.08 TCPU      933.81
 TTTTTTTTTTTTTTTTTTTTTTTTTTTTTT SHELLXN     TELAPSE     1068.24 TCPU      995.53
 TTTTTTTTTTTTTTTTTTTTTTTTTTTTTT MONMO3      TELAPSE     1074.85 TCPU     1002.10
 NUMERICALLY INTEGRATED DENSITY    551.9998797852
 TTTTTTTTTTTTTTTTTTTTTTTTTTTTTT NUMDFT      TELAPSE     1080.56 TCPU     1007.78
 CYC  10 ETOT(AU) -1.108490963364E+04 DETOT -4.72E-05 tst  3.92E-07 PX  1.46E-03
 TTTTTTTTTTTTTTTTTTTTTTTTTTTTTT DIIS        TELAPSE     1081.68 TCPU     1008.89
 DIIS TEST: 0.94405E-04 AT SCF   CYCLE  10 - DIIS ACTIVE - HISTORY:    10 CYCLES
 TTTTTTTTTTTTTTTTTTTTTTTTTTTTTT FDIK        TELAPSE     1097.65 TCPU     1022.65
 INSULATING STATE
 TOP OF VALENCE BANDS -    BAND    276; K    1; EIG -2.3970185E-01 AU
 BOTTOM OF VIRTUAL BANDS - BAND    277; K    6; EIG -1.2783632E-01 AU
 INDIRECT ENERGY BAND GAP:   3.0440 eV
 BOTTOM OF VIRTUAL BANDS - BAND    277; K    1; EIG -1.2522738E-01 AU
 TTTTTTTTTTTTTTTTTTTTTTTTTTTTTT PDIG        TELAPSE     1098.51 TCPU     1023.50
 TOTAL ATOMIC CHARGES:
   1.2531928   1.2531928   1.2531928   1.2531928   6.2033570   6.2033570
   6.2033570   6.2033570   5.8923538   5.8923538   5.8923538   5.8923538
   5.7724747   5.7724747   5.7724747   5.7724747   6.0126431   6.0126431
   6.0126431   6.0126431   5.5387370   5.5387370   5.5387370   5.5387370
   5.5838109   5.5838109   5.5838109   5.5838109   7.2093144   7.2093144
   7.2093144   7.2093144   7.1033421   7.1033421   7.1033421   7.1033421
   7.1934447   7.1934447   7.1934447   7.1934447   7.0602947   7.0602947
   7.0602947   7.0602947   7.0924030   7.0924030   7.0924030   7.0924030
  17.2078923  17.2078923  17.2078923  17.2078923  17.2511464  17.2511464
  17.2511464  17.2511464  17.2245239  17.2245239  17.2245239  17.2245239
  28.7975349  28.8067421
 TTTTTTTTTTTTTTTTTTTTTTTTTTTTTT MOQGAD      TELAPSE     1098.55 TCPU     1023.55
 TTTTTTTTTTTTTTTTTTTTTTTTTTTTTT SHELLXN     TELAPSE     1162.54 TCPU     1084.81
 TTTTTTTTTTTTTTTTTTTTTTTTTTTTTT MONMO3      TELAPSE     1169.18 TCPU     1091.43
 NUMERICALLY INTEGRATED DENSITY    551.9998797705
 TTTTTTTTTTTTTTTTTTTTTTTTTTTTTT NUMDFT      TELAPSE     1174.83 TCPU     1097.06
 CYC  11 ETOT(AU) -1.108490964542E+04 DETOT -1.18E-05 tst  5.10E-08 PX  6.90E-04
 TTTTTTTTTTTTTTTTTTTTTTTTTTTTTT DIIS        TELAPSE     1175.36 TCPU     1097.59
 DIIS TEST: 0.21897E-04 AT SCF   CYCLE  11 - DIIS ACTIVE - HISTORY:    11 CYCLES
 TTTTTTTTTTTTTTTTTTTTTTTTTTTTTT FDIK        TELAPSE     1190.41 TCPU     1110.34
 INSULATING STATE
 TOP OF VALENCE BANDS -    BAND    276; K    1; EIG -2.3974467E-01 AU
 BOTTOM OF VIRTUAL BANDS - BAND    277; K    6; EIG -1.2776620E-01 AU
 INDIRECT ENERGY BAND GAP:   3.0471 eV
 BOTTOM OF VIRTUAL BANDS - BAND    277; K    1; EIG -1.2515920E-01 AU
 TTTTTTTTTTTTTTTTTTTTTTTTTTTTTT PDIG        TELAPSE     1191.27 TCPU     1111.19
 TOTAL ATOMIC CHARGES:
   1.2531881   1.2531881   1.2531881   1.2531881   6.2030301   6.2030301
   6.2030301   6.2030301   5.8914247   5.8914247   5.8914247   5.8914247
   5.7726611   5.7726611   5.7726611   5.7726611   6.0132234   6.0132234
   6.0132234   6.0132234   5.5378421   5.5378421   5.5378421   5.5378421
   5.5840212   5.5840212   5.5840212   5.5840212   7.2091608   7.2091608
   7.2091608   7.2091608   7.1040564   7.1040564   7.1040564   7.1040564
   7.1927726   7.1927726   7.1927726   7.1927726   7.0606437   7.0606437
   7.0606437   7.0606437   7.0915114   7.0915114   7.0915114   7.0915114
  17.2080237  17.2080237  17.2080237  17.2080237  17.2521379  17.2521379
  17.2521379  17.2521379  17.2250468  17.2250468  17.2250468  17.2250468
  28.7979142  28.8071102
 TTTTTTTTTTTTTTTTTTTTTTTTTTTTTT MOQGAD      TELAPSE     1191.32 TCPU     1111.24
 TTTTTTTTTTTTTTTTTTTTTTTTTTTTTT SHELLXN     TELAPSE     1254.15 TCPU     1172.86
 TTTTTTTTTTTTTTTTTTTTTTTTTTTTTT MONMO3      TELAPSE     1259.81 TCPU     1178.50
 NUMERICALLY INTEGRATED DENSITY    551.9998797609
 TTTTTTTTTTTTTTTTTTTTTTTTTTTTTT NUMDFT      TELAPSE     1265.46 TCPU     1184.13
 CYC  12 ETOT(AU) -1.108490964806E+04 DETOT -2.64E-06 tst  1.03E-08 PX  2.80E-04
 TTTTTTTTTTTTTTTTTTTTTTTTTTTTTT DIIS        TELAPSE     1266.08 TCPU     1184.75
 DIIS TEST: 0.95431E-05 AT SCF   CYCLE  12 - DIIS ACTIVE - HISTORY:    12 CYCLES
 TTTTTTTTTTTTTTTTTTTTTTTTTTTTTT FDIK        TELAPSE     1280.72 TCPU     1195.48
 INSULATING STATE
 TOP OF VALENCE BANDS -    BAND    276; K    1; EIG -2.3973007E-01 AU
 BOTTOM OF VIRTUAL BANDS - BAND    277; K    6; EIG -1.2778633E-01 AU
 INDIRECT ENERGY BAND GAP:   3.0461 eV
 BOTTOM OF VIRTUAL BANDS - BAND    277; K    1; EIG -1.2517650E-01 AU
 TTTTTTTTTTTTTTTTTTTTTTTTTTTTTT PDIG        TELAPSE     1281.58 TCPU     1196.33
 TOTAL ATOMIC CHARGES:
   1.2532078   1.2532078   1.2532078   1.2532078   6.2036492   6.2036492
   6.2036492   6.2036492   5.8915527   5.8915527   5.8915527   5.8915527
   5.7725805   5.7725805   5.7725805   5.7725805   6.0127449   6.0127449
   6.0127449   6.0127449   5.5379225   5.5379225   5.5379225   5.5379225
   5.5835247   5.5835247   5.5835247   5.5835247   7.2091034   7.2091034
   7.2091034   7.2091034   7.1037716   7.1037716   7.1037716   7.1037716
   7.1931411   7.1931411   7.1931411   7.1931411   7.0603584   7.0603584
   7.0603584   7.0603584   7.0921247   7.0921247   7.0921247   7.0921247
  17.2079900  17.2079900  17.2079900  17.2079900  17.2520843  17.2520843
  17.2520843  17.2520843  17.2249618  17.2249618  17.2249618  17.2249618
  28.7979938  28.8071361
 TTTTTTTTTTTTTTTTTTTTTTTTTTTTTT MOQGAD      TELAPSE     1281.62 TCPU     1196.37
 TTTTTTTTTTTTTTTTTTTTTTTTTTTTTT SHELLXN     TELAPSE     1345.52 TCPU     1257.81
 TTTTTTTTTTTTTTTTTTTTTTTTTTTTTT MONMO3      TELAPSE     1351.59 TCPU     1263.86
 NUMERICALLY INTEGRATED DENSITY    551.9998797440
 TTTTTTTTTTTTTTTTTTTTTTTTTTTTTT NUMDFT      TELAPSE     1357.26 TCPU     1269.52
 CYC  13 ETOT(AU) -1.108490964925E+04 DETOT -1.20E-06 tst  4.96E-09 PX  2.09E-04
[...]
 TTTTTTTTTTTTTTTTTTTTTTTTTTTTTT MOQGAD      TELAPSE   261753.89 TCPU   259450.33
 TTTTTTTTTTTTTTTTTTTTTTTTTTTTTT CP_MONMON   TELAPSE   261768.83 TCPU   259465.19
 DIIS TEST: 0.47383E+01 AT CPHF  CYCLE   4 - DIIS ACTIVE - HISTORY:     4 CYCLES
 CYCLE   4   ALPHA  655.673327  EPSILON    2.466066  DELTA    2.1832E+00
 TTTTTTTTTTTTTTTTTTTTTTTTTTTTTT MOQGAD      TELAPSE   262400.55 TCPU   260094.54
 TTTTTTTTTTTTTTTTTTTTTTTTTTTTTT CP_MONMON   TELAPSE   262415.48 TCPU   260109.43
 DIIS TEST: 0.34527E+00 AT CPHF  CYCLE   5 - DIIS ACTIVE - HISTORY:     5 CYCLES
 CYCLE   5   ALPHA  656.330179  EPSILON    2.467535  DELTA    6.5685E-01
 TTTTTTTTTTTTTTTTTTTTTTTTTTTTTT MOQGAD      TELAPSE   263049.57 TCPU   260739.51
 TTTTTTTTTTTTTTTTTTTTTTTTTTTTTT CP_MONMON   TELAPSE   263064.48 TCPU   260754.39
 DIIS TEST: 0.19797E+00 AT CPHF  CYCLE   6 - DIIS ACTIVE - HISTORY:     6 CYCLES
 CYCLE   6   ALPHA  656.732145  EPSILON    2.468434  DELTA    4.0197E-01
 TTTTTTTTTTTTTTTTTTTTTTTTTTTTTT MOQGAD      TELAPSE   263698.31 TCPU   261383.39
 TTTTTTTTTTTTTTTTTTTTTTTTTTTTTT CP_MONMON   TELAPSE   263713.13 TCPU   261398.15
 DIIS TEST: 0.33357E-01 AT CPHF  CYCLE   7 - DIIS ACTIVE - HISTORY:     7 CYCLES
 CYCLE   7   ALPHA  657.000863  EPSILON    2.469035  DELTA    2.6872E-01
 TTTTTTTTTTTTTTTTTTTTTTTTTTTTTT MOQGAD      TELAPSE   264346.38 TCPU   262027.25
 TTTTTTTTTTTTTTTTTTTTTTTTTTTTTT CP_MONMON   TELAPSE   264361.32 TCPU   262042.14
 DIIS TEST: 0.37196E-02 AT CPHF  CYCLE   8 - DIIS ACTIVE - HISTORY:     8 CYCLES
 CYCLE   8   ALPHA  657.028896  EPSILON    2.469097  DELTA    2.8033E-02
 TTTTTTTTTTTTTTTTTTTTTTTTTTTTTT MOQGAD      TELAPSE   264995.13 TCPU   262672.03
 TTTTTTTTTTTTTTTTTTTTTTTTTTTTTT CP_MONMON   TELAPSE   265009.95 TCPU   262686.81
 DIIS TEST: 0.45406E-03 AT CPHF  CYCLE   9 - DIIS ACTIVE - HISTORY:     9 CYCLES
 CYCLE   9   ALPHA  657.026857  EPSILON    2.469093  DELTA   -2.0392E-03
 TTTTTTTTTTTTTTTTTTTTTTTTTTTTTT MOQGAD      TELAPSE   265641.21 TCPU   263315.12
 TTTTTTTTTTTTTTTTTTTTTTTTTTTTTT CP_MONMON   TELAPSE   265656.04 TCPU   263329.91
 DIIS TEST: 0.10045E-03 AT CPHF  CYCLE  10 - DIIS ACTIVE - HISTORY:    10 CYCLES
 CYCLE  10   ALPHA  657.016923  EPSILON    2.469071  DELTA   -9.9344E-03
 TTTTTTTTTTTTTTTTTTTTTTTTTTTTTT MOQGAD      TELAPSE   266286.41 TCPU   263956.15
 TTTTTTTTTTTTTTTTTTTTTTTTTTTTTT CP_MONMON   TELAPSE   266301.36 TCPU   263971.05
 DIIS TEST: 0.26589E-04 AT CPHF  CYCLE  11 - DIIS ACTIVE - HISTORY:    11 CYCLES
 CYCLE  11   ALPHA  657.014471  EPSILON    2.469065  DELTA   -2.4514E-03
 TTTTTTTTTTTTTTTTTTTTTTTTTTTTTT MOQGAD      TELAPSE   266933.20 TCPU   264600.83
 TTTTTTTTTTTTTTTTTTTTTTTTTTTTTT CP_MONMON   TELAPSE   266948.03 TCPU   264615.61
 DIIS TEST: 0.52670E-05 AT CPHF  CYCLE  12 - DIIS ACTIVE - HISTORY:    12 CYCLES
 CYCLE  12   ALPHA  657.012501  EPSILON    2.469061  DELTA   -1.9699E-03
 TTTTTTTTTTTTTTTTTTTTTTTTTTTTTT MOQGAD      TELAPSE   267579.77 TCPU   265241.11
 TTTTTTTTTTTTTTTTTTTTTTTTTTTTTT CP_MONMON   TELAPSE   267594.70 TCPU   265256.01
 DIIS TEST: 0.67834E-06 AT CPHF  CYCLE  13 - DIIS ACTIVE - HISTORY:    13 CYCLES
 CYCLE  13   ALPHA  657.012769  EPSILON    2.469061  DELTA    2.6724E-04
 TTTTTTTTTTTTTTTTTTTTTTTTTTTTTT CP_SC       TELAPSE   267659.17 TCPU   265317.73

 *******************************************************************************

 POLARIZABILITY (ALPHA), DIELECTRIC (EPSILON) AND FIRST-ORDER ELECTRIC
 SUSCEPTIBILITY (CHI(1)) TENSORS (INDEPENDENT COMPONENTS)

  FR.(eV) COMP.   ALPHA(Re,Im)           EPSILON(Re,Im)                CHI(1)
  1.435   XX    1314.2142       0.0000       3.9385       0.0000       2.9385
  1.435   ZZ     657.0128       0.0000       2.4691       0.0000       1.4691

 DIELECTRIC TENSOR

 TENSOR IN PRINCIPAL AXES SYSTEM
 AA  3.938544E+00 BB  3.938544E+00 CC  2.469061E+00

 REFRACTIVE INDICES 
 AA  1.571325E+00 BB  1.984577E+00 CC  1.984577E+00

 OPTICALLY ANISOTROPIC - UNIAXIAL CRYSTAL

 BIREFRINGENCE =  0.4133 (NEGATIVE) - OBLATE OPTICAL ELLIPSOID

 EPSILON=N**2=1+CHI(1)=1+ALPHA*4*PI/V,   4*PI/V=   0.00224 BOHR**(-3)
 ALPHA IN BOHR**3; EPSILON AND CHI(1) ARE DIMENSIONLESS.
 *******************************************************************************

 DYNAMIC FIELD: RUN 10/ 10 - RADIATION WAVELENGTH: 1064.0000 NM

 *******************************************************************************

 ELECTRIC FIELD APPLIED ALONG CARTESIAN DIRECTION X

 *******************************************************************************
 THE NUMBER OF SYMMETRY OPERATORS HAS BEEN REDUCED FROM  4 TO  1

 NEW GRID IN RECIPROCAL SPACE
 *******************************************************************************
 POINTS IN THE IBZ                  14 SHRINKING FACTORS               3  3  3
 *******************************************************************************
 *** K POINTS COORDINATES (OBLIQUE COORDINATES IN UNITS OF SHRINK FAC. )
   1-R(  0  0  0)   2-C(  1  0  0)   3-C(  0  1  2)   4-C(  2  0  1)
   5-C(  0  2  0)   6-C(  1  1  0)   7-C(  1  1  1)   8-C(  1  0  1)
   9-C(  0  1  1)  10-C(  2  1  0)  11-C(  0  0  2)  12-C(  2  1  1)
  13-C(  2  1  2)  14-C(  2  2  1)

 GCALCO - MAX INDICES DIRECT LATTICE VECTOR    14    14    16
 NO.OF VECTORS CREATED 6999 STARS  482 RMAX   211.09218 BOHR
 TTTTTTTTTTTTTTTTTTTTTTTTTTTTTT gordsh1     TELAPSE   267659.19 TCPU   265317.74

 MATRIX SIZE: P(G) 1761528, F(G)  881412, P(G) IRR  883014, F(G) IRR  883014
 MAX G-VECTOR INDEX FOR 1- AND 2-ELECTRON INTEGRALS  63

 TTTTTTTTTTTTTTTTTTTTTTTTTTTTTT INPUT       TELAPSE   267659.59 TCPU   265318.14
 TTTTTTTTTTTTTTTTTTTTTTTTTTTTTT SYMM        TELAPSE   267659.59 TCPU   265318.14

 ***** NEW REFERENCE GEOMETRY *****
 TTTTTTTTTTTTTTTTTTTTTTTTTTTTTT INT_SCREEN  TELAPSE   267659.61 TCPU   265318.16
 INFORMATION **** EXCBUF **** EXCH. BIPO BUFFER: WORDS USED =           0

 DFT PARAMETERS

     ATOM       ELECTRONS   NET CHARGE   R(ANGSTROM)
   1   1  H       1.0000      0.0000     1.11000000
   5   6  C       6.0000      0.0000     0.77000000
  29   7  N       7.0000      0.0000     0.74000000
  49  17  CL     17.0000      0.0000     0.99000000
  61  30  ZN     30.0000      0.0000     1.37000000

 SIZE OF GRID=    1949338
 TTTTTTTTTTTTTTTTTTTTTTTTTTTTTT MAKE_GRID2  TELAPSE   267661.68 TCPU   265320.22
 BECKE WEIGHT FUNCTION
 RADSAFE =     2.00
 TOLERANCES - DENSITY:10**- 6; POTENTIAL:10**- 9; GRID WGT:10**-14

 RADIAL INTEGRATION  - INTERVALS (POINTS,UPPER LIMIT):            1( 75,  4.0*R)

 ANGULAR INTEGRATION - INTERVALS (ACCURACY LEVEL [N. POINTS] UPPER LIMIT):
  1(  4[  86]   0.2)  2(  8[ 194]   0.5)  3( 12[ 350]   0.9)  4( 16[ 974]   3.5)
  5( 12[ 350]9999.0)
 TTTTTTTTTTTTTTTTTTTTTTTTTTTTTT INT_CALC    TELAPSE   267661.79 TCPU   265320.32
 CYCLE   0   ALPHA 1720.871368  EPSILON    4.847818  DELTA    1.7209E+03
 TTTTTTTTTTTTTTTTTTTTTTTTTTTTTT MOQGAD      TELAPSE   268872.81 TCPU   266526.89
 TTTTTTTTTTTTTTTTTTTTTTTTTTTTTT CP_MONMON   TELAPSE   268900.70 TCPU   266554.66
 DIIS TEST: 0.31965E+03 AT CPHF  CYCLE   1 - MIX    0 %
 CYCLE   1   ALPHA  501.911804  EPSILON    2.122260  DELTA   -1.2190E+03
 TTTTTTTTTTTTTTTTTTTTTTTTTTTTTT MOQGAD      TELAPSE   270108.18 TCPU   267757.28
 TTTTTTTTTTTTTTTTTTTTTTTTTTTTTT CP_MONMON   TELAPSE   270136.31 TCPU   267785.29
 DIIS TEST: 0.23041E+04 AT CPHF  CYCLE   2 - DIIS ACTIVE - HISTORY:     2 CYCLES
 CYCLE   2   ALPHA 1206.034342  EPSILON    3.696657  DELTA    7.0412E+02
 TTTTTTTTTTTTTTTTTTTTTTTTTTTTTT MOQGAD      TELAPSE   271344.30 TCPU   268989.31
 TTTTTTTTTTTTTTTTTTTTTTTTTTTTTT CP_MONMON   TELAPSE   271372.41 TCPU   269017.35
 DIIS TEST: 0.70660E+02 AT CPHF  CYCLE   3 - DIIS ACTIVE - HISTORY:     3 CYCLES
 CYCLE   3   ALPHA 1272.813037  EPSILON    3.845973  DELTA    6.6779E+01
 TTTTTTTTTTTTTTTTTTTTTTTTTTTTTT MOQGAD      TELAPSE   272581.43 TCPU   270220.80
 TTTTTTTTTTTTTTTTTTTTTTTTTTTTTT CP_MONMON   TELAPSE   272609.28 TCPU   270248.57
 DIIS TEST: 0.82225E+01 AT CPHF  CYCLE   4 - DIIS ACTIVE - HISTORY:     4 CYCLES
 CYCLE   4   ALPHA 1284.032979  EPSILON    3.871060  DELTA    1.1220E+01
 TTTTTTTTTTTTTTTTTTTTTTTTTTTTTT MOQGAD      TELAPSE   273818.82 TCPU   271450.70
 TTTTTTTTTTTTTTTTTTTTTTTTTTTTTT CP_MONMON   TELAPSE   273846.94 TCPU   271478.70
 DIIS TEST: 0.10578E+01 AT CPHF  CYCLE   5 - DIIS ACTIVE - HISTORY:     5 CYCLES
 CYCLE   5   ALPHA 1288.350990  EPSILON    3.880715  DELTA    4.3180E+00
 TTTTTTTTTTTTTTTTTTTTTTTTTTTTTT MOQGAD      TELAPSE   275053.58 TCPU   272678.12
 TTTTTTTTTTTTTTTTTTTTTTTTTTTTTT CP_MONMON   TELAPSE   275081.69 TCPU   272706.15
 DIIS TEST: 0.17627E+00 AT CPHF  CYCLE   6 - DIIS ACTIVE - HISTORY:     6 CYCLES
 CYCLE   6   ALPHA 1290.215403  EPSILON    3.884884  DELTA    1.8644E+00
 TTTTTTTTTTTTTTTTTTTTTTTTTTTTTT MOQGAD      TELAPSE   276288.34 TCPU   273904.99
 TTTTTTTTTTTTTTTTTTTTTTTTTTTTTT CP_MONMON   TELAPSE   276316.21 TCPU   273932.78
 DIIS TEST: 0.20174E-01 AT CPHF  CYCLE   7 - DIIS ACTIVE - HISTORY:     7 CYCLES
 CYCLE   7   ALPHA 1290.739311  EPSILON    3.886055  DELTA    5.2391E-01
 TTTTTTTTTTTTTTTTTTTTTTTTTTTTTT MOQGAD      TELAPSE   277523.91 TCPU   275131.22
 TTTTTTTTTTTTTTTTTTTTTTTTTTTTTT CP_MONMON   TELAPSE   277551.96 TCPU   275159.16
 DIIS TEST: 0.26270E-02 AT CPHF  CYCLE   8 - DIIS ACTIVE - HISTORY:     8 CYCLES
 CYCLE   8   ALPHA 1290.865904  EPSILON    3.886338  DELTA    1.2659E-01
 TTTTTTTTTTTTTTTTTTTTTTTTTTTTTT MOQGAD      TELAPSE   278759.79 TCPU   276361.93
 TTTTTTTTTTTTTTTTTTTTTTTTTTTTTT CP_MONMON   TELAPSE   278787.89 TCPU   276389.95
 DIIS TEST: 0.19618E-03 AT CPHF  CYCLE   9 - DIIS ACTIVE - HISTORY:     9 CYCLES
 CYCLE   9   ALPHA 1290.854115  EPSILON    3.886312  DELTA   -1.1789E-02
 TTTTTTTTTTTTTTTTTTTTTTTTTTTTTT MOQGAD      TELAPSE   279999.64 TCPU   277591.29
 TTTTTTTTTTTTTTTTTTTTTTTTTTTTTT CP_MONMON   TELAPSE   280027.71 TCPU   277619.23
 DIIS TEST: 0.39247E-04 AT CPHF  CYCLE  10 - DIIS ACTIVE - HISTORY:    10 CYCLES
 CYCLE  10   ALPHA 1290.837659  EPSILON    3.886275  DELTA   -1.6455E-02
 TTTTTTTTTTTTTTTTTTTTTTTTTTTTTT MOQGAD      TELAPSE   281232.86 TCPU   278817.40
 TTTTTTTTTTTTTTTTTTTTTTTTTTTTTT CP_MONMON   TELAPSE   281260.75 TCPU   278845.18
 DIIS TEST: 0.42265E-05 AT CPHF  CYCLE  11 - DIIS ACTIVE - HISTORY:    11 CYCLES
 CYCLE  11   ALPHA 1290.828743  EPSILON    3.886255  DELTA   -8.9160E-03
 TTTTTTTTTTTTTTTTTTTTTTTTTTTTTT MOQGAD      TELAPSE   282474.19 TCPU   280048.67
 TTTTTTTTTTTTTTTTTTTTTTTTTTTTTT CP_MONMON   TELAPSE   282502.26 TCPU   280076.63
 DIIS TEST: 0.18306E-05 AT CPHF  CYCLE  12 - DIIS ACTIVE - HISTORY:    12 CYCLES
 CYCLE  12   ALPHA 1290.827102  EPSILON    3.886251  DELTA   -1.6413E-03
 TTTTTTTTTTTTTTTTTTTTTTTTTTTTTT MOQGAD      TELAPSE   283709.35 TCPU   281277.54
 TTTTTTTTTTTTTTTTTTTTTTTTTTTTTT CP_MONMON   TELAPSE   283737.45 TCPU   281305.55
 DIIS TEST: 0.10185E-05 AT CPHF  CYCLE  13 - DIIS ACTIVE - HISTORY:    13 CYCLES
 CYCLE  13   ALPHA 1290.826513  EPSILON    3.886250  DELTA   -5.8886E-04
 TTTTTTTTTTTTTTTTTTTTTTTTTTTTTT CP_SC       TELAPSE   283806.18 TCPU   281371.30

 *******************************************************************************

 ELECTRIC FIELD APPLIED ALONG CARTESIAN DIRECTION Z

 *******************************************************************************
 THE NUMBER OF SYMMETRY OPERATORS HAS BEEN REDUCED FROM  4 TO  2

 NEW GRID IN RECIPROCAL SPACE
 *******************************************************************************
 POINTS IN THE IBZ                  10 SHRINKING FACTORS               3  3  3
 *******************************************************************************
 *** K POINTS COORDINATES (OBLIQUE COORDINATES IN UNITS OF SHRINK FAC. )
   1-R(  0  0  0)   2-C(  1  0  0)   3-C(  2  0  1)   4-C(  1  1  0)
   5-C(  1  0  1)   6-C(  2  1  0)   7-C(  0  0  2)   8-C(  2  1  1)
   9-C(  2  1  2)  10-C(  2  2  1)

 GCALCO - MAX INDICES DIRECT LATTICE VECTOR    14    14    16
 NO.OF VECTORS CREATED 6999 STARS  482 RMAX   211.09218 BOHR
 TTTTTTTTTTTTTTTTTTTTTTTTTTTTTT gordsh1     TELAPSE   283806.20 TCPU   281371.32

 MATRIX SIZE: P(G) 1761528, F(G)  881412, P(G) IRR  443724, F(G) IRR  443724
 MAX G-VECTOR INDEX FOR 1- AND 2-ELECTRON INTEGRALS  63

 TTTTTTTTTTTTTTTTTTTTTTTTTTTTTT INPUT       TELAPSE   283806.31 TCPU   281371.43
 TTTTTTTTTTTTTTTTTTTTTTTTTTTTTT SYMM        TELAPSE   283806.31 TCPU   281371.43

 ***** NEW REFERENCE GEOMETRY *****
 TTTTTTTTTTTTTTTTTTTTTTTTTTTTTT INT_SCREEN  TELAPSE   283806.32 TCPU   281371.44
 INFORMATION **** EXCBUF **** EXCH. BIPO BUFFER: WORDS USED =           0

 DFT PARAMETERS

     ATOM       ELECTRONS   NET CHARGE   R(ANGSTROM)
   1   1  H       1.0000      0.0000     1.11000000
   5   6  C       6.0000      0.0000     0.77000000
  29   7  N       7.0000      0.0000     0.74000000
  49  17  CL     17.0000      0.0000     0.99000000
  61  30  ZN     30.0000      0.0000     1.37000000

 SIZE OF GRID=     974786
 TTTTTTTTTTTTTTTTTTTTTTTTTTTTTT MAKE_GRID2  TELAPSE   283807.56 TCPU   281372.68
 BECKE WEIGHT FUNCTION
 RADSAFE =     2.00
 TOLERANCES - DENSITY:10**- 6; POTENTIAL:10**- 9; GRID WGT:10**-14

 RADIAL INTEGRATION  - INTERVALS (POINTS,UPPER LIMIT):            1( 75,  4.0*R)

 ANGULAR INTEGRATION - INTERVALS (ACCURACY LEVEL [N. POINTS] UPPER LIMIT):
  1(  4[  86]   0.2)  2(  8[ 194]   0.5)  3( 12[ 350]   0.9)  4( 16[ 974]   3.5)
  5( 12[ 350]9999.0)
 TTTTTTTTTTTTTTTTTTTTTTTTTTTTTT INT_CALC    TELAPSE   283807.64 TCPU   281372.75
 CYCLE   0   ALPHA  849.136970  EPSILON    2.898645  DELTA    8.4914E+02
 TTTTTTTTTTTTTTTTTTTTTTTTTTTTTT MOQGAD      TELAPSE   284415.93 TCPU   281978.66
 TTTTTTTTTTTTTTTTTTTTTTTTTTTTTT CP_MONMON   TELAPSE   284430.96 TCPU   281993.64
 DIIS TEST: 0.13758E+03 AT CPHF  CYCLE   1 - MIX    0 %
 CYCLE   1   ALPHA  346.510485  EPSILON    1.774787  DELTA   -5.0263E+02
 TTTTTTTTTTTTTTTTTTTTTTTTTTTTTT MOQGAD      TELAPSE   285064.62 TCPU   282623.03
 TTTTTTTTTTTTTTTTTTTTTTTTTTTTTT CP_MONMON   TELAPSE   285079.64 TCPU   282638.00
 DIIS TEST: 0.11133E+04 AT CPHF  CYCLE   2 - DIIS ACTIVE - HISTORY:     2 CYCLES
 CYCLE   2   ALPHA  602.444548  EPSILON    2.347048  DELTA    2.5593E+02
 TTTTTTTTTTTTTTTTTTTTTTTTTTTTTT MOQGAD      TELAPSE   285712.81 TCPU   283269.37
 TTTTTTTTTTTTTTTTTTTTTTTTTTTTTT CP_MONMON   TELAPSE   285727.91 TCPU   283284.43
 DIIS TEST: 0.30471E+02 AT CPHF  CYCLE   3 - DIIS ACTIVE - HISTORY:     3 CYCLES
 CYCLE   3   ALPHA  648.187254  EPSILON    2.449328  DELTA    4.5743E+01
 TTTTTTTTTTTTTTTTTTTTTTTTTTTTTT MOQGAD      TELAPSE   286362.76 TCPU   283913.36
 TTTTTTTTTTTTTTTTTTTTTTTTTTTTTT CP_MONMON   TELAPSE   286377.76 TCPU   283928.33
 DIIS TEST: 0.41292E+01 AT CPHF  CYCLE   4 - DIIS ACTIVE - HISTORY:     4 CYCLES
 CYCLE   4   ALPHA  650.208113  EPSILON    2.453846  DELTA    2.0209E+00
 TTTTTTTTTTTTTTTTTTTTTTTTTTTTTT MOQGAD      TELAPSE   287011.72 TCPU   284558.36
 TTTTTTTTTTTTTTTTTTTTTTTTTTTTTT CP_MONMON   TELAPSE   287026.75 TCPU   284573.34
 DIIS TEST: 0.30277E+00 AT CPHF  CYCLE   5 - DIIS ACTIVE - HISTORY:     5 CYCLES
 CYCLE   5   ALPHA  650.852817  EPSILON    2.455288  DELTA    6.4470E-01
 TTTTTTTTTTTTTTTTTTTTTTTTTTTTTT MOQGAD      TELAPSE   287661.64 TCPU   285203.59
 TTTTTTTTTTTTTTTTTTTTTTTTTTTTTT CP_MONMON   TELAPSE   287676.67 TCPU   285218.57
 DIIS TEST: 0.17888E+00 AT CPHF  CYCLE   6 - DIIS ACTIVE - HISTORY:     6 CYCLES
 CYCLE   6   ALPHA  651.230632  EPSILON    2.456133  DELTA    3.7782E-01
 TTTTTTTTTTTTTTTTTTTTTTTTTTTTTT MOQGAD      TELAPSE   288312.12 TCPU   285849.98
 TTTTTTTTTTTTTTTTTTTTTTTTTTTTTT CP_MONMON   TELAPSE   288327.17 TCPU   285864.99
 DIIS TEST: 0.32593E-01 AT CPHF  CYCLE   7 - DIIS ACTIVE - HISTORY:     7 CYCLES
 CYCLE   7   ALPHA  651.478033  EPSILON    2.456686  DELTA    2.4740E-01
 TTTTTTTTTTTTTTTTTTTTTTTTTTTTTT MOQGAD      TELAPSE   288962.29 TCPU   286495.31
 TTTTTTTTTTTTTTTTTTTTTTTTTTTTTT CP_MONMON   TELAPSE   288977.29 TCPU   286510.28
 DIIS TEST: 0.33724E-02 AT CPHF  CYCLE   8 - DIIS ACTIVE - HISTORY:     8 CYCLES
 CYCLE   8   ALPHA  651.501645  EPSILON    2.456739  DELTA    2.3612E-02
 TTTTTTTTTTTTTTTTTTTTTTTTTTTTTT MOQGAD      TELAPSE   289613.01 TCPU   287141.64
 TTTTTTTTTTTTTTTTTTTTTTTTTTTTTT CP_MONMON   TELAPSE   289628.24 TCPU   287156.80
 DIIS TEST: 0.39355E-03 AT CPHF  CYCLE   9 - DIIS ACTIVE - HISTORY:     9 CYCLES
 CYCLE   9   ALPHA  651.499412  EPSILON    2.456734  DELTA   -2.2329E-03
 TTTTTTTTTTTTTTTTTTTTTTTTTTTTTT MOQGAD      TELAPSE   290260.94 TCPU   287787.16
 TTTTTTTTTTTTTTTTTTTTTTTTTTTTTT CP_MONMON   TELAPSE   290276.01 TCPU   287802.16
 DIIS TEST: 0.78455E-04 AT CPHF  CYCLE  10 - DIIS ACTIVE - HISTORY:    10 CYCLES
 CYCLE  10   ALPHA  651.490174  EPSILON    2.456713  DELTA   -9.2387E-03
 TTTTTTTTTTTTTTTTTTTTTTTTTTTTTT MOQGAD      TELAPSE   290909.76 TCPU   288431.74
 TTTTTTTTTTTTTTTTTTTTTTTTTTTTTT CP_MONMON   TELAPSE   290924.79 TCPU   288446.73
 DIIS TEST: 0.19307E-04 AT CPHF  CYCLE  11 - DIIS ACTIVE - HISTORY:    11 CYCLES
 CYCLE  11   ALPHA  651.487788  EPSILON    2.456708  DELTA   -2.3854E-03
 TTTTTTTTTTTTTTTTTTTTTTTTTTTTTT MOQGAD      TELAPSE   291558.68 TCPU   289076.10
 TTTTTTTTTTTTTTTTTTTTTTTTTTTTTT CP_MONMON   TELAPSE   291573.71 TCPU   289091.08
 DIIS TEST: 0.35698E-05 AT CPHF  CYCLE  12 - DIIS ACTIVE - HISTORY:    12 CYCLES
 CYCLE  12   ALPHA  651.486055  EPSILON    2.456704  DELTA   -1.7335E-03
 TTTTTTTTTTTTTTTTTTTTTTTTTTTTTT MOQGAD      TELAPSE   292208.16 TCPU   289721.42
 TTTTTTTTTTTTTTTTTTTTTTTTTTTTTT CP_MONMON   TELAPSE   292223.28 TCPU   289736.50
 DIIS TEST: 0.44594E-06 AT CPHF  CYCLE  13 - DIIS ACTIVE - HISTORY:    13 CYCLES
 CYCLE  13   ALPHA  651.486176  EPSILON    2.456704  DELTA    1.2134E-04
 TTTTTTTTTTTTTTTTTTTTTTTTTTTTTT CP_SC       TELAPSE   292287.86 TCPU   289793.62

 *******************************************************************************

 POLARIZABILITY (ALPHA), DIELECTRIC (EPSILON) AND FIRST-ORDER ELECTRIC
 SUSCEPTIBILITY (CHI(1)) TENSORS (INDEPENDENT COMPONENTS)

  FR.(eV) COMP.   ALPHA(Re,Im)           EPSILON(Re,Im)                CHI(1)
  1.165   XX    1290.8265       0.0000       3.8863       0.0000       2.8863
  1.165   ZZ     651.4862       0.0000       2.4567       0.0000       1.4567

 DIELECTRIC TENSOR

 TENSOR IN PRINCIPAL AXES SYSTEM
 AA  3.886250E+00 BB  3.886250E+00 CC  2.456704E+00

 REFRACTIVE INDICES 
 AA  1.567388E+00 BB  1.971357E+00 CC  1.971357E+00

 OPTICALLY ANISOTROPIC - UNIAXIAL CRYSTAL

 BIREFRINGENCE =  0.4040 (NEGATIVE) - OBLATE OPTICAL ELLIPSOID

 EPSILON=N**2=1+CHI(1)=1+ALPHA*4*PI/V,   4*PI/V=   0.00224 BOHR**(-3)
 ALPHA IN BOHR**3; EPSILON AND CHI(1) ARE DIMENSIONLESS.
 *******************************************************************************


 GCALCO - MAX INDICES DIRECT LATTICE VECTOR    14    14    16
 NO.OF VECTORS CREATED 6999 STARS  482 RMAX   211.09218 BOHR

 CAPPA:IS1  3;IS2  3;IS3  3; K PTS MONK NET   6; SYMMOPS:K SPACE   8;G SPACE   4

 TTTTTTTTTTTTTTTTTTTTTTTTTTTTTT END         TELAPSE   292287.92 TCPU   289793.63
 EEEEEEEEEE TERMINATION  DATE 08 12 2023 TIME 14:45:08.9
NODE    0 CPU TIME =    289793.626
NODE    1 CPU TIME =    290550.116
NODE    2 CPU TIME =    290336.788
NODE    3 CPU TIME =    290341.305
NODE    4 CPU TIME =    290362.347
NODE    5 CPU TIME =    290538.604
NODE    6 CPU TIME =    290359.408
NODE    7 CPU TIME =    290359.342
NODE    8 CPU TIME =    290235.615
NODE    9 CPU TIME =    290549.769
NODE   10 CPU TIME =    290266.968
NODE   11 CPU TIME =    290193.306
NODE   12 CPU TIME =    290068.065
NODE   13 CPU TIME =    290435.633
NODE   14 CPU TIME =    290198.803
NODE   15 CPU TIME =    290071.297
NODE   16 CPU TIME =    289919.641
NODE   17 CPU TIME =    290162.288
NODE   18 CPU TIME =    290166.511
NODE   19 CPU TIME =    290161.388
NODE   20 CPU TIME =    289970.921
NODE   21 CPU TIME =    290112.404
NODE   22 CPU TIME =    290066.859
NODE   23 CPU TIME =    289930.501
    TOTAL CPU TIME =   6965151.505
trying normal rsh (/usr/bin/rsh)
exec: No such file or directory
trying normal rsh (/usr/bin/rsh)
exec: No such file or directory
trying normal rsh (/usr/bin/rsh)
exec: No such file or directory
trying normal rsh (/usr/bin/rsh)
exec: No such file or directory
