Loading crystal17/1.0.2/intel/19.0
  Loading requirement: intel/19.0 ompi/4.0.1/intel/19.0
 PROCESS            6  OF           24  WORKING
 PROCESS            9  OF           24  WORKING
 PROCESS           10  OF           24  WORKING
 PROCESS           11  OF           24  WORKING
 PROCESS           12  OF           24  WORKING
 PROCESS           13  OF           24  WORKING
 PROCESS           14  OF           24  WORKING
 PROCESS           15  OF           24  WORKING
 PROCESS           16  OF           24  WORKING
 PROCESS           17  OF           24  WORKING
 PROCESS           18  OF           24  WORKING
 PROCESS           19  OF           24  WORKING
 PROCESS           20  OF           24  WORKING
 PROCESS           21  OF           24  WORKING
 PROCESS           22  OF           24  WORKING
 PROCESS           23  OF           24  WORKING
 PROCESS            0  OF           24  WORKING
 PROCESS            1  OF           24  WORKING
 PROCESS            2  OF           24  WORKING
 PROCESS            3  OF           24  WORKING
 PROCESS            4  OF           24  WORKING
 PROCESS            5  OF           24  WORKING
 PROCESS            7  OF           24  WORKING
 PROCESS            8  OF           24  WORKING

         
 *******************************************************************************
 *                                                                             *
 *                               CRYSTAL17                                     *
 *                      public : 1.0.2 - March 1st, 2018                       *
 *                       HTTP://WWW.CRYSTAL.UNITO.IT                           *
 *                                                                             *
 *                              MAIN AUTHORS                                   *
 *                                                                             *
 *  R. DOVESI(1,11), V.R. SAUNDERS(2), C. ROETTI(1,11), R. ORLANDO(1,11),      *
 *  C.M. ZICOVICH-WILSON(1,3), F. PASCALE(4), B. CIVALLERI(1,11),              *
 *  K. DOLL(5), N.M. HARRISON(2,6), I.J. BUSH(7), Ph. D'ARCO(8),               *
 *  M. LLUNELL(9), M. CAUSA'(10), Y. NOEL(8), L. MASCHIO(1,11), A. ERBA(1,11)  *
 *  M. RE'RAT(14), S. CASASSA(1,11)                                            *
 *                                                                             *
 *        CONTRIBUTIONS TO THE CODE HAVE ALSO BEEN GIVEN BY                    *
 *                                                                             *
 *  M. FERRABONE(1,11), M. DE LA PIERRE(1,11), M. FERRERO(1,11),               *
 *  J. BAIMA(1,11), E. ALBANESE(1,11), M.F. PEINTINGER(12), R. BAST(13),       *
 *  B. KIRTMAN(15), V. LACIVITA(1,11), R. DEMICHELIS(1,16)                     *
 *  G. BRANDEBURG(17), S. SALUSTRO(1,11), G. SANSONE(1,11)                     *
 *  M.T. RUGGIERO(18)                                                          *
 *                                                                             *
 * (1) THEORETICAL CHEMISTRY GROUP - UNIVERSITA' DI TORINO - TORINO (ITALY)    *
 * (2) COMPUTATIONAL SCIENCE & ENGINEERING DEPARTMENT - STFC DARESBURY (UK)    *
 * (3) UNIVERSIDAD AUTONOMA DEL ESTADO DE MORELOS - CUERNAVACA (MEXICO)        *
 * (4) UNIVERSITE' DE LORRAINE - NANCY (FRANCE)                                *
 * (5) UNIVERSITAET STUTTGART- STUTTGART (GERMANY)                             *
 * (6) IMPERIAL COLLEGE - LONDON (UK)                                          *
 * (7) OXFORD E-RESEARCH CENTRE - OXFORD (UK)                                  *
 * (8) UPMC - SORBONNE UNIVERSITES - PARIS (FRANCE)                            *
 * (9) UNIVERSIDAD DE BARCELONA - BARCELONA (SPAIN)                            *
 *(10) UNIVERSITA' DI NAPOLI "FEDERICO II" - NAPOLI (ITALY)                    *
 *(11) NIS - NANOSTRUCTURED INTERFACES AND SURFACES - TORINO (ITALY)           *
 *(12) MPI FUER CHEMISCHE ENERGIEKONVERSION - MUELHEIM AN DER RUHR (GERMANY)   *
 *(13) UNIVERSITY OF TROMSO - TROMSO (NORWAY)                                  *
 *(14) UNIVERSITE' DE PAU ET DES PAYS DE L'ADOUR - PAU (FRANCE)                *
 *(15) UNIVERSITY OF CALIFORNIA SANTA BARBARA - SANTA BARBARA (USA)            *
 *(16) CURTIN UNIVERSITY - PERTH (AUSTRALIA)                                   *
 *(17) UNIVERSITY COLLEGE LONDON - LONDON (UK)                                 *
 *(18) CAMBRIDGE UNIVERSITY - CAMBRIDGE (UK)                                   *
 *                                                                             *
 *******************************************************************************
 EEEEEEEEEE STARTING  DATE 08 12 2023 TIME 13:22:20.6
 Z:\home\sanoj\Downloads\tmp_p\newconn.mol                                       

 CRYSTAL CALCULATION
 (INPUT ACCORDING TO THE INTERNATIONAL TABLES FOR X-RAY CRYSTALLOGRAPHY)
 CRYSTAL FAMILY                       :  TETRAGONAL  
 CRYSTAL CLASS  (GROTH - 1921)        :  TETRAGONAL DISPHENOIDAL              

 SPACE GROUP (NONCENTROSYMMETRIC)     :  I -4            

 LATTICE PARAMETERS  (ANGSTROMS AND DEGREES) - CONVENTIONAL CELL
        A           B           C        ALPHA        BETA       GAMMA
    11.64676    11.64676    13.14269    90.00000    90.00000    90.00000


 NUMBER OF IRREDUCIBLE ATOMS IN THE CONVENTIONAL CELL:   17

 INPUT COORDINATES

 ATOM AT. N.              COORDINATES
   1   6     2.638900000000E-01  8.168100000000E-01  3.851900000000E-01
   2   6     2.403900000000E-01 -6.022000000000E-02  3.735400000000E-01
   3   6     1.804100000000E-01  7.292200000000E-01  3.741900000000E-01
   4   6     3.301700000000E-01  5.857800000000E-01  3.770300000000E-01
   5   6     3.768800000000E-01  7.749000000000E-01  3.974800000000E-01
   6   6     7.860500000000E-01  3.864600000000E-01  3.665300000000E-01
   7   7     3.148200000000E-01  9.980000000000E-03  3.228200000000E-01
   8   7     2.685700000000E-01  1.181300000000E-01  3.268700000000E-01
   9   7     1.488100000000E-01  2.780000000000E-03  4.073000000000E-01
  10   7     1.702500000000E-01  1.141000000000E-01  3.771400000000E-01
  11   7     4.079700000000E-01  6.661200000000E-01  3.945600000000E-01
  12  17     3.662000000000E-02  7.634500000000E-01  3.704900000000E-01
  13  17     4.930900000000E-01  8.662900000000E-01  4.182500000000E-01
  14  17     1.198300000000E-01  5.049200000000E-01  3.461300000000E-01
  15  17     3.729400000000E-01  4.445800000000E-01  3.689000000000E-01
  16  30     0.000000000000E+00  5.000000000000E-01  7.500000000000E-01
  17  30     0.000000000000E+00  0.000000000000E+00  5.000000000000E-01

 *******************************************************************************

 << INFORMATION >>: FROM NOW ON, ALL COORDINATES REFER TO THE PRIMITIVE CELL

 *******************************************************************************

 LATTICE PARAMETERS  (ANGSTROMS AND DEGREES) - PRIMITIVE CELL
       A          B          C        ALPHA      BETA     GAMMA        VOLUME
   10.53594   10.53594   10.53594   112.89296 112.89296 102.82526    891.383141

 COORDINATES OF THE EQUIVALENT ATOMS (FRACTIONAL UNITS)

 N. ATOM EQUIV AT. N.          X                  Y                  Z

   1   1   1    6 C     2.02000000000E-01 -3.50920000000E-01  8.07000000000E-02
   2   1   2    6 C    -4.31620000000E-01  1.21300000000E-01 -8.07000000000E-02
   3   1   3    6 C     3.50920000000E-01  4.31620000000E-01 -4.47080000000E-01
   4   1   4    6 C    -1.21300000000E-01 -2.02000000000E-01  4.47080000000E-01

   5   2   1    6 C     3.13320000000E-01 -3.86070000000E-01  1.80170000000E-01
   6   2   2    6 C     4.33760000000E-01  1.33150000000E-01 -1.80170000000E-01
   7   2   3    6 C     3.86070000000E-01 -4.33760000000E-01 -3.00610000000E-01
   8   2   4    6 C    -1.33150000000E-01 -3.13320000000E-01  3.00610000000E-01

   9   3   1    6 C     1.03410000000E-01 -4.45400000000E-01 -9.03700000000E-02
  10   3   2    6 C    -3.55030000000E-01  1.93780000000E-01  9.03700000000E-02
  11   3   3    6 C     4.45400000000E-01  3.55030000000E-01 -4.51190000000E-01
  12   3   4    6 C    -1.93780000000E-01 -1.03410000000E-01  4.51190000000E-01

  13   4   1    6 C    -3.71900000000E-02 -2.92800000000E-01 -8.40500000000E-02
  14   4   2    6 C    -2.08750000000E-01  4.68600000000E-02  8.40500000000E-02
  15   4   3    6 C     2.92800000000E-01  2.08750000000E-01  2.55610000000E-01
  16   4   4    6 C    -4.68600000000E-02  3.71900000000E-02 -2.55610000000E-01

  17   5   1    6 C     1.72380000000E-01 -2.25640000000E-01  1.51780000000E-01
  18   5   2    6 C    -3.77420000000E-01  2.06000000000E-02 -1.51780000000E-01
  19   5   3    6 C     2.25640000000E-01  3.77420000000E-01  3.98020000000E-01
  20   5   4    6 C    -2.06000000000E-02 -1.72380000000E-01 -3.98020000000E-01

  21   6   1    6 C    -2.47010000000E-01  1.52580000000E-01  1.72510000000E-01
  22   6   2    6 C    -1.99300000000E-02 -4.19520000000E-01 -1.72510000000E-01
  23   6   3    6 C    -1.52580000000E-01  1.99300000000E-02 -3.99590000000E-01
  24   6   4    6 C     4.19520000000E-01  2.47010000000E-01  3.99590000000E-01

  25   7   1    7 N     3.32800000000E-01 -3.62360000000E-01  3.24800000000E-01
  26   7   2    7 N     3.12840000000E-01  8.00000000000E-03 -3.24800000000E-01
  27   7   3    7 N     3.62360000000E-01 -3.12840000000E-01 -3.04840000000E-01
  28   7   4    7 N    -8.00000000000E-03 -3.32800000000E-01  3.04840000000E-01

  29   8   1    7 N     4.45000000000E-01 -4.04560000000E-01  3.86700000000E-01
  30   8   2    7 N     2.08740000000E-01  5.83000000000E-02 -3.86700000000E-01
  31   8   3    7 N     4.04560000000E-01 -2.08740000000E-01 -1.50440000000E-01
  32   8   4    7 N    -5.83000000000E-02 -4.45000000000E-01  1.50440000000E-01

  33   9   1    7 N     4.10080000000E-01 -4.43890000000E-01  1.51590000000E-01
  34   9   2    7 N     4.04520000000E-01  2.58490000000E-01 -1.51590000000E-01
  35   9   3    7 N     4.43890000000E-01 -4.04520000000E-01 -1.46030000000E-01
  36   9   4    7 N    -2.58490000000E-01 -4.10080000000E-01  1.46030000000E-01

  37  10   1    7 N     4.91240000000E-01 -4.52610000000E-01  2.84350000000E-01
  38  10   2    7 N     2.63040000000E-01  2.06890000000E-01 -2.84350000000E-01
  39  10   3    7 N     4.52610000000E-01 -2.63040000000E-01 -5.61500000000E-02
  40  10   4    7 N    -2.06890000000E-01 -4.91240000000E-01  5.61500000000E-02

  41  11   1    7 N     6.06800000000E-02 -1.97470000000E-01  7.40900000000E-02
  42  11   2    7 N    -2.71560000000E-01 -1.34100000000E-02 -7.40900000000E-02
  43  11   3    7 N     1.97470000000E-01  2.71560000000E-01  2.58150000000E-01
  44  11   4    7 N     1.34100000000E-02 -6.06800000000E-02 -2.58150000000E-01

  45  12   1   17 CL    1.33940000000E-01  4.07110000000E-01 -1.99930000000E-01
  46  12   2   17 CL   -3.92960000000E-01  3.33870000000E-01  1.99930000000E-01
  47  12   3   17 CL   -4.07110000000E-01  3.92960000000E-01 -2.73170000000E-01
  48  12   4   17 CL   -3.33870000000E-01 -1.33940000000E-01  2.73170000000E-01

  49  13   1   17 CL    2.84540000000E-01 -8.86600000000E-02  3.59380000000E-01
  50  13   2   17 CL   -4.48040000000E-01 -7.48400000000E-02 -3.59380000000E-01
  51  13   3   17 CL    8.86600000000E-02  4.48040000000E-01  3.73200000000E-01
  52  13   4   17 CL    7.48400000000E-02 -2.84540000000E-01 -3.73200000000E-01

  53  14   1   17 CL   -1.48950000000E-01  4.65960000000E-01 -3.75250000000E-01
  54  14   2   17 CL   -1.58790000000E-01  2.26300000000E-01  3.75250000000E-01
  55  14   3   17 CL   -4.65960000000E-01  1.58790000000E-01  3.85090000000E-01
  56  14   4   17 CL   -2.26300000000E-01  1.48950000000E-01 -3.85090000000E-01

  57  15   1   17 CL   -1.86520000000E-01 -2.58160000000E-01 -1.82480000000E-01
  58  15   2   17 CL   -7.56800000000E-02 -4.04000000000E-03  1.82480000000E-01
  59  15   3   17 CL    2.58160000000E-01  7.56800000000E-02  7.16400000000E-02
  60  15   4   17 CL    4.04000000000E-03  1.86520000000E-01 -7.16400000000E-02

  61  16   1   30 ZN    2.50000000000E-01 -2.50000000000E-01 -5.00000000000E-01

  62  17   1   30 ZN   -5.00000000000E-01 -5.00000000000E-01  0.00000000000E+00

 NUMBER OF SYMMETRY OPERATORS         :    4
 *******************************************************************************
 * GEOMETRY EDITING - INPUT COORDINATES ARE GIVEN IN ANGSTROM         
 *******************************************************************************

 GEOMETRY NOW FULLY CONSISTENT WITH THE GROUP

 GCALCO - MAX INDICES DIRECT LATTICE VECTOR    14    14    15
 NO.OF VECTORS CREATED 6999 STARS  486 RMAX   216.08901 BOHR

 GEOMETRY FOR WAVE FUNCTION - DIMENSIONALITY OF THE SYSTEM    3
 (NON PERIODIC DIRECTION: LATTICE PARAMETER FORMALLY SET TO 500)
 *******************************************************************************
 LATTICE PARAMETERS (ANGSTROMS AND DEGREES) - BOHR = 0.5291772083 ANGSTROM
 PRIMITIVE CELL - CENTRING CODE 6/0 VOLUME=   891.383141 - DENSITY  2.339 g/cm^3
         A              B              C           ALPHA      BETA       GAMMA 
    10.53594159    10.53594159    10.53594159   112.892965 112.892965 102.825256
 *******************************************************************************
 ATOMS IN THE ASYMMETRIC UNIT   17 - ATOMS IN THE UNIT CELL:   62
     ATOM                 X/A                 Y/B                 Z/C    
 *******************************************************************************
      1 T   6 C     2.020000000000E-01 -3.509200000000E-01  8.070000000000E-02
      2 F   6 C    -4.316200000000E-01  1.213000000000E-01 -8.070000000000E-02
      3 F   6 C     3.509200000000E-01  4.316200000000E-01 -4.470800000000E-01
      4 F   6 C    -1.213000000000E-01 -2.020000000000E-01  4.470800000000E-01
      5 T   6 C     3.133200000000E-01 -3.860700000000E-01  1.801700000000E-01
      6 F   6 C     4.337600000000E-01  1.331500000000E-01 -1.801700000000E-01
      7 F   6 C     3.860700000000E-01 -4.337600000000E-01 -3.006100000000E-01
      8 F   6 C    -1.331500000000E-01 -3.133200000000E-01  3.006100000000E-01
      9 T   6 C     1.034100000000E-01 -4.454000000000E-01 -9.037000000000E-02
     10 F   6 C    -3.550300000000E-01  1.937800000000E-01  9.037000000000E-02
     11 F   6 C     4.454000000000E-01  3.550300000000E-01 -4.511900000000E-01
     12 F   6 C    -1.937800000000E-01 -1.034100000000E-01  4.511900000000E-01
     13 T   6 C    -3.719000000000E-02 -2.928000000000E-01 -8.405000000000E-02
     14 F   6 C    -2.087500000000E-01  4.686000000000E-02  8.405000000000E-02
     15 F   6 C     2.928000000000E-01  2.087500000000E-01  2.556100000000E-01
     16 F   6 C    -4.686000000000E-02  3.719000000000E-02 -2.556100000000E-01
     17 T   6 C     1.723800000000E-01 -2.256400000000E-01  1.517800000000E-01
     18 F   6 C    -3.774200000000E-01  2.060000000000E-02 -1.517800000000E-01
     19 F   6 C     2.256400000000E-01  3.774200000000E-01  3.980200000000E-01
     20 F   6 C    -2.060000000000E-02 -1.723800000000E-01 -3.980200000000E-01
     21 T   6 C    -2.470100000000E-01  1.525800000000E-01  1.725100000000E-01
     22 F   6 C    -1.993000000000E-02 -4.195200000000E-01 -1.725100000000E-01
     23 F   6 C    -1.525800000000E-01  1.993000000000E-02 -3.995900000000E-01
     24 F   6 C     4.195200000000E-01  2.470100000000E-01  3.995900000000E-01
     25 T   7 N     3.328000000000E-01 -3.623600000000E-01  3.248000000000E-01
     26 F   7 N     3.128400000000E-01  8.000000000000E-03 -3.248000000000E-01
     27 F   7 N     3.623600000000E-01 -3.128400000000E-01 -3.048400000000E-01
     28 F   7 N    -8.000000000000E-03 -3.328000000000E-01  3.048400000000E-01
     29 T   7 N     4.450000000000E-01 -4.045600000000E-01  3.867000000000E-01
     30 F   7 N     2.087400000000E-01  5.830000000000E-02 -3.867000000000E-01
     31 F   7 N     4.045600000000E-01 -2.087400000000E-01 -1.504400000000E-01
     32 F   7 N    -5.830000000000E-02 -4.450000000000E-01  1.504400000000E-01
     33 T   7 N     4.100800000000E-01 -4.438900000000E-01  1.515900000000E-01
     34 F   7 N     4.045200000000E-01  2.584900000000E-01 -1.515900000000E-01
     35 F   7 N     4.438900000000E-01 -4.045200000000E-01 -1.460300000000E-01
     36 F   7 N    -2.584900000000E-01 -4.100800000000E-01  1.460300000000E-01
     37 T   7 N     4.912400000000E-01 -4.526100000000E-01  2.843500000000E-01
     38 F   7 N     2.630400000000E-01  2.068900000000E-01 -2.843500000000E-01
     39 F   7 N     4.526100000000E-01 -2.630400000000E-01 -5.615000000000E-02
     40 F   7 N    -2.068900000000E-01 -4.912400000000E-01  5.615000000000E-02
     41 T   7 N     6.068000000000E-02 -1.974700000000E-01  7.409000000000E-02
     42 F   7 N    -2.715600000000E-01 -1.341000000000E-02 -7.409000000000E-02
     43 F   7 N     1.974700000000E-01  2.715600000000E-01  2.581500000000E-01
     44 F   7 N     1.341000000000E-02 -6.068000000000E-02 -2.581500000000E-01
     45 T  17 CL    1.339400000000E-01  4.071100000000E-01 -1.999300000000E-01
     46 F  17 CL   -3.929600000000E-01  3.338700000000E-01  1.999300000000E-01
     47 F  17 CL   -4.071100000000E-01  3.929600000000E-01 -2.731700000000E-01
     48 F  17 CL   -3.338700000000E-01 -1.339400000000E-01  2.731700000000E-01
     49 T  17 CL    2.845400000000E-01 -8.866000000000E-02  3.593800000000E-01
     50 F  17 CL   -4.480400000000E-01 -7.484000000000E-02 -3.593800000000E-01
     51 F  17 CL    8.866000000000E-02  4.480400000000E-01  3.732000000000E-01
     52 F  17 CL    7.484000000000E-02 -2.845400000000E-01 -3.732000000000E-01
     53 T  17 CL   -1.489500000000E-01  4.659600000000E-01 -3.752500000000E-01
     54 F  17 CL   -1.587900000000E-01  2.263000000000E-01  3.752500000000E-01
     55 F  17 CL   -4.659600000000E-01  1.587900000000E-01  3.850900000000E-01
     56 F  17 CL   -2.263000000000E-01  1.489500000000E-01 -3.850900000000E-01
     57 T  17 CL   -1.865200000000E-01 -2.581600000000E-01 -1.824800000000E-01
     58 F  17 CL   -7.568000000000E-02 -4.040000000000E-03  1.824800000000E-01
     59 F  17 CL    2.581600000000E-01  7.568000000000E-02  7.164000000000E-02
     60 F  17 CL    4.040000000000E-03  1.865200000000E-01 -7.164000000000E-02
     61 T  30 ZN    2.500000000000E-01 -2.500000000000E-01  5.000000000000E-01
     62 T  30 ZN   -5.000000000000E-01  5.000000000000E-01  0.000000000000E+00

 TRANSFORMATION MATRIX PRIMITIVE-CRYSTALLOGRAPHIC CELL
  0.0000  1.0000  1.0000  1.0000  0.0000  1.0000  1.0000  1.0000  0.0000

 *******************************************************************************
 CRYSTALLOGRAPHIC CELL (VOLUME=       1782.76628103)
         A              B              C           ALPHA      BETA       GAMMA 
    11.64675943    11.64675943    13.14268810    90.000000  90.000000  90.000000

 COORDINATES IN THE CRYSTALLOGRAPHIC CELL
     ATOM                 X/A                 Y/B                 Z/C    
 *******************************************************************************
      1 T   6 C    -2.361100000000E-01  3.168100000000E-01 -1.148100000000E-01
      2 F   6 C     2.361100000000E-01 -3.168100000000E-01 -1.148100000000E-01
      3 F   6 C     3.168100000000E-01  2.361100000000E-01  1.148100000000E-01
      4 F   6 C    -3.168100000000E-01 -2.361100000000E-01  1.148100000000E-01
      5 T   6 C     2.403900000000E-01 -6.022000000000E-02  3.735400000000E-01
      6 F   6 C    -2.403900000000E-01  6.022000000000E-02  3.735400000000E-01
      7 F   6 C    -6.022000000000E-02 -2.403900000000E-01 -3.735400000000E-01
      8 F   6 C     6.022000000000E-02  2.403900000000E-01 -3.735400000000E-01
      9 T   6 C    -3.195900000000E-01  2.292200000000E-01 -1.258100000000E-01
     10 F   6 C     3.195900000000E-01 -2.292200000000E-01 -1.258100000000E-01
     11 F   6 C     2.292200000000E-01  3.195900000000E-01  1.258100000000E-01
     12 F   6 C    -2.292200000000E-01 -3.195900000000E-01  1.258100000000E-01
     13 T   6 C    -1.698300000000E-01  8.578000000000E-02 -1.229700000000E-01
     14 F   6 C     1.698300000000E-01 -8.578000000000E-02 -1.229700000000E-01
     15 F   6 C     8.578000000000E-02  1.698300000000E-01  1.229700000000E-01
     16 F   6 C    -8.578000000000E-02 -1.698300000000E-01  1.229700000000E-01
     17 T   6 C    -1.231200000000E-01  2.749000000000E-01 -1.025200000000E-01
     18 F   6 C     1.231200000000E-01 -2.749000000000E-01 -1.025200000000E-01
     19 F   6 C     2.749000000000E-01  1.231200000000E-01  1.025200000000E-01
     20 F   6 C    -2.749000000000E-01 -1.231200000000E-01  1.025200000000E-01
     21 T   6 C     2.860500000000E-01 -1.135400000000E-01 -1.334700000000E-01
     22 F   6 C    -2.860500000000E-01  1.135400000000E-01 -1.334700000000E-01
     23 F   6 C    -1.135400000000E-01 -2.860500000000E-01  1.334700000000E-01
     24 F   6 C     1.135400000000E-01  2.860500000000E-01  1.334700000000E-01
     25 T   7 N     3.148200000000E-01  9.980000000000E-03  3.228200000000E-01
     26 F   7 N    -3.148200000000E-01 -9.980000000000E-03  3.228200000000E-01
     27 F   7 N     9.980000000000E-03 -3.148200000000E-01 -3.228200000000E-01
     28 F   7 N    -9.980000000000E-03  3.148200000000E-01 -3.228200000000E-01
     29 T   7 N     2.685700000000E-01  1.181300000000E-01  3.268700000000E-01
     30 F   7 N    -2.685700000000E-01 -1.181300000000E-01  3.268700000000E-01
     31 F   7 N     1.181300000000E-01 -2.685700000000E-01 -3.268700000000E-01
     32 F   7 N    -1.181300000000E-01  2.685700000000E-01 -3.268700000000E-01
     33 T   7 N     1.488100000000E-01  2.780000000000E-03  4.073000000000E-01
     34 F   7 N    -1.488100000000E-01 -2.780000000000E-03  4.073000000000E-01
     35 F   7 N     2.780000000000E-03 -1.488100000000E-01 -4.073000000000E-01
     36 F   7 N    -2.780000000000E-03  1.488100000000E-01 -4.073000000000E-01
     37 T   7 N     1.702500000000E-01  1.141000000000E-01  3.771400000000E-01
     38 F   7 N    -1.702500000000E-01 -1.141000000000E-01  3.771400000000E-01
     39 F   7 N     1.141000000000E-01 -1.702500000000E-01 -3.771400000000E-01
     40 F   7 N    -1.141000000000E-01  1.702500000000E-01 -3.771400000000E-01
     41 T   7 N    -9.203000000000E-02  1.661200000000E-01 -1.054400000000E-01
     42 F   7 N     9.203000000000E-02 -1.661200000000E-01 -1.054400000000E-01
     43 F   7 N     1.661200000000E-01  9.203000000000E-02  1.054400000000E-01
     44 F   7 N    -1.661200000000E-01 -9.203000000000E-02  1.054400000000E-01
     45 T  17 CL    3.662000000000E-02 -2.365500000000E-01  3.704900000000E-01
     46 F  17 CL   -3.662000000000E-02  2.365500000000E-01  3.704900000000E-01
     47 F  17 CL   -2.365500000000E-01 -3.662000000000E-02 -3.704900000000E-01
     48 F  17 CL    2.365500000000E-01  3.662000000000E-02 -3.704900000000E-01
     49 T  17 CL   -6.910000000000E-03  3.662900000000E-01 -8.175000000000E-02
     50 F  17 CL    6.910000000000E-03 -3.662900000000E-01 -8.175000000000E-02
     51 F  17 CL    3.662900000000E-01  6.910000000000E-03  8.175000000000E-02
     52 F  17 CL   -3.662900000000E-01 -6.910000000000E-03  8.175000000000E-02
     53 T  17 CL   -3.801700000000E-01  4.920000000000E-03 -1.538700000000E-01
     54 F  17 CL    3.801700000000E-01 -4.920000000000E-03 -1.538700000000E-01
     55 F  17 CL    4.920000000000E-03  3.801700000000E-01  1.538700000000E-01
     56 F  17 CL   -4.920000000000E-03 -3.801700000000E-01  1.538700000000E-01
     57 T  17 CL   -1.270600000000E-01 -5.542000000000E-02 -1.311000000000E-01
     58 F  17 CL    1.270600000000E-01  5.542000000000E-02 -1.311000000000E-01
     59 F  17 CL   -5.542000000000E-02  1.270600000000E-01  1.311000000000E-01
     60 F  17 CL    5.542000000000E-02 -1.270600000000E-01  1.311000000000E-01
     61 T  30 ZN   -5.000000000000E-01 -4.035489695329E-17  2.500000000000E-01
     62 T  30 ZN    0.000000000000E+00  0.000000000000E+00  5.000000000000E-01

 T = ATOM BELONGING TO THE ASYMMETRIC UNIT

 ****    4 SYMMOPS - TRANSLATORS IN FRACTIONAL UNITS
 **** MATRICES AND TRANSLATORS IN THE CRYSTALLOGRAPHIC REFERENCE FRAME
   V INV                    ROTATION MATRICES                   TRANSLATORS
   1   1  1.00  0.00  0.00  0.00  1.00  0.00  0.00  0.00  1.00  0.00  0.00  0.00
   2   2  0.00  1.00 -1.00  1.00  0.00 -1.00 -0.00  0.00 -1.00  0.00  0.00  0.00
   3   4 -0.00 -1.00  0.00 -0.00 -1.00  1.00  1.00 -1.00  0.00  0.00  0.00  0.00
   4   3 -1.00 -0.00  1.00 -1.00 -0.00  0.00 -1.00  1.00 -0.00  0.00  0.00  0.00

 DIRECT LATTICE VECTORS CARTESIAN COMPONENTS (ANGSTROM)
          X                    Y                    Z
  -0.582337971465E+01   0.582337971465E+01   0.657134404975E+01
   0.582337971465E+01  -0.582337971465E+01   0.657134404975E+01
   0.582337971465E+01   0.582337971465E+01  -0.657134404975E+01


 CARTESIAN COORDINATES - PRIMITIVE CELL
 *******************************************************************************
 *      ATOM          X(ANGSTROM)         Y(ANGSTROM)         Z(ANGSTROM)
 *******************************************************************************
    1     6 C    -2.749916368852E+00  3.689809854797E+00 -1.508912020704E+00
    2     6 C     2.749916368852E+00 -3.689809854797E+00 -1.508912020704E+00
    3     6 C     3.689809854797E+00  2.749916368852E+00  1.508912020704E+00
    4     6 C    -3.689809854797E+00 -2.749916368852E+00  1.508912020704E+00
    5     6 C     2.799764499209E+00 -7.013678528324E-01  4.909319712687E+00
    6     6 C    -2.799764499209E+00  7.013678528324E-01  4.909319712687E+00
    7     6 C    -7.013678528324E-01 -2.799764499209E+00 -4.909319712687E+00
    8     6 C     7.013678528324E-01  2.799764499209E+00 -4.909319712687E+00
    9     6 C    -3.722187846010E+00  2.669670196384E+00 -1.653481589798E+00
   10     6 C     3.722187846010E+00 -2.669670196384E+00 -1.653481589798E+00
   11     6 C     2.669670196384E+00  3.722187846010E+00  1.653481589798E+00
   12     6 C    -2.669670196384E+00 -3.722187846010E+00  1.653481589798E+00
   13     6 C    -1.977969153878E+00  9.990590238454E-01 -1.616156355596E+00
   14     6 C     1.977969153878E+00 -9.990590238454E-01 -1.616156355596E+00
   15     6 C     9.990590238454E-01  1.977969153878E+00  1.616156355596E+00
   16     6 C    -9.990590238454E-01 -1.977969153878E+00  1.616156355596E+00
   17     6 C    -1.433949020935E+00  3.201694167115E+00 -1.347388383961E+00
   18     6 C     1.433949020935E+00 -3.201694167115E+00 -1.347388383961E+00
   19     6 C     3.201694167115E+00  1.433949020935E+00  1.347388383961E+00
   20     6 C    -3.201694167115E+00 -1.433949020935E+00  1.347388383961E+00
   21     6 C     3.331555534751E+00 -1.322373065603E+00 -1.754154580640E+00
   22     6 C    -3.331555534751E+00  1.322373065603E+00 -1.754154580640E+00
   23     6 C    -1.322373065603E+00 -3.331555534751E+00  1.754154580640E+00
   24     6 C     1.322373065603E+00  3.331555534751E+00  1.754154580640E+00
   25     7 N     3.666632803532E+00  1.162346591044E-01  4.242722572281E+00
   26     7 N    -3.666632803532E+00 -1.162346591044E-01  4.242722572281E+00
   27     7 N     1.162346591044E-01 -3.666632803532E+00 -4.242722572281E+00
   28     7 N    -1.162346591044E-01  3.666632803532E+00 -4.242722572281E+00
   29     7 N     3.127970179927E+00  1.375831691383E+00  4.295950459084E+00
   30     7 N    -3.127970179927E+00 -1.375831691383E+00  4.295950459084E+00
   31     7 N     1.375831691383E+00 -3.127970179927E+00 -4.295950459084E+00
   32     7 N    -1.375831691383E+00  3.127970179927E+00 -4.295950459084E+00
   33     7 N     1.733154270674E+00  3.237799121346E-02  5.353016862926E+00
   34     7 N    -1.733154270674E+00 -3.237799121345E-02  5.353016862926E+00
   35     7 N     3.237799121346E-02 -1.733154270674E+00 -5.353016862926E+00
   36     7 N    -3.237799121345E-02  1.733154270674E+00 -5.353016862926E+00
   37     7 N     1.982860792838E+00  1.328895250883E+00  4.956633389845E+00
   38     7 N    -1.982860792838E+00 -1.328895250883E+00  4.956633389845E+00
   39     7 N     1.328895250883E+00 -1.982860792838E+00 -4.956633389845E+00
   40     7 N    -1.328895250883E+00  1.982860792838E+00 -4.956633389845E+00
   41     7 N    -1.071851270278E+00  1.934759676395E+00 -1.385765033211E+00
   42     7 N     1.071851270278E+00 -1.934759676395E+00 -1.385765033211E+00
   43     7 N     1.934759676395E+00  1.071851270278E+00  1.385765033211E+00
   44     7 N    -1.934759676395E+00 -1.071851270278E+00  1.385765033211E+00
   45    17 CL    4.265043303010E-01 -2.755040943001E+00  4.869234513984E+00
   46    17 CL   -4.265043303010E-01  2.755040943001E+00  4.869234513984E+00
   47    17 CL   -2.755040943001E+00 -4.265043303010E-01 -4.869234513984E+00
   48    17 CL    2.755040943001E+00  4.265043303010E-01 -4.869234513984E+00
   49    17 CL   -8.047910765646E-02  4.266091511358E+00 -1.074414752134E+00
   50    17 CL    8.047910765646E-02 -4.266091511358E+00 -1.074414752134E+00
   51    17 CL    4.266091511358E+00  8.047910765646E-02  1.074414752134E+00
   52    17 CL   -4.266091511358E+00 -8.047910765646E-02  1.074414752134E+00
   53    17 CL   -4.427748532237E+00  5.730205639216E-02 -2.022265417870E+00
   54    17 CL    4.427748532237E+00 -5.730205639216E-02 -2.022265417870E+00
   55    17 CL    5.730205639216E-02  4.427748532237E+00  2.022265417870E+00
   56    17 CL   -5.730205639216E-02 -4.427748532237E+00  2.022265417870E+00
   57    17 CL   -1.479837253087E+00 -6.454634075718E-01 -1.723006409844E+00
   58    17 CL    1.479837253087E+00  6.454634075718E-01 -1.723006409844E+00
   59    17 CL   -6.454634075718E-01  1.479837253087E+00  1.723006409844E+00
   60    17 CL    6.454634075718E-01 -1.479837253087E+00  1.723006409844E+00
   61    30 ZN    5.823379714650E+00 -4.700037766092E-16 -9.857016074625E+00
   62    30 ZN    0.000000000000E+00  0.000000000000E+00  6.571344049750E+00

 *******************************************************************************
 STARTING BASIS SET HANDLING 
 *******************************************************************************

 Loading internal basis set: POB-DZVPP           

 Please cite in your publication:
 Peintinger, M. F., Oliveira, D. V. and Bredow, T. (2013), Generally applicable 
 solid-state Gaussian basis sets, in preparation                                
                                                                                
                    

 *******************************************************************************
 LOCAL ATOMIC FUNCTIONS BASIS SET
 *******************************************************************************
   ATOM   X(AU)   Y(AU)   Z(AU)  N. TYPE  EXPONENT  S COEF   P COEF   D/F/G COEF
 *******************************************************************************
   1 C   -5.197   6.973  -2.851
                                  1 S  
                                         1.238E+03 5.457E-03 0.000E+00 0.000E+00
                                         1.863E+02 4.064E-02 0.000E+00 0.000E+00
                                         4.225E+01 1.803E-01 0.000E+00 0.000E+00
                                         1.168E+01 4.632E-01 0.000E+00 0.000E+00
                                         3.593E+00 4.409E-01 0.000E+00 0.000E+00
                                  2 S  
                                         5.281E+00 1.000E+00 0.000E+00 0.000E+00
                                  3 S  
                                         4.447E-01 1.000E+00 0.000E+00 0.000E+00
                           4-     6 P  
                                         9.468E+00 0.000E+00 3.839E-02 0.000E+00
                                         2.010E+00 0.000E+00 2.112E-01 0.000E+00
                                         5.477E-01 0.000E+00 5.133E-01 0.000E+00
                           7-     9 P  
                                         1.604E-01 0.000E+00 1.000E+00 0.000E+00
                          10-    14 D  
                                         6.070E-01 0.000E+00 0.000E+00 1.000E+00
                          15-    19 D  
                                         2.939E-01 0.000E+00 0.000E+00 1.000E+00
   2 C    5.197  -6.973  -2.851
   3 C    6.973   5.197   2.851
   4 C   -6.973  -5.197   2.851
   5 C    5.291  -1.325   9.277
   6 C   -5.291   1.325   9.277
   7 C   -1.325  -5.291  -9.277
   8 C    1.325   5.291  -9.277
   9 C   -7.034   5.045  -3.125
  10 C    7.034  -5.045  -3.125
  11 C    5.045   7.034   3.125
  12 C   -5.045  -7.034   3.125
  13 C   -3.738   1.888  -3.054
  14 C    3.738  -1.888  -3.054
  15 C    1.888   3.738   3.054
  16 C   -1.888  -3.738   3.054
  17 C   -2.710   6.050  -2.546
  18 C    2.710  -6.050  -2.546
  19 C    6.050   2.710   2.546
  20 C   -6.050  -2.710   2.546
  21 C    6.296  -2.499  -3.315
  22 C   -6.296   2.499  -3.315
  23 C   -2.499  -6.296   3.315
  24 C    2.499   6.296   3.315
  25 N    6.929   0.220   8.018
                                457 S  
                                         1.713E+03-5.393E-03 0.000E+00 0.000E+00
                                         2.576E+02-4.022E-02 0.000E+00 0.000E+00
                                         5.846E+01-1.793E-01 0.000E+00 0.000E+00
                                         1.620E+01-4.638E-01 0.000E+00 0.000E+00
                                         5.005E+00-4.417E-01 0.000E+00 0.000E+00
                                458 S  
                                         6.217E-01 1.000E+00 0.000E+00 0.000E+00
                                459 S  
                                         2.921E-01 1.000E+00 0.000E+00 0.000E+00
                         460-   462 P  
                                         1.357E+01 0.000E+00-4.007E-02 0.000E+00
                                         2.926E+00 0.000E+00-2.181E-01 0.000E+00
                                         7.993E-01 0.000E+00-5.129E-01 0.000E+00
                         463-   465 P  
                                         2.244E-01 0.000E+00 1.000E+00 0.000E+00
                         466-   470 D  
                                         3.118E-01 0.000E+00 0.000E+00 1.000E+00
  26 N   -6.929  -0.220   8.018
  27 N    0.220  -6.929  -8.018
  28 N   -0.220   6.929  -8.018
  29 N    5.911   2.600   8.118
  30 N   -5.911  -2.600   8.118
  31 N    2.600  -5.911  -8.118
  32 N   -2.600   5.911  -8.118
  33 N    3.275   0.061  10.116
  34 N   -3.275  -0.061  10.116
  35 N    0.061  -3.275 -10.116
  36 N   -0.061   3.275 -10.116
  37 N    3.747   2.511   9.367
  38 N   -3.747  -2.511   9.367
  39 N    2.511  -3.747  -9.367
  40 N   -2.511   3.747  -9.367
  41 N   -2.026   3.656  -2.619
  42 N    2.026  -3.656  -2.619
  43 N    3.656   2.026   2.619
  44 N   -3.656  -2.026   2.619
  45 CL   0.806  -5.206   9.202
                                737 S  
                                         1.045E+04 1.971E-03 0.000E+00 0.000E+00
                                         1.572E+03 1.475E-02 0.000E+00 0.000E+00
                                         3.571E+02 6.668E-02 0.000E+00 0.000E+00
                                         1.003E+02 1.723E-01 0.000E+00 0.000E+00
                                         3.081E+01 1.588E-01 0.000E+00 0.000E+00
                                738 S  
                                         5.192E+01-1.001E-01 0.000E+00 0.000E+00
                                         5.705E+00 6.084E-01 0.000E+00 0.000E+00
                                         2.351E+00 5.435E-01 0.000E+00 0.000E+00
                                739 S  
                                         4.886E-01 1.000E+00 0.000E+00 0.000E+00
                                740 S  
                                         1.984E-01 1.000E+00 0.000E+00 0.000E+00
                         741-   743 P  
                                         3.077E+02 0.000E+00-8.780E-03 0.000E+00
                                         7.210E+01 0.000E+00-6.356E-02 0.000E+00
                                         2.253E+01 0.000E+00-2.402E-01 0.000E+00
                                         7.899E+00 0.000E+00-4.780E-01 0.000E+00
                                         2.877E+00 0.000E+00-3.852E-01 0.000E+00
                         744-   746 P  
                                         9.483E-01 0.000E+00 1.000E+00 0.000E+00
                         747-   749 P  
                                         2.521E-01 0.000E+00 1.000E+00 0.000E+00
                         750-   754 D  
                                         9.722E-01 0.000E+00 0.000E+00 1.000E+00
                         755-   759 D  
                                         2.060E-01 0.000E+00 0.000E+00 1.000E+00
  46 CL  -0.806   5.206   9.202
  47 CL  -5.206  -0.806  -9.202
  48 CL   5.206   0.806  -9.202
  49 CL  -0.152   8.062  -2.030
  50 CL   0.152  -8.062  -2.030
  51 CL   8.062   0.152   2.030
  52 CL  -8.062  -0.152   2.030
  53 CL  -8.367   0.108  -3.822
  54 CL   8.367  -0.108  -3.822
  55 CL   0.108   8.367   3.822
  56 CL  -0.108  -8.367   3.822
  57 CL  -2.796  -1.220  -3.256
  58 CL   2.796   1.220  -3.256
  59 CL  -1.220   2.796   3.256
  60 CL   1.220  -2.796   3.256
  61 ZN  11.005  -0.000 -18.627
                               1105 S  
                                         8.200E+04 1.421E-03 0.000E+00 0.000E+00
                                         1.231E+04 1.089E-02 0.000E+00 0.000E+00
                                         2.801E+03 5.406E-02 0.000E+00 0.000E+00
                                         7.910E+02 1.885E-01 0.000E+00 0.000E+00
                                         2.576E+02 3.835E-01 0.000E+00 0.000E+00
                                         8.881E+01 2.972E-01 0.000E+00 0.000E+00
                               1106 S  
                                         1.719E+02-1.105E-01 0.000E+00 0.000E+00
                                         2.030E+01 6.461E-01 0.000E+00 0.000E+00
                                         8.346E+00 4.422E-01 0.000E+00 0.000E+00
                               1107 S  
                                         1.485E+01-2.271E-01 0.000E+00 0.000E+00
                                         2.450E+00 7.243E-01 0.000E+00 0.000E+00
                                         9.985E-01 4.484E-01 0.000E+00 0.000E+00
                               1108 S  
                                         1.493E+00 1.000E+00 0.000E+00 0.000E+00
                               1109 S  
                                         1.830E-01 1.000E+00 0.000E+00 0.000E+00
                        1110-  1112 P  
                                         1.072E+03 0.000E+00 9.277E-03 0.000E+00
                                         2.527E+02 0.000E+00 6.954E-02 0.000E+00
                                         8.010E+01 0.000E+00 2.716E-01 0.000E+00
                                         2.890E+01 0.000E+00 5.340E-01 0.000E+00
                                         1.077E+01 0.000E+00 3.450E-01 0.000E+00
                        1113-  1115 P  
                                         5.645E+00 0.000E+00 3.413E-01 0.000E+00
                                         2.168E+00 0.000E+00 5.639E-01 0.000E+00
                                         8.054E-01 0.000E+00 2.368E-01 0.000E+00
                        1116-  1118 P  
                                         2.721E-01 0.000E+00 1.000E+00 0.000E+00
                        1119-  1123 D  
                                         5.609E+01 0.000E+00 0.000E+00 2.959E-02
                                         1.575E+01 0.000E+00 0.000E+00 1.587E-01
                                         5.312E+00 0.000E+00 0.000E+00 3.798E-01
                                         1.774E+00 0.000E+00 0.000E+00 4.690E-01
                        1124-  1128 D  
                                         5.073E-01 0.000E+00 0.000E+00 1.000E+00
                        1129-  1135 F  
                                         2.814E+00 0.000E+00 0.000E+00 1.000E+00
                        1136-  1142 F  
                                         1.300E+00 0.000E+00 0.000E+00 1.000E+00
  62 ZN   0.000   0.000  12.418

 *******************************************************************************
 FINISHED BASIS SET HANDLING 
 *******************************************************************************

 INFORMATION **** SET_MPP **** PCRYSTAL CALCULATION
 INFORMATION **** READM2 **** NEW DEFAULT: FOCK/KS MATRIX MIXING SET TO 30 %
 INFORMATION **** READM2 **** NEW DEFAULT: FULL DIRECT SCF MODE
 INFORMATION **** READM2 **** NEW DEFAULT: COULOMB BIPOLAR BUFFER SET TO 32 Mb
 INFORMATION **** READM2 **** NEW DEFAULT: EXCHANGE BIPOLAR BUFFER SET TO 32 Mb

 *******************************************************************************
 NEW DEFAULT: DFT INTEGRATION GRID INCREASED TO XLGRID
 NEW DEFAULT: DIIS ACCELERATOR ACTIVE
 USE KEYWORD NODIIS TO TURN IT OFF
 *******************************************************************************

 INFORMATION **** DFTD3_INPUT **** PERFORM DISPERSION CORRECTION DFT-D3(BJ) IN THE BECKE-JOHNSON DAMPING SCHEME

 PLEASE CITE:
 (1) DFT-D3 Reference
  S. Grimme, J. Antony, S. Ehrlich, and H. Krieg, J. Chem. Phys. 132 (2010), 154104
 (2) BJ-Damping Reference
  S. Grimme, S. Ehrlich, and L. Goerigk, J. Comput. Chem. 32 (2011), 1456-1465
 (3) General DFT-D Review
  S. Grimme, A. Hansen, J. G. Brandenburg, and C. Bannwarth,
  Chem. Rev. 116 (2016), 5105-5154

 INFORMATION **** TOLINTEG **** COULOMB AND EXCHANGE SERIES TOLERANCES MODIFIED
 INFORMATION **** BIPOSIZE **** COULOMB BIPOLAR BUFFER SET TO   100000000
 INFORMATION **** MAXCYCLE **** MAX NUMBER OF SCF CYCLES SET TO          50
 *******************************************************************************
 N. OF ATOMS PER CELL        62  COULOMB OVERLAP TOL         (T1) 10**  -12
 NUMBER OF SHELLS           456  COULOMB PENETRATION TOL     (T2) 10**  -12
 NUMBER OF AO              1180  EXCHANGE OVERLAP TOL        (T3) 10**   20
 N. OF ELECTRONS PER CELL   616  EXCHANGE PSEUDO OVP (F(G))  (T4) 10**   20
 CORE ELECTRONS PER CELL    284  EXCHANGE PSEUDO OVP (P(G))  (T5) 10**   20
 N. OF SYMMETRY OPERATORS     4  POLE ORDER IN MONO ZONE                  4
 *******************************************************************************
 TYPE OF CALCULATION :  RESTRICTED CLOSED SHELL
 KOHN-SHAM HAMILTONIAN

 (EXCHANGE)[CORRELATION] FUNCTIONAL:(PERDEW-BURKE-ERNZERHOF)[PERDEW-BURKE-ERNZERHOF]


 CAPPA:IS1  3;IS2  3;IS3  3; K PTS MONK NET   6; SYMMOPS:K SPACE   8;G SPACE   4

 *******************************************************************************
 MAX NUMBER OF SCF CYCLES      50  CONVERGENCE ON DELTAP        10**-16
 WEIGHT OF F(I) IN F(I+1)      30% CONVERGENCE ON ENERGY        10**- 6
 SHRINK. FACT.(MONKH.)    3  3  3  NUMBER OF K POINTS IN THE IBZ      6
 SHRINKING FACTOR(GILAT NET)    3  NUMBER OF K POINTS(GILAT NET)      6
 *******************************************************************************
 *** K POINTS COORDINATES (OBLIQUE COORDINATES IN UNITS OF IS =  3)
   1-R(  0  0  0)   2-C(  1  0  0)   3-C(  1  1  0)   4-C(  2  1  0)
   5-C(  2  1  1)   6-C(  2  2  1)

 DIRECT LATTICE VECTORS COMPON. (A.U.)     RECIP. LATTICE VECTORS COMPON. (A.U.) 
        X            Y            Z              X            Y            Z
  -11.0045928   11.0045928   12.4180406      0.0000000    0.2854801    0.2529862
   11.0045928  -11.0045928   12.4180406      0.2854801    0.0000000    0.2529862
   11.0045928   11.0045928  -12.4180406      0.2854801    0.2854801    0.0000000

 DISK SPACE FOR EIGENVECTORS (FTN 10)    15316400 REALS

 SYMMETRY ADAPTION OF THE BLOCH FUNCTIONS ENABLED
 TTTTTTTTTTTTTTTTTTTTTTTTTTTTTT gordsh1     TELAPSE        4.17 TCPU        0.05

 MATRIX SIZE: P(G) 1706032, F(G)  853606, P(G) IRR  215716, F(G) IRR  215716
 MAX G-VECTOR INDEX FOR 1- AND 2-ELECTRON INTEGRALS  59

 TTTTTTTTTTTTTTTTTTTTTTTTTTTTTT INPUT       TELAPSE        4.39 TCPU        0.27

 NEIGHBORS OF THE NON-EQUIVALENT ATOMS

 N = NUMBER OF NEIGHBORS AT DISTANCE R
    ATOM  N     R/ANG      R/AU   NEIGHBORS (ATOM LABELS AND CELL INDICES)
   1 C    1     1.4128     2.6699   17 C    0 0 0
   1 C    1     1.4166     2.6771    9 C    0 0 0
   1 C    1     1.4661     2.7706    5 C    0-1 0
   1 C    1     2.4313     4.5945   41 N    0 0 0
   1 C    1     2.4501     4.6301   22 C    0 0 0
   1 C    1     2.4669     4.6617   25 N    0-1 0

   5 C    1     1.3654     2.5802   25 N    0 0 0
   5 C    1     1.3685     2.5862   33 N    0 0 0
   5 C    1     1.4661     2.7706    1 C    0 1 0
   5 C    1     2.1890     4.1365   37 N    0 0 0
   5 C    1     2.1906     4.1396   29 N    0 0 0
   5 C    1     2.5127     4.7483   17 C    0 1 0

   9 C    1     1.4064     2.6577   22 C    0 0 0
   9 C    1     1.4166     2.6771    1 C    0 0 0
   9 C    1     1.7222     3.2544   45 CL   0-1 0
   9 C    1     2.3691     4.4770   17 C    0 0 0
   9 C    1     2.4155     4.5646   13 C    0 0 0
   9 C    1     2.5499     4.8186    5 C    0-1 0

  13 C    1     1.3227     2.4996   41 N    0 0 0
  13 C    1     1.3985     2.6428   22 C    0 0 0
  13 C    1     1.7216     3.2534   57 CL   0 0 0
  13 C    1     2.2847     4.3174   17 C    0 0 0
  13 C    1     2.4155     4.5646    9 C    0 0 0
  13 C    1     2.6558     5.0187   53 CL   0 0 0

  17 C    1     1.3182     2.4911   41 N    0 0 0
  17 C    1     1.4128     2.6699    1 C    0 0 0
  17 C    1     1.7434     3.2945   49 CL   0 0 0
  17 C    1     2.2847     4.3174   13 C    0 0 0
  17 C    1     2.3691     4.4770    9 C    0 0 0
  17 C    1     2.5127     4.7483    5 C    0-1 0

  21 C    1     1.3985     2.6428   14 C    0 0 0
  21 C    1     1.4064     2.6577   10 C    0 0 0
  21 C    1     1.6953     3.2036   54 CL   0 0 0
  21 C    1     2.3700     4.4787   42 N    0 0 0
  21 C    1     2.4501     4.6301    2 C    0 0 0
  21 C    1     2.7015     5.1051   18 C    0 0 0

  25 N    1     1.3654     2.5802    5 C    0 0 0
  25 N    1     1.3710     2.5908   29 N    0 0 0
  25 N    1     2.1944     4.1468   37 N    0 0 0
  25 N    1     2.2312     4.2163   33 N    0 0 0
  25 N    1     2.3624     4.4643   61 ZN   1 1 0
  25 N    1     2.4669     4.6617    1 C    0 1 0

  29 N    1     1.3229     2.4999   37 N    0 0 0
  29 N    1     1.3710     2.5908   25 N    0 0 0
  29 N    1     2.1906     4.1396    5 C    0 0 0
  29 N    1     2.2063     4.1693   33 N    0 0 0
  29 N    1     2.9501     5.5748   19 C    0 0 0
  29 N    1     3.0300     5.7258   50 CL   1 1 1

  33 N    1     1.3685     2.5862    5 C    0 0 0
  33 N    1     1.3786     2.6051   37 N    0 0 0
  33 N    1     2.1188     4.0039   62 ZN   0 0 0
  33 N    1     2.2063     4.1693   29 N    0 0 0
  33 N    1     2.2312     4.2163   25 N    0 0 0
  33 N    1     2.5636     4.8446    1 C    0 1 0

  37 N    1     1.3229     2.4999   29 N    0 0 0
  37 N    1     1.3786     2.6051   33 N    0 0 0
  37 N    1     2.1890     4.1365    5 C    0 0 0
  37 N    1     2.1944     4.1468   25 N    0 0 0
  37 N    1     2.8012     5.2934   46 CL   0 0 0
  37 N    1     2.8818     5.4459   62 ZN   0 0 0

  41 N    1     1.3182     2.4911   17 C    0 0 0
  41 N    1     1.3227     2.4996   13 C    0 0 0
  41 N    1     2.3700     4.4787   22 C    0 0 0
  41 N    1     2.4313     4.5945    1 C    0 0 0
  41 N    1     2.5524     4.8234   49 CL   0 0 0
  41 N    1     2.6340     4.9775   57 CL   0 0 0

  45 CL   1     1.7222     3.2544    9 C    0 1 0
  45 CL   1     2.7049     5.1116   22 C    0 1 0
  45 CL   1     2.7258     5.1510    1 C    0 1 0
  45 CL   1     2.8012     5.2934   38 N    0 0 0
  45 CL   1     3.1163     5.8889   33 N    0 0 0
  45 CL   1     3.1191     5.8942   35 N    1 1 0

  49 CL   1     1.7434     3.2945   17 C    0 0 0
  49 CL   1     2.5524     4.8234   41 N    0 0 0
  49 CL   1     2.7058     5.1132   61 ZN   1 0 0
  49 CL   1     2.7653     5.2256    1 C    0 0 0
  49 CL   1     2.9419     5.5594   26 N    0 0 1
  49 CL   1     2.9470     5.5690   25 N    0-1 0

  53 CL   1     1.6953     3.2036   22 C    0 0 0
  53 CL   1     2.6558     5.0187   13 C    0 0 0
  53 CL   1     2.7310     5.1608    9 C    0 0 0
  53 CL   1     2.7936     5.2792   54 CL   0-1-1
  53 CL   1     3.0453     5.7547   57 CL   0 0 0
  53 CL   1     3.1040     5.8656   52 CL   0 0 0

  57 CL   1     1.7216     3.2534   13 C    0 0 0
  57 CL   1     2.6340     4.9775   41 N    0 0 0
  57 CL   1     2.7023     5.1065   22 C    0 0 0
  57 CL   1     2.8787     5.4400   42 N    0 0 0
  57 CL   1     3.0453     5.7547   53 CL   0 0 0
  57 CL   1     3.1707     5.9917   44 N    0 0 0

  61 ZN   4     2.3624     4.4643   25 N   -1-1 0   26 N   -1 0 1   27 N    0 0 1
                                    28 N   -1 0 0
  61 ZN   4     2.7058     5.1132   49 CL  -1 0 0   50 CL   0 0 1   51 CL  -1-1 0
                                    52 CL  -1 0 1
  61 ZN   4     3.1904     6.0290   29 N   -1-1 0   30 N   -1 0 1   31 N    0 0 1
                                    32 N   -1 0 0
  61 ZN   4     3.5029     6.6195    5 C   -1-1 0    6 C   -1 0 1    7 C    0 0 1
                                     8 C   -1 0 0
  61 ZN   4     3.5618     6.7308   17 C   -1 0 0   18 C    0 0 1   19 C   -1-1 0
                                    20 C   -1 0 1
  61 ZN   4     3.9078     7.3847    1 C   -1 0 0    2 C    0 0 1    3 C   -1-1 0
                                     4 C   -1 0 1

  62 ZN   4     2.1188     4.0039   33 N    0 0 0   34 N    0 0 0   35 N    1 1 0
                                    36 N    1 1 0
  62 ZN   4     2.8818     5.4459   37 N    0 0 0   38 N    0 0 0   39 N    1 1 0
                                    40 N    1 1 0
  62 ZN   4     3.2664     6.1726   45 CL   0 0 0   46 CL   0 0 0   47 CL   1 1 0
                                    48 CL   1 1 0
  62 ZN   4     3.3306     6.2939    5 C    0 0 0    6 C    0 0 0    7 C    1 1 0
                                     8 C    1 1 0
  62 ZN   4     4.0342     7.6236    1 C    0 1 0    2 C    1 0 0    3 C    0 0-1
                                     4 C    1 1 1
  62 ZN   4     4.1054     7.7581   29 N    0 0 0   30 N    0 0 0   31 N    1 1 0
                                    32 N    1 1 0


 SYMMETRY ALLOWED INTERNAL DEGREE(S) OF FREEDOM:  45
 TTTTTTTTTTTTTTTTTTTTTTTTTTTTTT SYMM        TELAPSE        4.45 TCPU        0.33
 TTTTTTTTTTTTTTTTTTTTTTTTTTTTTT INT_SCREEN  TELAPSE        4.46 TCPU        0.33
 INFORMATION **** EXCBUF **** EXCH. BIPO BUFFER: WORDS USED =           0

 DFT PARAMETERS

     ATOM       ELECTRONS   NET CHARGE   R(ANGSTROM)
   1   6  C       6.0000      0.0000     0.77000000
  25   7  N       7.0000      0.0000     0.74000000
  45  17  CL     17.0000      0.0000     0.99000000
  61  30  ZN     30.0000      0.0000     1.37000000

 SIZE OF GRID=     501128
 TTTTTTTTTTTTTTTTTTTTTTTTTTTTTT MAKE_GRID2  TELAPSE        5.13 TCPU        1.00
 BECKE WEIGHT FUNCTION
 RADSAFE =     2.00
 TOLERANCES - DENSITY:10**- 6; POTENTIAL:10**- 9; GRID WGT:10**-14

 RADIAL INTEGRATION  - INTERVALS (POINTS,UPPER LIMIT):            1( 75,  4.0*R)

 ANGULAR INTEGRATION - INTERVALS (ACCURACY LEVEL [N. POINTS] UPPER LIMIT):
  1(  4[  86]   0.2)  2(  8[ 194]   0.5)  3( 12[ 350]   0.9)  4( 16[ 974]   3.5)
  5( 12[ 350]9999.0)
 TTTTTTTTTTTTTTTTTTTTTTTTTTTTTT INT_CALC    TELAPSE        5.17 TCPU        1.04
 EEEEEEEEEE INT_CALC TERMINATION  DATE 08 12 2023 TIME 13:22:25.7

 *******************************************************************************
 Z:\home\sanoj\Downloads\tmp_p\newconn.mol                                       
 CRYSTAL - SCF - TYPE OF CALCULATION :  RESTRICTED CLOSED SHELL
 *******************************************************************************

 CAPPA:IS1  3;IS2  3;IS3  3; K PTS MONK NET   6; SYMMOPS:K SPACE   8;G SPACE   4

 TTTTTTTTTTTTTTTTTTTTTTTTTTTTTT SDIK        TELAPSE        5.42 TCPU        1.29

 AAAAAAAAAAAAAAAAAAAAAAAAAAAAAAAAAAAAAAAAAAAAAAAAAAAAAAAAAAAAAAAAAAAAAAAAAAAAAAA
         ATOMIC WAVEFUNCTION(S)


 NUCLEAR CHARGE  6.0  SYMMETRY SPECIES            S    P
 N. ELECTRONS    6.0  NUMBER OF PRIMITIVE GTOS    7    4
                      NUMBER OF CONTRACTED GTOS   3    2
                      NUMBER OF CLOSED SHELLS     2    0
                      OPEN SHELL OCCUPATION       0    2

  ZNUC SCFIT  TOTAL HF ENERGY   KINETIC ENERGY   VIRIAL THEOREM ACCURACY
   6.0   6   -3.750912652E+01  3.905246519E+01 -1.960480378E+00  3.7E-06

 NUCLEAR CHARGE  7.0  SYMMETRY SPECIES            S    P
 N. ELECTRONS    7.0  NUMBER OF PRIMITIVE GTOS    7    4
                      NUMBER OF CONTRACTED GTOS   3    2
                      NUMBER OF CLOSED SHELLS     2    0
                      OPEN SHELL OCCUPATION       0    3

  ZNUC SCFIT  TOTAL HF ENERGY   KINETIC ENERGY   VIRIAL THEOREM ACCURACY
   7.0   9   -5.432196661E+01  5.425066284E+01 -2.001314339E+00  1.2E-06

 NUCLEAR CHARGE 17.0  SYMMETRY SPECIES            S    P
 N. ELECTRONS   17.0  NUMBER OF PRIMITIVE GTOS   10    7
                      NUMBER OF CONTRACTED GTOS   4    3
                      NUMBER OF CLOSED SHELLS     3    1
                      OPEN SHELL OCCUPATION       0    5

  ZNUC SCFIT  TOTAL HF ENERGY   KINETIC ENERGY   VIRIAL THEOREM ACCURACY
  17.0   9   -4.593005957E+02  4.593991532E+02 -1.999785464E+00  2.3E-06

 NUCLEAR CHARGE 30.0  SYMMETRY SPECIES            S    P    D
 N. ELECTRONS   30.0  NUMBER OF PRIMITIVE GTOS   14    9    5
                      NUMBER OF CONTRACTED GTOS   5    3    2
                      NUMBER OF CLOSED SHELLS     4    2    1
                      OPEN SHELL OCCUPATION       0    0    0

  ZNUC SCFIT  TOTAL HF ENERGY   KINETIC ENERGY   VIRIAL THEOREM ACCURACY
  30.0  10   -1.777404290E+03  1.777325716E+03 -2.000044209E+00  2.5E-06

 AAAAAAAAAAAAAAAAAAAAAAAAAAAAAAAAAAAAAAAAAAAAAAAAAAAAAAAAAAAAAAAAAAAAAAAAAAAAAAA

 TOTAL ATOMIC CHARGES:
   6.0000000   6.0000000   6.0000000   6.0000000   6.0000000   6.0000000
   6.0000000   6.0000000   6.0000000   6.0000000   6.0000000   6.0000000
   6.0000000   6.0000000   6.0000000   6.0000000   6.0000000   6.0000000
   6.0000000   6.0000000   6.0000000   6.0000000   6.0000000   6.0000000
   7.0000000   7.0000000   7.0000000   7.0000000   7.0000000   7.0000000
   7.0000000   7.0000000   7.0000000   7.0000000   7.0000000   7.0000000
   7.0000000   7.0000000   7.0000000   7.0000000   7.0000000   7.0000000
   7.0000000   7.0000000  17.0000000  17.0000000  17.0000000  17.0000000
  17.0000000  17.0000000  17.0000000  17.0000000  17.0000000  17.0000000
  17.0000000  17.0000000  17.0000000  17.0000000  17.0000000  17.0000000
  30.0000000  30.0000000
 TTTTTTTTTTTTTTTTTTTTTTTTTTTTTT MOQGAD      TELAPSE        8.58 TCPU        4.43
 TTTTTTTTTTTTTTTTTTTTTTTTTTTTTT SHELLXN     TELAPSE       60.51 TCPU       49.88
 TTTTTTTTTTTTTTTTTTTTTTTTTTTTTT MONMO3      TELAPSE       65.29 TCPU       54.65
 NUMERICALLY INTEGRATED DENSITY    615.9999356936
 TTTTTTTTTTTTTTTTTTTTTTTTTTTTTT NUMDFT      TELAPSE       67.22 TCPU       56.57
 CYC   0 ETOT(AU) -1.292676160363E+04 DETOT -1.29E+04 tst  0.00E+00 PX  1.00E+00
 TTTTTTTTTTTTTTTTTTTTTTTTTTTTTT DIIS        TELAPSE       67.31 TCPU       56.66
 TTTTTTTTTTTTTTTTTTTTTTTTTTTTTT FDIK        TELAPSE      133.47 TCPU      113.61
 INSULATING STATE
 TOP OF VALENCE BANDS -    BAND    308; K    4; EIG -1.3366872E-01 AU
 TOP OF VALENCE BANDS -    BAND    308; K    1; EIG -1.3482412E-01 AU
 BOTTOM OF VIRTUAL BANDS - BAND    309; K    4; EIG -8.6206422E-02 AU
 DIRECT ENERGY BAND GAP:   1.2915 eV
 BOTTOM OF VIRTUAL BANDS - BAND    309; K    1; EIG -8.5618668E-02 AU
 TTTTTTTTTTTTTTTTTTTTTTTTTTTTTT PDIG        TELAPSE      134.47 TCPU      114.60
 TOTAL ATOMIC CHARGES:
   6.3388522   6.3388522   6.3388522   6.3388522   5.5704143   5.5704143
   5.5704143   5.5704143   5.5029439   5.5029439   5.5029439   5.5029439
   5.2475406   5.2475406   5.2475406   5.2475406   5.1426525   5.1426525
   5.1426525   5.1426525   5.6864224   5.6864224   5.6864224   5.6864224
   7.5121781   7.5121781   7.5121781   7.5121781   7.2237653   7.2237653
   7.2237653   7.2237653   7.4897681   7.4897681   7.4897681   7.4897681
   7.1646036   7.1646036   7.1646036   7.1646036   7.7183894   7.7183894
   7.7183894   7.7183894  17.3312697  17.3312697  17.3312697  17.3312697
  17.3674640  17.3674640  17.3674640  17.3674640  17.3748762  17.3748762
  17.3748762  17.3748762  17.3042575  17.3042575  17.3042575  17.3042575
  28.0558828  28.0425263
 TTTTTTTTTTTTTTTTTTTTTTTTTTTTTT MOQGAD      TELAPSE      134.51 TCPU      114.65
 TTTTTTTTTTTTTTTTTTTTTTTTTTTTTT SHELLXN     TELAPSE      190.06 TCPU      167.67
 TTTTTTTTTTTTTTTTTTTTTTTTTTTTTT MONMO3      TELAPSE      193.30 TCPU      170.90
 NUMERICALLY INTEGRATED DENSITY    615.9999532467
 TTTTTTTTTTTTTTTTTTTTTTTTTTTTTT NUMDFT      TELAPSE      198.39 TCPU      175.97
 CYC   1 ETOT(AU) -1.292029112110E+04 DETOT  6.47E+00 tst  0.00E+00 PX  1.00E+00
 TTTTTTTTTTTTTTTTTTTTTTTTTTTTTT DIIS        TELAPSE      198.66 TCPU      176.24
 DIIS TEST: 0.79598E+01 AT SCF   CYCLE   1 - MIX   30 %
 TTTTTTTTTTTTTTTTTTTTTTTTTTTTTT FDIK        TELAPSE      221.48 TCPU      196.52
 INSULATING STATE
 TOP OF VALENCE BANDS -    BAND    308; K    6; EIG -1.6731827E-01 AU
 TOP OF VALENCE BANDS -    BAND    308; K    1; EIG -1.6744510E-01 AU
 BOTTOM OF VIRTUAL BANDS - BAND    309; K    4; EIG -1.2751894E-01 AU
 INDIRECT ENERGY BAND GAP:   1.0830 eV
 BOTTOM OF VIRTUAL BANDS - BAND    309; K    1; EIG -1.2730793E-01 AU
 TTTTTTTTTTTTTTTTTTTTTTTTTTTTTT PDIG        TELAPSE      222.48 TCPU      197.51
 TOTAL ATOMIC CHARGES:
   6.1676337   6.1676337   6.1676337   6.1676337   6.4777716   6.4777716
   6.4777716   6.4777716   6.2329543   6.2329543   6.2329543   6.2329543
   6.0998674   6.0998674   6.0998674   6.0998674   6.1535460   6.1535460
   6.1535460   6.1535460   5.9121969   5.9121969   5.9121969   5.9121969
   6.8154829   6.8154829   6.8154829   6.8154829   6.9831915   6.9831915
   6.9831915   6.9831915   6.9657880   6.9657880   6.9657880   6.9657880
   6.9253686   6.9253686   6.9253686   6.9253686   6.1482764   6.1482764
   6.1482764   6.1482764  17.1156230  17.1156230  17.1156230  17.1156230
  17.2434628  17.2434628  17.2434628  17.2434628  17.0551367  17.0551367
  17.0551367  17.0551367  17.0009616  17.0009616  17.0009616  17.0009616
  29.3916976  29.4192565
 TTTTTTTTTTTTTTTTTTTTTTTTTTTTTT MOQGAD      TELAPSE      222.52 TCPU      197.56
 TTTTTTTTTTTTTTTTTTTTTTTTTTTTTT SHELLXN     TELAPSE      278.76 TCPU      250.77
 TTTTTTTTTTTTTTTTTTTTTTTTTTTTTT MONMO3      TELAPSE      281.85 TCPU      253.84
 NUMERICALLY INTEGRATED DENSITY    615.9999636758
 TTTTTTTTTTTTTTTTTTTTTTTTTTTTTT NUMDFT      TELAPSE      286.94 TCPU      258.92
 CYC   2 ETOT(AU) -1.291903236692E+04 DETOT  1.26E+00 tst  2.37E-02 PX  6.36E-01
 TTTTTTTTTTTTTTTTTTTTTTTTTTTTTT DIIS        TELAPSE      287.25 TCPU      259.23
 DIIS TEST: 0.16443E+02 AT SCF   CYCLE   2 - DIIS ACTIVE - HISTORY:     2 CYCLES
 TTTTTTTTTTTTTTTTTTTTTTTTTTTTTT FDIK        TELAPSE      311.62 TCPU      277.92
 INSULATING STATE
 TOP OF VALENCE BANDS -    BAND    308; K    3; EIG -2.2959706E-01 AU
 TOP OF VALENCE BANDS -    BAND    308; K    1; EIG -2.3159132E-01 AU
 BOTTOM OF VIRTUAL BANDS - BAND    309; K    1; EIG -1.2212809E-01 AU
 INDIRECT ENERGY BAND GAP:   2.9244 eV
 TTTTTTTTTTTTTTTTTTTTTTTTTTTTTT PDIG        TELAPSE      312.63 TCPU      278.93
 TOTAL ATOMIC CHARGES:
   6.0323235   6.0323235   6.0323235   6.0323235   5.9507070   5.9507070
   5.9507070   5.9507070   5.6563087   5.6563087   5.6563087   5.6563087
   5.8317394   5.8317394   5.8317394   5.8317394   5.6691941   5.6691941
   5.6691941   5.6691941   5.7195446   5.7195446   5.7195446   5.7195446
   7.2121627   7.2121627   7.2121627   7.2121627   7.1448073   7.1448073
   7.1448073   7.1448073   7.1163246   7.1163246   7.1163246   7.1163246
   7.0871507   7.0871507   7.0871507   7.0871507   7.3612086   7.3612086
   7.3612086   7.3612086  17.1880908  17.1880908  17.1880908  17.1880908
  17.1884023  17.1884023  17.1884023  17.1884023  17.1916575  17.1916575
  17.1916575  17.1916575  17.1359738  17.1359738  17.1359738  17.1359738
  28.9824043  29.0752131
 TTTTTTTTTTTTTTTTTTTTTTTTTTTTTT MOQGAD      TELAPSE      312.68 TCPU      278.97
 TTTTTTTTTTTTTTTTTTTTTTTTTTTTTT SHELLXN     TELAPSE      370.32 TCPU      332.04
 TTTTTTTTTTTTTTTTTTTTTTTTTTTTTT MONMO3      TELAPSE      371.90 TCPU      333.59
 NUMERICALLY INTEGRATED DENSITY    615.9999542248
 TTTTTTTTTTTTTTTTTTTTTTTTTTTTTT NUMDFT      TELAPSE      377.01 TCPU      338.67
 CYC   3 ETOT(AU) -1.292164240913E+04 DETOT -2.61E+00 tst  5.06E-03 PX  3.85E-01
 TTTTTTTTTTTTTTTTTTTTTTTTTTTTTT DIIS        TELAPSE      377.27 TCPU      338.92
 DIIS TEST: 0.17497E+01 AT SCF   CYCLE   3 - DIIS ACTIVE - HISTORY:     3 CYCLES
 TTTTTTTTTTTTTTTTTTTTTTTTTTTTTT FDIK        TELAPSE      395.86 TCPU      355.19
 INSULATING STATE
 TOP OF VALENCE BANDS -    BAND    308; K    1; EIG -2.2860402E-01 AU
 BOTTOM OF VIRTUAL BANDS - BAND    309; K    6; EIG -1.2046369E-01 AU
 INDIRECT ENERGY BAND GAP:   2.9426 eV
 BOTTOM OF VIRTUAL BANDS - BAND    309; K    1; EIG -1.1766130E-01 AU
 TTTTTTTTTTTTTTTTTTTTTTTTTTTTTT PDIG        TELAPSE      396.85 TCPU      356.18
 TOTAL ATOMIC CHARGES:
   6.2756752   6.2756752   6.2756752   6.2756752   5.9229205   5.9229205
   5.9229205   5.9229205   5.8354744   5.8354744   5.8354744   5.8354744
   5.5476406   5.5476406   5.5476406   5.5476406   5.5317727   5.5317727
   5.5317727   5.5317727   5.7965814   5.7965814   5.7965814   5.7965814
   7.2374479   7.2374479   7.2374479   7.2374479   7.0946778   7.0946778
   7.0946778   7.0946778   7.2958941   7.2958941   7.2958941   7.2958941
   7.0755834   7.0755834   7.0755834   7.0755834   7.1114808   7.1114808
   7.1114808   7.1114808  17.2134866  17.2134866  17.2134866  17.2134866
  17.2686356  17.2686356  17.2686356  17.2686356  17.2547266  17.2547266
  17.2547266  17.2547266  17.1491995  17.1491995  17.1491995  17.1491995
  28.7449952  28.8102166
 TTTTTTTTTTTTTTTTTTTTTTTTTTTTTT MOQGAD      TELAPSE      396.90 TCPU      356.23
 TTTTTTTTTTTTTTTTTTTTTTTTTTTTTT SHELLXN     TELAPSE      452.37 TCPU      409.14
 TTTTTTTTTTTTTTTTTTTTTTTTTTTTTT MONMO3      TELAPSE      455.75 TCPU      412.50
 NUMERICALLY INTEGRATED DENSITY    615.9999576266
 TTTTTTTTTTTTTTTTTTTTTTTTTTTTTT NUMDFT      TELAPSE      460.80 TCPU      417.54
 CYC   4 ETOT(AU) -1.292186180794E+04 DETOT -2.19E-01 tst  2.93E-03 PX  1.51E-01
 TTTTTTTTTTTTTTTTTTTTTTTTTTTTTT DIIS        TELAPSE      461.05 TCPU      417.79
 DIIS TEST: 0.51811E+00 AT SCF   CYCLE   4 - DIIS ACTIVE - HISTORY:     4 CYCLES
 TTTTTTTTTTTTTTTTTTTTTTTTTTTTTT FDIK        TELAPSE      480.14 TCPU      434.50
 INSULATING STATE
 TOP OF VALENCE BANDS -    BAND    308; K    5; EIG -2.3388508E-01 AU
 TOP OF VALENCE BANDS -    BAND    308; K    1; EIG -2.3547501E-01 AU
 BOTTOM OF VIRTUAL BANDS - BAND    309; K    6; EIG -1.2289528E-01 AU
 INDIRECT ENERGY BAND GAP:   3.0202 eV
 BOTTOM OF VIRTUAL BANDS - BAND    309; K    1; EIG -1.2050955E-01 AU
 TTTTTTTTTTTTTTTTTTTTTTTTTTTTTT PDIG        TELAPSE      481.14 TCPU      435.50
 TOTAL ATOMIC CHARGES:
   6.2127145   6.2127145   6.2127145   6.2127145   5.9442836   5.9442836
   5.9442836   5.9442836   5.7908800   5.7908800   5.7908800   5.7908800
   5.6739229   5.6739229   5.6739229   5.6739229   5.6025004   5.6025004
   5.6025004   5.6025004   5.7861019   5.7861019   5.7861019   5.7861019
   7.2305149   7.2305149   7.2305149   7.2305149   7.1707140   7.1707140
   7.1707140   7.1707140   7.1850152   7.1850152   7.1850152   7.1850152
   7.0532095   7.0532095   7.0532095   7.0532095   7.1760221   7.1760221
   7.1760221   7.1760221  17.1938792  17.1938792  17.1938792  17.1938792
  17.2623605  17.2623605  17.2623605  17.2623605  17.1990686  17.1990686
  17.1990686  17.1990686  17.1405282  17.1405282  17.1405282  17.1405282
  28.7348476  28.7782898
 TTTTTTTTTTTTTTTTTTTTTTTTTTTTTT MOQGAD      TELAPSE      481.19 TCPU      435.54
 TTTTTTTTTTTTTTTTTTTTTTTTTTTTTT SHELLXN     TELAPSE      536.81 TCPU      488.64
 TTTTTTTTTTTTTTTTTTTTTTTTTTTTTT MONMO3      TELAPSE      539.97 TCPU      491.79
 NUMERICALLY INTEGRATED DENSITY    615.9999567641
 TTTTTTTTTTTTTTTTTTTTTTTTTTTTTT NUMDFT      TELAPSE      545.12 TCPU      496.91
 CYC   5 ETOT(AU) -1.292192536962E+04 DETOT -6.36E-02 tst  4.71E-04 PX  4.54E-02
 TTTTTTTTTTTTTTTTTTTTTTTTTTTTTT DIIS        TELAPSE      545.38 TCPU      497.16
 DIIS TEST: 0.92680E-01 AT SCF   CYCLE   5 - DIIS ACTIVE - HISTORY:     5 CYCLES
 TTTTTTTTTTTTTTTTTTTTTTTTTTTTTT FDIK        TELAPSE      562.62 TCPU      512.01
 INSULATING STATE
 TOP OF VALENCE BANDS -    BAND    308; K    5; EIG -2.3249471E-01 AU
 TOP OF VALENCE BANDS -    BAND    308; K    1; EIG -2.3378277E-01 AU
 BOTTOM OF VIRTUAL BANDS - BAND    309; K    6; EIG -1.2114208E-01 AU
 INDIRECT ENERGY BAND GAP:   3.0301 eV
 BOTTOM OF VIRTUAL BANDS - BAND    309; K    1; EIG -1.1878834E-01 AU
 TTTTTTTTTTTTTTTTTTTTTTTTTTTTTT PDIG        TELAPSE      563.62 TCPU      513.01
 TOTAL ATOMIC CHARGES:
   6.1980570   6.1980570   6.1980570   6.1980570   5.9366550   5.9366550
   5.9366550   5.9366550   5.7764022   5.7764022   5.7764022   5.7764022
   5.6557570   5.6557570   5.6557570   5.6557570   5.5724748   5.5724748
   5.5724748   5.5724748   5.7644153   5.7644153   5.7644153   5.7644153
   7.2034633   7.2034633   7.2034633   7.2034633   7.0971943   7.0971943
   7.0971943   7.0971943   7.2554122   7.2554122   7.2554122   7.2554122
   7.1015237   7.1015237   7.1015237   7.1015237   7.1912633   7.1912633
   7.1912633   7.1912633  17.2191865  17.2191865  17.2191865  17.2191865
  17.2590578  17.2590578  17.2590578  17.2590578  17.2271624  17.2271624
  17.2271624  17.2271624  17.1494660  17.1494660  17.1494660  17.1494660
  28.7566938  28.8133433
 TTTTTTTTTTTTTTTTTTTTTTTTTTTTTT MOQGAD      TELAPSE      563.67 TCPU      513.05
 TTTTTTTTTTTTTTTTTTTTTTTTTTTTTT SHELLXN     TELAPSE      619.37 TCPU      566.31
 TTTTTTTTTTTTTTTTTTTTTTTTTTTTTT MONMO3      TELAPSE      622.38 TCPU      569.31
 NUMERICALLY INTEGRATED DENSITY    615.9999571382
 TTTTTTTTTTTTTTTTTTTTTTTTTTTTTT NUMDFT      TELAPSE      627.52 TCPU      574.44
 CYC   6 ETOT(AU) -1.292193559365E+04 DETOT -1.02E-02 tst  8.27E-05 PX  4.05E-02
 TTTTTTTTTTTTTTTTTTTTTTTTTTTTTT DIIS        TELAPSE      627.78 TCPU      574.69
 DIIS TEST: 0.35809E-01 AT SCF   CYCLE   6 - DIIS ACTIVE - HISTORY:     6 CYCLES
 TTTTTTTTTTTTTTTTTTTTTTTTTTTTTT FDIK        TELAPSE      647.15 TCPU      591.73
 INSULATING STATE
 TOP OF VALENCE BANDS -    BAND    308; K    5; EIG -2.3238070E-01 AU
 TOP OF VALENCE BANDS -    BAND    308; K    1; EIG -2.3351679E-01 AU
 BOTTOM OF VIRTUAL BANDS - BAND    309; K    6; EIG -1.2087449E-01 AU
 INDIRECT ENERGY BAND GAP:   3.0342 eV
 BOTTOM OF VIRTUAL BANDS - BAND    309; K    1; EIG -1.1822664E-01 AU
 TTTTTTTTTTTTTTTTTTTTTTTTTTTTTT PDIG        TELAPSE      648.16 TCPU      592.73
 TOTAL ATOMIC CHARGES:
   6.2001027   6.2001027   6.2001027   6.2001027   5.9412650   5.9412650
   5.9412650   5.9412650   5.7831310   5.7831310   5.7831310   5.7831310
   5.6408190   5.6408190   5.6408190   5.6408190   5.5804956   5.5804956
   5.5804956   5.5804956   5.7682247   5.7682247   5.7682247   5.7682247
   7.2449025   7.2449025   7.2449025   7.2449025   7.1371188   7.1371188
   7.1371188   7.1371188   7.2114820   7.2114820   7.2114820   7.2114820
   7.0630569   7.0630569   7.0630569   7.0630569   7.1880261   7.1880261
   7.1880261   7.1880261  17.2088769  17.2088769  17.2088769  17.2088769
  17.2578102  17.2578102  17.2578102  17.2578102  17.2296186  17.2296186
  17.2296186  17.2296186  17.1481344  17.1481344  17.1481344  17.1481344
  28.7687270  28.8190148
 TTTTTTTTTTTTTTTTTTTTTTTTTTTTTT MOQGAD      TELAPSE      648.20 TCPU      592.78
 TTTTTTTTTTTTTTTTTTTTTTTTTTTTTT SHELLXN     TELAPSE      703.58 TCPU      645.76
 TTTTTTTTTTTTTTTTTTTTTTTTTTTTTT MONMO3      TELAPSE      706.77 TCPU      648.93
 NUMERICALLY INTEGRATED DENSITY    615.9999569351
 TTTTTTTTTTTTTTTTTTTTTTTTTTTTTT NUMDFT      TELAPSE      711.89 TCPU      654.04
 CYC   7 ETOT(AU) -1.292193946459E+04 DETOT -3.87E-03 tst  3.04E-05 PX  1.28E-02
 TTTTTTTTTTTTTTTTTTTTTTTTTTTTTT DIIS        TELAPSE      712.15 TCPU      654.30
 DIIS TEST: 0.14480E-01 AT SCF   CYCLE   7 - DIIS ACTIVE - HISTORY:     7 CYCLES
 TTTTTTTTTTTTTTTTTTTTTTTTTTTTTT FDIK        TELAPSE      730.93 TCPU      670.60
 INSULATING STATE
 TOP OF VALENCE BANDS -    BAND    308; K    5; EIG -2.3244091E-01 AU
 TOP OF VALENCE BANDS -    BAND    308; K    1; EIG -2.3375954E-01 AU
 BOTTOM OF VIRTUAL BANDS - BAND    309; K    6; EIG -1.2132260E-01 AU
 INDIRECT ENERGY BAND GAP:   3.0237 eV
 BOTTOM OF VIRTUAL BANDS - BAND    309; K    1; EIG -1.1883623E-01 AU
 TTTTTTTTTTTTTTTTTTTTTTTTTTTTTT PDIG        TELAPSE      731.93 TCPU      671.60
 TOTAL ATOMIC CHARGES:
   6.1985743   6.1985743   6.1985743   6.1985743   5.9436069   5.9436069
   5.9436069   5.9436069   5.7836641   5.7836641   5.7836641   5.7836641
   5.6576535   5.6576535   5.6576535   5.6576535   5.5849805   5.5849805
   5.5849805   5.5849805   5.7758904   5.7758904   5.7758904   5.7758904
   7.2181997   7.2181997   7.2181997   7.2181997   7.1322394   7.1322394
   7.1322394   7.1322394   7.2220875   7.2220875   7.2220875   7.2220875
   7.0776332   7.0776332   7.0776332   7.0776332   7.1859762   7.1859762
   7.1859762   7.1859762  17.2061449  17.2061449  17.2061449  17.2061449
  17.2531388  17.2531388  17.2531388  17.2531388  17.2204766  17.2204766
  17.2204766  17.2204766  17.1447629  17.1447629  17.1447629  17.1447629
  28.7632128  28.8166722
 TTTTTTTTTTTTTTTTTTTTTTTTTTTTTT MOQGAD      TELAPSE      731.98 TCPU      671.64
 TTTTTTTTTTTTTTTTTTTTTTTTTTTTTT SHELLXN     TELAPSE      787.67 TCPU      724.90
 TTTTTTTTTTTTTTTTTTTTTTTTTTTTTT MONMO3      TELAPSE      790.70 TCPU      727.91
 NUMERICALLY INTEGRATED DENSITY    615.9999569015
 TTTTTTTTTTTTTTTTTTTTTTTTTTTTTT NUMDFT      TELAPSE      795.80 TCPU      733.00
 CYC   8 ETOT(AU) -1.292194171375E+04 DETOT -2.25E-03 tst  3.26E-06 PX  9.53E-03
 TTTTTTTTTTTTTTTTTTTTTTTTTTTTTT DIIS        TELAPSE      796.06 TCPU      733.26
 DIIS TEST: 0.76089E-03 AT SCF   CYCLE   8 - DIIS ACTIVE - HISTORY:     8 CYCLES
 TTTTTTTTTTTTTTTTTTTTTTTTTTTTTT FDIK        TELAPSE      814.86 TCPU      749.53
 INSULATING STATE
 TOP OF VALENCE BANDS -    BAND    308; K    5; EIG -2.3247089E-01 AU
 TOP OF VALENCE BANDS -    BAND    308; K    1; EIG -2.3375254E-01 AU
 BOTTOM OF VIRTUAL BANDS - BAND    309; K    6; EIG -1.2135843E-01 AU
 INDIRECT ENERGY BAND GAP:   3.0235 eV
 BOTTOM OF VIRTUAL BANDS - BAND    309; K    1; EIG -1.1884692E-01 AU
 TTTTTTTTTTTTTTTTTTTTTTTTTTTTTT PDIG        TELAPSE      815.86 TCPU      750.53
 TOTAL ATOMIC CHARGES:
   6.2013711   6.2013711   6.2013711   6.2013711   5.9397387   5.9397387
   5.9397387   5.9397387   5.7790586   5.7790586   5.7790586   5.7790586
   5.6577308   5.6577308   5.6577308   5.6577308   5.5852053   5.5852053
   5.5852053   5.5852053   5.7692889   5.7692889   5.7692889   5.7692889
   7.2272791   7.2272791   7.2272791   7.2272791   7.1244192   7.1244192
   7.1244192   7.1244192   7.2256597   7.2256597   7.2256597   7.2256597
   7.0750108   7.0750108   7.0750108   7.0750108   7.1845672   7.1845672
   7.1845672   7.1845672  17.2096809  17.2096809  17.2096809  17.2096809
  17.2578198  17.2578198  17.2578198  17.2578198  17.2216419  17.2216419
  17.2216419  17.2216419  17.1461449  17.1461449  17.1461449  17.1461449
  28.7641075  28.8174257
 TTTTTTTTTTTTTTTTTTTTTTTTTTTTTT MOQGAD      TELAPSE      815.91 TCPU      750.58
 TTTTTTTTTTTTTTTTTTTTTTTTTTTTTT SHELLXN     TELAPSE      871.29 TCPU      803.54
 TTTTTTTTTTTTTTTTTTTTTTTTTTTTTT MONMO3      TELAPSE      874.70 TCPU      806.94
 NUMERICALLY INTEGRATED DENSITY    615.9999569733
 TTTTTTTTTTTTTTTTTTTTTTTTTTTTTT NUMDFT      TELAPSE      879.85 TCPU      812.05
 CYC   9 ETOT(AU) -1.292194177593E+04 DETOT -6.22E-05 tst  6.72E-07 PX  2.11E-03
 TTTTTTTTTTTTTTTTTTTTTTTTTTTTTT DIIS        TELAPSE      880.12 TCPU      812.32
 DIIS TEST: 0.45174E-03 AT SCF   CYCLE   9 - DIIS ACTIVE - HISTORY:     9 CYCLES
 TTTTTTTTTTTTTTTTTTTTTTTTTTTTTT FDIK        TELAPSE      897.66 TCPU      827.60
 INSULATING STATE
 TOP OF VALENCE BANDS -    BAND    308; K    5; EIG -2.3261435E-01 AU
 TOP OF VALENCE BANDS -    BAND    308; K    1; EIG -2.3388339E-01 AU
 BOTTOM OF VIRTUAL BANDS - BAND    309; K    6; EIG -1.2130181E-01 AU
 INDIRECT ENERGY BAND GAP:   3.0290 eV
 BOTTOM OF VIRTUAL BANDS - BAND    309; K    1; EIG -1.1880189E-01 AU
 TTTTTTTTTTTTTTTTTTTTTTTTTTTTTT PDIG        TELAPSE      898.66 TCPU      828.59
 TOTAL ATOMIC CHARGES:
   6.1995814   6.1995814   6.1995814   6.1995814   5.9407021   5.9407021
   5.9407021   5.9407021   5.7821624   5.7821624   5.7821624   5.7821624
   5.6554987   5.6554987   5.6554987   5.6554987   5.5815520   5.5815520
   5.5815520   5.5815520   5.7724267   5.7724267   5.7724267   5.7724267
   7.2220619   7.2220619   7.2220619   7.2220619   7.1298762   7.1298762
   7.1298762   7.1298762   7.2225619   7.2225619   7.2225619   7.2225619
   7.0764079   7.0764079   7.0764079   7.0764079   7.1867441   7.1867441
   7.1867441   7.1867441  17.2090460  17.2090460  17.2090460  17.2090460
  17.2572245  17.2572245  17.2572245  17.2572245  17.2223670  17.2223670
  17.2223670  17.2223670  17.1461223  17.1461223  17.1461223  17.1461223
  28.7646092  28.8180510
 TTTTTTTTTTTTTTTTTTTTTTTTTTTTTT MOQGAD      TELAPSE      898.71 TCPU      828.64
 TTTTTTTTTTTTTTTTTTTTTTTTTTTTTT SHELLXN     TELAPSE      954.39 TCPU      881.89
 TTTTTTTTTTTTTTTTTTTTTTTTTTTTTT MONMO3      TELAPSE      957.08 TCPU      884.58
 NUMERICALLY INTEGRATED DENSITY    615.9999569141
 TTTTTTTTTTTTTTTTTTTTTTTTTTTTTT NUMDFT      TELAPSE      962.19 TCPU      889.68
 CYC  10 ETOT(AU) -1.292194183318E+04 DETOT -5.73E-05 tst  2.67E-07 PX  1.39E-03
 TTTTTTTTTTTTTTTTTTTTTTTTTTTTTT DIIS        TELAPSE      962.47 TCPU      889.95
 DIIS TEST: 0.11601E-03 AT SCF   CYCLE  10 - DIIS ACTIVE - HISTORY:    10 CYCLES
 TTTTTTTTTTTTTTTTTTTTTTTTTTTTTT FDIK        TELAPSE      982.88 TCPU      907.91
 INSULATING STATE
 TOP OF VALENCE BANDS -    BAND    308; K    5; EIG -2.3253341E-01 AU
 TOP OF VALENCE BANDS -    BAND    308; K    1; EIG -2.3383192E-01 AU
 BOTTOM OF VIRTUAL BANDS - BAND    309; K    6; EIG -1.2139275E-01 AU
 INDIRECT ENERGY BAND GAP:   3.0243 eV
 BOTTOM OF VIRTUAL BANDS - BAND    309; K    1; EIG -1.1888697E-01 AU
 TTTTTTTTTTTTTTTTTTTTTTTTTTTTTT PDIG        TELAPSE      983.89 TCPU      908.92
 TOTAL ATOMIC CHARGES:
   6.1999137   6.1999137   6.1999137   6.1999137   5.9417631   5.9417631
   5.9417631   5.9417631   5.7816674   5.7816674   5.7816674   5.7816674
   5.6556980   5.6556980   5.6556980   5.6556980   5.5838299   5.5838299
   5.5838299   5.5838299   5.7720855   5.7720855   5.7720855   5.7720855
   7.2231423   7.2231423   7.2231423   7.2231423   7.1283753   7.1283753
   7.1283753   7.1283753   7.2239006   7.2239006   7.2239006   7.2239006
   7.0759587   7.0759587   7.0759587   7.0759587   7.1867209   7.1867209
   7.1867209   7.1867209  17.2083666  17.2083666  17.2083666  17.2083666
  17.2557415  17.2557415  17.2557415  17.2557415  17.2216850  17.2216850
  17.2216850  17.2216850  17.1459383  17.1459383  17.1459383  17.1459383
  28.7639034  28.8169496
 TTTTTTTTTTTTTTTTTTTTTTTTTTTTTT MOQGAD      TELAPSE      983.94 TCPU      908.97
 TTTTTTTTTTTTTTTTTTTTTTTTTTTTTT SHELLXN     TELAPSE     1039.37 TCPU      961.90
 TTTTTTTTTTTTTTTTTTTTTTTTTTTTTT MONMO3      TELAPSE     1042.72 TCPU      965.24
 NUMERICALLY INTEGRATED DENSITY    615.9999569328
 TTTTTTTTTTTTTTTTTTTTTTTTTTTTTT NUMDFT      TELAPSE     1047.79 TCPU      970.29
 CYC  11 ETOT(AU) -1.292194184790E+04 DETOT -1.47E-05 tst  3.10E-08 PX  7.37E-04
 TTTTTTTTTTTTTTTTTTTTTTTTTTTTTT DIIS        TELAPSE     1048.07 TCPU      970.57
 DIIS TEST: 0.18369E-04 AT SCF   CYCLE  11 - DIIS ACTIVE - HISTORY:    11 CYCLES
 TTTTTTTTTTTTTTTTTTTTTTTTTTTTTT FDIK        TELAPSE     1066.95 TCPU      987.05
 INSULATING STATE
 TOP OF VALENCE BANDS -    BAND    308; K    5; EIG -2.3256398E-01 AU
 TOP OF VALENCE BANDS -    BAND    308; K    1; EIG -2.3383349E-01 AU
 BOTTOM OF VIRTUAL BANDS - BAND    309; K    6; EIG -1.2129999E-01 AU
 INDIRECT ENERGY BAND GAP:   3.0276 eV
 BOTTOM OF VIRTUAL BANDS - BAND    309; K    1; EIG -1.1879746E-01 AU
 TTTTTTTTTTTTTTTTTTTTTTTTTTTTTT PDIG        TELAPSE     1067.95 TCPU      988.05
 TOTAL ATOMIC CHARGES:
   6.1994844   6.1994844   6.1994844   6.1994844   5.9407655   5.9407655
   5.9407655   5.9407655   5.7810701   5.7810701   5.7810701   5.7810701
   5.6567455   5.6567455   5.6567455   5.6567455   5.5831410   5.5831410
   5.5831410   5.5831410   5.7720192   5.7720192   5.7720192   5.7720192
   7.2235367   7.2235367   7.2235367   7.2235367   7.1284854   7.1284854
   7.1284854   7.1284854   7.2232979   7.2232979   7.2232979   7.2232979
   7.0765498   7.0765498   7.0765498   7.0765498   7.1855072   7.1855072
   7.1855072   7.1855072  17.2089245  17.2089245  17.2089245  17.2089245
  17.2567950  17.2567950  17.2567950  17.2567950  17.2223317  17.2223317
  17.2223317  17.2223317  17.1460043  17.1460043  17.1460043  17.1460043
  28.7639793  28.8173879
 TTTTTTTTTTTTTTTTTTTTTTTTTTTTTT MOQGAD      TELAPSE     1068.00 TCPU      988.10
 TTTTTTTTTTTTTTTTTTTTTTTTTTTTTT SHELLXN     TELAPSE     1123.20 TCPU     1040.77
 TTTTTTTTTTTTTTTTTTTTTTTTTTTTTT MONMO3      TELAPSE     1126.65 TCPU     1044.21
 NUMERICALLY INTEGRATED DENSITY    615.9999569378
 TTTTTTTTTTTTTTTTTTTTTTTTTTTTTT NUMDFT      TELAPSE     1131.76 TCPU     1049.31
 CYC  12 ETOT(AU) -1.292194184784E+04 DETOT  6.25E-08 tst  1.41E-08 PX  3.57E-04
 TTTTTTTTTTTTTTTTTTTTTTTTTTTTTT DIIS        TELAPSE     1132.03 TCPU     1049.59
 DIIS TEST: 0.18696E-04 AT SCF   CYCLE  12 - DIIS ACTIVE - HISTORY:    12 CYCLES
 TTTTTTTTTTTTTTTTTTTTTTTTTTTTTT FDIK        TELAPSE     1149.68 TCPU     1064.68
 INSULATING STATE
 TOP OF VALENCE BANDS -    BAND    308; K    5; EIG -2.3253774E-01 AU
 TOP OF VALENCE BANDS -    BAND    308; K    1; EIG -2.3382329E-01 AU
 BOTTOM OF VIRTUAL BANDS - BAND    309; K    6; EIG -1.2133879E-01 AU
 INDIRECT ENERGY BAND GAP:   3.0259 eV
 BOTTOM OF VIRTUAL BANDS - BAND    309; K    1; EIG -1.1883384E-01 AU
 TTTTTTTTTTTTTTTTTTTTTTTTTTTTTT PDIG        TELAPSE     1150.69 TCPU     1065.68
 TOTAL ATOMIC CHARGES:
   6.2000610   6.2000610   6.2000610   6.2000610   5.9411140   5.9411140
   5.9411140   5.9411140   5.7815257   5.7815257   5.7815257   5.7815257
   5.6559714   5.6559714   5.6559714   5.6559714   5.5832832   5.5832832
   5.5832832   5.5832832   5.7717656   5.7717656   5.7717656   5.7717656
   7.2231602   7.2231602   7.2231602   7.2231602   7.1285400   7.1285400
   7.1285400   7.1285400   7.2236100   7.2236100   7.2236100   7.2236100
   7.0759594   7.0759594   7.0759594   7.0759594   7.1864448   7.1864448
   7.1864448   7.1864448  17.2087099  17.2087099  17.2087099  17.2087099
  17.2565064  17.2565064  17.2565064  17.2565064  17.2219355  17.2219355
  17.2219355  17.2219355  17.1460007  17.1460007  17.1460007  17.1460007
  28.7641693  28.8174790
 TTTTTTTTTTTTTTTTTTTTTTTTTTTTTT MOQGAD      TELAPSE     1150.73 TCPU     1065.72
 TTTTTTTTTTTTTTTTTTTTTTTTTTTTTT SHELLXN     TELAPSE     1203.47 TCPU     1118.21
 +++ ENERGIES IN A.U. +++
 ::: EXT EL-POLE                                  -1.6879508356491E+04
 ::: EXT EL-SPHEROPOLE                             1.1270605702491E+02
 ::: BIELET ZONE E-E                               2.0864165061850E+04
 ::: TOTAL E-E                                     4.0973627623845E+03
 ::: TOTAL E-N + N-E                              -2.7192239796922E+04
 ::: TOTAL N-N                                    -1.8511240440489E+03
 ::: KINETIC ENERGY                                1.2880553199549E+04
 ::: PSEUDO TOTAL   ENERGY                        -1.2065447879038E+04
 ::: VIRIAL COEFFICIENT                            1.0326747889549E+00
 TTTTTTTTTTTTTTTTTTTTTTTTTTTTTT MONMO3      TELAPSE     1206.85 TCPU     1121.58
 NUMERICALLY INTEGRATED DENSITY    615.9999569319
 TTTTTTTTTTTTTTTTTTTTTTTTTTTTTT NUMDFT      TELAPSE     1211.91 TCPU     1126.63
[...]
 CYCLE   0   ALPHA  884.885482  EPSILON    2.848570  DELTA    8.8489E+02
 TTTTTTTTTTTTTTTTTTTTTTTTTTTTTT MOQGAD      TELAPSE   246105.06 TCPU   244053.11
 TTTTTTTTTTTTTTTTTTTTTTTTTTTTTT CP_MONMON   TELAPSE   246118.82 TCPU   244066.83
 DIIS TEST: 0.11726E+03 AT CPHF  CYCLE   1 - MIX    0 %
 CYCLE   1   ALPHA  410.470759  EPSILON    1.857494  DELTA   -4.7441E+02
 TTTTTTTTTTTTTTTTTTTTTTTTTTTTTT MOQGAD      TELAPSE   246676.88 TCPU   244620.75
 TTTTTTTTTTTTTTTTTTTTTTTTTTTTTT CP_MONMON   TELAPSE   246690.55 TCPU   244634.38
 DIIS TEST: 0.78563E+03 AT CPHF  CYCLE   2 - DIIS ACTIVE - HISTORY:     2 CYCLES
 CYCLE   2   ALPHA  626.639971  EPSILON    2.309082  DELTA    2.1617E+02
 TTTTTTTTTTTTTTTTTTTTTTTTTTTTTT MOQGAD      TELAPSE   247249.95 TCPU   245189.79
 TTTTTTTTTTTTTTTTTTTTTTTTTTTTTT CP_MONMON   TELAPSE   247263.60 TCPU   245203.34
 DIIS TEST: 0.45968E+02 AT CPHF  CYCLE   3 - DIIS ACTIVE - HISTORY:     3 CYCLES
 CYCLE   3   ALPHA  677.527602  EPSILON    2.415389  DELTA    5.0888E+01
 TTTTTTTTTTTTTTTTTTTTTTTTTTTTTT MOQGAD      TELAPSE   247824.25 TCPU   245759.74
 TTTTTTTTTTTTTTTTTTTTTTTTTTTTTT CP_MONMON   TELAPSE   247838.01 TCPU   245773.48
 DIIS TEST: 0.34335E+01 AT CPHF  CYCLE   4 - DIIS ACTIVE - HISTORY:     4 CYCLES
 CYCLE   4   ALPHA  678.788173  EPSILON    2.418022  DELTA    1.2606E+00
 TTTTTTTTTTTTTTTTTTTTTTTTTTTTTT MOQGAD      TELAPSE   248398.31 TCPU   246329.56
 TTTTTTTTTTTTTTTTTTTTTTTTTTTTTT CP_MONMON   TELAPSE   248411.98 TCPU   246343.18
 DIIS TEST: 0.45966E+00 AT CPHF  CYCLE   5 - DIIS ACTIVE - HISTORY:     5 CYCLES
 CYCLE   5   ALPHA  679.227607  EPSILON    2.418940  DELTA    4.3943E-01
 TTTTTTTTTTTTTTTTTTTTTTTTTTTTTT MOQGAD      TELAPSE   248972.29 TCPU   246897.19
 TTTTTTTTTTTTTTTTTTTTTTTTTTTTTT CP_MONMON   TELAPSE   248986.06 TCPU   246910.89
 DIIS TEST: 0.38737E+00 AT CPHF  CYCLE   6 - DIIS ACTIVE - HISTORY:     6 CYCLES
 CYCLE   6   ALPHA  679.607543  EPSILON    2.419734  DELTA    3.7994E-01
 TTTTTTTTTTTTTTTTTTTTTTTTTTTTTT MOQGAD      TELAPSE   249546.39 TCPU   247466.96
 TTTTTTTTTTTTTTTTTTTTTTTTTTTTTT CP_MONMON   TELAPSE   249560.13 TCPU   247480.68
 DIIS TEST: 0.24923E-01 AT CPHF  CYCLE   7 - DIIS ACTIVE - HISTORY:     7 CYCLES
 CYCLE   7   ALPHA  679.916899  EPSILON    2.420380  DELTA    3.0936E-01
 TTTTTTTTTTTTTTTTTTTTTTTTTTTTTT MOQGAD      TELAPSE   250120.73 TCPU   248036.90
 TTTTTTTTTTTTTTTTTTTTTTTTTTTTTT CP_MONMON   TELAPSE   250134.38 TCPU   248050.52
 DIIS TEST: 0.36490E-02 AT CPHF  CYCLE   8 - DIIS ACTIVE - HISTORY:     8 CYCLES
 CYCLE   8   ALPHA  679.926527  EPSILON    2.420401  DELTA    9.6276E-03
 TTTTTTTTTTTTTTTTTTTTTTTTTTTTTT MOQGAD      TELAPSE   250694.72 TCPU   248605.65
 TTTTTTTTTTTTTTTTTTTTTTTTTTTTTT CP_MONMON   TELAPSE   250708.38 TCPU   248619.25
 DIIS TEST: 0.56538E-03 AT CPHF  CYCLE   9 - DIIS ACTIVE - HISTORY:     9 CYCLES
 CYCLE   9   ALPHA  679.925977  EPSILON    2.420399  DELTA   -5.4931E-04
 TTTTTTTTTTTTTTTTTTTTTTTTTTTTTT CP_SC       TELAPSE   250781.65 TCPU   248686.42

 *******************************************************************************

 POLARIZABILITY (ALPHA), DIELECTRIC (EPSILON) AND FIRST-ORDER ELECTRIC
 SUSCEPTIBILITY (CHI(1)) TENSORS (INDEPENDENT COMPONENTS)

  FR.(eV) COMP.   ALPHA(Re,Im)           EPSILON(Re,Im)                CHI(1)
  1.435   XX    1517.2775       0.0000       4.1697       0.0000       3.1697
  1.435   ZZ     679.9260       0.0000       2.4204       0.0000       1.4204

 DIELECTRIC TENSOR

 TENSOR IN PRINCIPAL AXES SYSTEM
 AA  4.169669E+00 BB  4.169669E+00 CC  2.420399E+00

 REFRACTIVE INDICES 
 AA  1.555763E+00 BB  2.041977E+00 CC  2.041977E+00

 OPTICALLY ANISOTROPIC - UNIAXIAL CRYSTAL

 BIREFRINGENCE =  0.4862 (NEGATIVE) - OBLATE OPTICAL ELLIPSOID

 EPSILON=N**2=1+CHI(1)=1+ALPHA*4*PI/V,   4*PI/V=   0.00209 BOHR**(-3)
 ALPHA IN BOHR**3; EPSILON AND CHI(1) ARE DIMENSIONLESS.
 *******************************************************************************

 DYNAMIC FIELD: RUN 10/ 10 - RADIATION WAVELENGTH: 1064.0000 NM

 *******************************************************************************

 ELECTRIC FIELD APPLIED ALONG CARTESIAN DIRECTION X

 *******************************************************************************
 THE NUMBER OF SYMMETRY OPERATORS HAS BEEN REDUCED FROM  4 TO  1

 NEW GRID IN RECIPROCAL SPACE
 *******************************************************************************
 POINTS IN THE IBZ                  14 SHRINKING FACTORS               3  3  3
 *******************************************************************************
 *** K POINTS COORDINATES (OBLIQUE COORDINATES IN UNITS OF SHRINK FAC. )
   1-R(  0  0  0)   2-C(  1  0  0)   3-C(  0  1  2)   4-C(  2  0  1)
   5-C(  0  2  0)   6-C(  1  1  0)   7-C(  1  1  1)   8-C(  1  0  1)
   9-C(  0  1  1)  10-C(  2  1  0)  11-C(  0  0  2)  12-C(  2  1  1)
  13-C(  2  1  2)  14-C(  2  2  1)

 GCALCO - MAX INDICES DIRECT LATTICE VECTOR    14    14    15
 NO.OF VECTORS CREATED 6999 STARS  486 RMAX   216.08901 BOHR
 TTTTTTTTTTTTTTTTTTTTTTTTTTTTTT gordsh1     TELAPSE   250781.67 TCPU   248686.43

 MATRIX SIZE: P(G) 1706032, F(G)  853606, P(G) IRR  855156, F(G) IRR  855156
 MAX G-VECTOR INDEX FOR 1- AND 2-ELECTRON INTEGRALS  59

 TTTTTTTTTTTTTTTTTTTTTTTTTTTTTT INPUT       TELAPSE   250782.09 TCPU   248686.86
 TTTTTTTTTTTTTTTTTTTTTTTTTTTTTT SYMM        TELAPSE   250782.09 TCPU   248686.86

 ***** NEW REFERENCE GEOMETRY *****
 TTTTTTTTTTTTTTTTTTTTTTTTTTTTTT INT_SCREEN  TELAPSE   250782.11 TCPU   248686.87
 INFORMATION **** EXCBUF **** EXCH. BIPO BUFFER: WORDS USED =           0

 DFT PARAMETERS

     ATOM       ELECTRONS   NET CHARGE   R(ANGSTROM)
   1   6  C       6.0000      0.0000     0.77000000
  25   7  N       7.0000      0.0000     0.74000000
  45  17  CL     17.0000      0.0000     0.99000000
  61  30  ZN     30.0000      0.0000     1.37000000

 SIZE OF GRID=    2004272
 TTTTTTTTTTTTTTTTTTTTTTTTTTTTTT MAKE_GRID2  TELAPSE   250784.08 TCPU   248688.82
 BECKE WEIGHT FUNCTION
 RADSAFE =     2.00
 TOLERANCES - DENSITY:10**- 6; POTENTIAL:10**- 9; GRID WGT:10**-14

 RADIAL INTEGRATION  - INTERVALS (POINTS,UPPER LIMIT):            1( 75,  4.0*R)

 ANGULAR INTEGRATION - INTERVALS (ACCURACY LEVEL [N. POINTS] UPPER LIMIT):
  1(  4[  86]   0.2)  2(  8[ 194]   0.5)  3( 12[ 350]   0.9)  4( 16[ 974]   3.5)
  5( 12[ 350]9999.0)
 TTTTTTTTTTTTTTTTTTTTTTTTTTTTTT INT_CALC    TELAPSE   250784.18 TCPU   248688.93
 CYCLE   0   ALPHA 1986.618102  EPSILON    5.150145  DELTA    1.9866E+03
 TTTTTTTTTTTTTTTTTTTTTTTTTTTTTT MOQGAD      TELAPSE   251826.48 TCPU   249728.24
 TTTTTTTTTTTTTTTTTTTTTTTTTTTTTT CP_MONMON   TELAPSE   251852.35 TCPU   249754.06
 DIIS TEST: 0.34718E+03 AT CPHF  CYCLE   1 - MIX    0 %
 CYCLE   1   ALPHA  627.424760  EPSILON    2.310722  DELTA   -1.3592E+03
 TTTTTTTTTTTTTTTTTTTTTTTTTTTTTT MOQGAD      TELAPSE   252918.84 TCPU   250813.80
 TTTTTTTTTTTTTTTTTTTTTTTTTTTTTT CP_MONMON   TELAPSE   252944.54 TCPU   250839.40
 DIIS TEST: 0.24859E+04 AT CPHF  CYCLE   2 - DIIS ACTIVE - HISTORY:     2 CYCLES
 CYCLE   2   ALPHA 1374.511519  EPSILON    3.871423  DELTA    7.4709E+02
 TTTTTTTTTTTTTTTTTTTTTTTTTTTTTT MOQGAD      TELAPSE   254010.86 TCPU   251896.49
 TTTTTTTTTTTTTTTTTTTTTTTTTTTTTT CP_MONMON   TELAPSE   254036.60 TCPU   251922.13
 DIIS TEST: 0.10857E+03 AT CPHF  CYCLE   3 - DIIS ACTIVE - HISTORY:     3 CYCLES
 CYCLE   3   ALPHA 1465.094716  EPSILON    4.060656  DELTA    9.0583E+01
 TTTTTTTTTTTTTTTTTTTTTTTTTTTTTT MOQGAD      TELAPSE   255104.78 TCPU   252981.48
 TTTTTTTTTTTTTTTTTTTTTTTTTTTTTT CP_MONMON   TELAPSE   255130.49 TCPU   253007.13
 DIIS TEST: 0.98552E+01 AT CPHF  CYCLE   4 - DIIS ACTIVE - HISTORY:     4 CYCLES
 CYCLE   4   ALPHA 1478.414823  EPSILON    4.088483  DELTA    1.3320E+01
 TTTTTTTTTTTTTTTTTTTTTTTTTTTTTT MOQGAD      TELAPSE   256199.75 TCPU   254067.99
 TTTTTTTTTTTTTTTTTTTTTTTTTTTTTT CP_MONMON   TELAPSE   256225.57 TCPU   254093.76
 DIIS TEST: 0.14240E+01 AT CPHF  CYCLE   5 - DIIS ACTIVE - HISTORY:     5 CYCLES
 CYCLE   5   ALPHA 1483.782922  EPSILON    4.099697  DELTA    5.3681E+00
 TTTTTTTTTTTTTTTTTTTTTTTTTTTTTT MOQGAD      TELAPSE   257293.09 TCPU   255153.61
 TTTTTTTTTTTTTTTTTTTTTTTTTTTTTT CP_MONMON   TELAPSE   257318.85 TCPU   255179.32
 DIIS TEST: 0.17664E+00 AT CPHF  CYCLE   6 - DIIS ACTIVE - HISTORY:     6 CYCLES
 CYCLE   6   ALPHA 1485.940827  EPSILON    4.104205  DELTA    2.1579E+00
 TTTTTTTTTTTTTTTTTTTTTTTTTTTTTT MOQGAD      TELAPSE   258388.23 TCPU   256240.29
 TTTTTTTTTTTTTTTTTTTTTTTTTTTTTT CP_MONMON   TELAPSE   258413.89 TCPU   256265.85
 DIIS TEST: 0.28526E-01 AT CPHF  CYCLE   7 - DIIS ACTIVE - HISTORY:     7 CYCLES
 CYCLE   7   ALPHA 1486.661147  EPSILON    4.105710  DELTA    7.2032E-01
 TTTTTTTTTTTTTTTTTTTTTTTTTTTTTT MOQGAD      TELAPSE   259483.29 TCPU   257325.25
 TTTTTTTTTTTTTTTTTTTTTTTTTTTTTT CP_MONMON   TELAPSE   259509.06 TCPU   257350.88
 DIIS TEST: 0.34198E-02 AT CPHF  CYCLE   8 - DIIS ACTIVE - HISTORY:     8 CYCLES
 CYCLE   8   ALPHA 1486.849234  EPSILON    4.106102  DELTA    1.8809E-01
 TTTTTTTTTTTTTTTTTTTTTTTTTTTTTT MOQGAD      TELAPSE   260575.77 TCPU   258409.82
 TTTTTTTTTTTTTTTTTTTTTTTTTTTTTT CP_MONMON   TELAPSE   260601.53 TCPU   258435.50
 DIIS TEST: 0.27244E-03 AT CPHF  CYCLE   9 - DIIS ACTIVE - HISTORY:     9 CYCLES
 CYCLE   9   ALPHA 1486.859413  EPSILON    4.106124  DELTA    1.0178E-02
 TTTTTTTTTTTTTTTTTTTTTTTTTTTTTT MOQGAD      TELAPSE   261673.99 TCPU   259500.54
 TTTTTTTTTTTTTTTTTTTTTTTTTTTTTT CP_MONMON   TELAPSE   261699.75 TCPU   259526.23
 DIIS TEST: 0.48007E-04 AT CPHF  CYCLE  10 - DIIS ACTIVE - HISTORY:    10 CYCLES
 CYCLE  10   ALPHA 1486.842895  EPSILON    4.106089  DELTA   -1.6518E-02
 TTTTTTTTTTTTTTTTTTTTTTTTTTTTTT MOQGAD      TELAPSE   262770.43 TCPU   260586.06
 TTTTTTTTTTTTTTTTTTTTTTTTTTTTTT CP_MONMON   TELAPSE   262796.28 TCPU   260611.84
 DIIS TEST: 0.93222E-05 AT CPHF  CYCLE  11 - DIIS ACTIVE - HISTORY:    11 CYCLES
 CYCLE  11   ALPHA 1486.834531  EPSILON    4.106072  DELTA   -8.3632E-03
 TTTTTTTTTTTTTTTTTTTTTTTTTTTTTT MOQGAD      TELAPSE   263866.10 TCPU   261672.35
 TTTTTTTTTTTTTTTTTTTTTTTTTTTTTT CP_MONMON   TELAPSE   263891.81 TCPU   261697.95
 DIIS TEST: 0.40998E-05 AT CPHF  CYCLE  12 - DIIS ACTIVE - HISTORY:    12 CYCLES
 CYCLE  12   ALPHA 1486.832612  EPSILON    4.106068  DELTA   -1.9197E-03
 TTTTTTTTTTTTTTTTTTTTTTTTTTTTTT MOQGAD      TELAPSE   264959.34 TCPU   262756.99
 TTTTTTTTTTTTTTTTTTTTTTTTTTTTTT CP_MONMON   TELAPSE   264985.09 TCPU   262782.64
 DIIS TEST: 0.20087E-05 AT CPHF  CYCLE  13 - DIIS ACTIVE - HISTORY:    13 CYCLES
 CYCLE  13   ALPHA 1486.830754  EPSILON    4.106064  DELTA   -1.8582E-03
 TTTTTTTTTTTTTTTTTTTTTTTTTTTTTT MOQGAD      TELAPSE   266053.98 TCPU   263841.95
 TTTTTTTTTTTTTTTTTTTTTTTTTTTTTT CP_MONMON   TELAPSE   266079.69 TCPU   263867.59
 DIIS TEST: 0.50966E-07 AT CPHF  CYCLE  14 - DIIS ACTIVE - HISTORY:    14 CYCLES
 CYCLE  14   ALPHA 1486.830459  EPSILON    4.106063  DELTA   -2.9487E-04
 TTTTTTTTTTTTTTTTTTTTTTTTTTTTTT CP_SC       TELAPSE   266161.47 TCPU   263941.56

 *******************************************************************************

 ELECTRIC FIELD APPLIED ALONG CARTESIAN DIRECTION Z

 *******************************************************************************
 THE NUMBER OF SYMMETRY OPERATORS HAS BEEN REDUCED FROM  4 TO  2

 NEW GRID IN RECIPROCAL SPACE
 *******************************************************************************
 POINTS IN THE IBZ                  10 SHRINKING FACTORS               3  3  3
 *******************************************************************************
 *** K POINTS COORDINATES (OBLIQUE COORDINATES IN UNITS OF SHRINK FAC. )
   1-R(  0  0  0)   2-C(  1  0  0)   3-C(  2  0  1)   4-C(  1  1  0)
   5-C(  1  0  1)   6-C(  2  1  0)   7-C(  0  0  2)   8-C(  2  1  1)
   9-C(  2  1  2)  10-C(  2  2  1)

 GCALCO - MAX INDICES DIRECT LATTICE VECTOR    14    14    15
 NO.OF VECTORS CREATED 6999 STARS  486 RMAX   216.08901 BOHR
 TTTTTTTTTTTTTTTTTTTTTTTTTTTTTT gordsh1     TELAPSE   266161.48 TCPU   263941.58

 MATRIX SIZE: P(G) 1706032, F(G)  853606, P(G) IRR  429808, F(G) IRR  429808
 MAX G-VECTOR INDEX FOR 1- AND 2-ELECTRON INTEGRALS  59

 TTTTTTTTTTTTTTTTTTTTTTTTTTTTTT INPUT       TELAPSE   266161.60 TCPU   263941.69
 TTTTTTTTTTTTTTTTTTTTTTTTTTTTTT SYMM        TELAPSE   266161.60 TCPU   263941.69

 ***** NEW REFERENCE GEOMETRY *****
 TTTTTTTTTTTTTTTTTTTTTTTTTTTTTT INT_SCREEN  TELAPSE   266161.61 TCPU   263941.70
 INFORMATION **** EXCBUF **** EXCH. BIPO BUFFER: WORDS USED =           0

 DFT PARAMETERS

     ATOM       ELECTRONS   NET CHARGE   R(ANGSTROM)
   1   6  C       6.0000      0.0000     0.77000000
  25   7  N       7.0000      0.0000     0.74000000
  45  17  CL     17.0000      0.0000     0.99000000
  61  30  ZN     30.0000      0.0000     1.37000000

 SIZE OF GRID=    1002256
 TTTTTTTTTTTTTTTTTTTTTTTTTTTTTT MAKE_GRID2  TELAPSE   266162.75 TCPU   263942.84
 BECKE WEIGHT FUNCTION
 RADSAFE =     2.00
 TOLERANCES - DENSITY:10**- 6; POTENTIAL:10**- 9; GRID WGT:10**-14

 RADIAL INTEGRATION  - INTERVALS (POINTS,UPPER LIMIT):            1( 75,  4.0*R)

 ANGULAR INTEGRATION - INTERVALS (ACCURACY LEVEL [N. POINTS] UPPER LIMIT):
  1(  4[  86]   0.2)  2(  8[ 194]   0.5)  3( 12[ 350]   0.9)  4( 16[ 974]   3.5)
  5( 12[ 350]9999.0)
 TTTTTTTTTTTTTTTTTTTTTTTTTTTTTT INT_CALC    TELAPSE   266162.82 TCPU   263942.91
 CYCLE   0   ALPHA  876.871624  EPSILON    2.831829  DELTA    8.7687E+02
 TTTTTTTTTTTTTTTTTTTTTTTTTTTTTT MOQGAD      TELAPSE   266687.64 TCPU   264465.29
 TTTTTTTTTTTTTTTTTTTTTTTTTTTTTT CP_MONMON   TELAPSE   266701.27 TCPU   264478.87
 DIIS TEST: 0.11396E+03 AT CPHF  CYCLE   1 - MIX    0 %
 CYCLE   1   ALPHA  413.692356  EPSILON    1.864224  DELTA   -4.6318E+02
 TTTTTTTTTTTTTTTTTTTTTTTTTTTTTT MOQGAD      TELAPSE   267254.82 TCPU   265028.75
 TTTTTTTTTTTTTTTTTTTTTTTTTTTTTT CP_MONMON   TELAPSE   267268.46 TCPU   265042.35
 DIIS TEST: 0.73063E+03 AT CPHF  CYCLE   2 - DIIS ACTIVE - HISTORY:     2 CYCLES
 CYCLE   2   ALPHA  623.273211  EPSILON    2.302049  DELTA    2.0958E+02
 TTTTTTTTTTTTTTTTTTTTTTTTTTTTTT MOQGAD      TELAPSE   267820.84 TCPU   265590.46
 TTTTTTTTTTTTTTTTTTTTTTTTTTTTTT CP_MONMON   TELAPSE   267834.46 TCPU   265604.00
 DIIS TEST: 0.44840E+02 AT CPHF  CYCLE   3 - DIIS ACTIVE - HISTORY:     3 CYCLES
 CYCLE   3   ALPHA  672.535276  EPSILON    2.404960  DELTA    4.9262E+01
 TTTTTTTTTTTTTTTTTTTTTTTTTTTTTT MOQGAD      TELAPSE   268389.60 TCPU   266154.93
 TTTTTTTTTTTTTTTTTTTTTTTTTTTTTT CP_MONMON   TELAPSE   268403.21 TCPU   266168.51
 DIIS TEST: 0.29737E+01 AT CPHF  CYCLE   4 - DIIS ACTIVE - HISTORY:     4 CYCLES
 CYCLE   4   ALPHA  673.726114  EPSILON    2.407448  DELTA    1.1908E+00
 TTTTTTTTTTTTTTTTTTTTTTTTTTTTTT MOQGAD      TELAPSE   268956.95 TCPU   266717.99
 TTTTTTTTTTTTTTTTTTTTTTTTTTTTTT CP_MONMON   TELAPSE   268970.58 TCPU   266731.59
 DIIS TEST: 0.38191E+00 AT CPHF  CYCLE   5 - DIIS ACTIVE - HISTORY:     5 CYCLES
 CYCLE   5   ALPHA  674.171170  EPSILON    2.408377  DELTA    4.4506E-01
 TTTTTTTTTTTTTTTTTTTTTTTTTTTTTT MOQGAD      TELAPSE   269524.29 TCPU   267279.57
 TTTTTTTTTTTTTTTTTTTTTTTTTTTTTT CP_MONMON   TELAPSE   269537.96 TCPU   267293.15
 DIIS TEST: 0.36254E+00 AT CPHF  CYCLE   6 - DIIS ACTIVE - HISTORY:     6 CYCLES
 CYCLE   6   ALPHA  674.520364  EPSILON    2.409107  DELTA    3.4919E-01
 TTTTTTTTTTTTTTTTTTTTTTTTTTTTTT MOQGAD      TELAPSE   270091.39 TCPU   267840.52
 TTTTTTTTTTTTTTTTTTTTTTTTTTTTTT CP_MONMON   TELAPSE   270105.04 TCPU   267854.12
 DIIS TEST: 0.24666E-01 AT CPHF  CYCLE   7 - DIIS ACTIVE - HISTORY:     7 CYCLES
 CYCLE   7   ALPHA  674.808118  EPSILON    2.409708  DELTA    2.8775E-01
 TTTTTTTTTTTTTTTTTTTTTTTTTTTTTT MOQGAD      TELAPSE   270660.88 TCPU   268405.21
 TTTTTTTTTTTTTTTTTTTTTTTTTTTTTT CP_MONMON   TELAPSE   270674.50 TCPU   268418.80
 DIIS TEST: 0.34039E-02 AT CPHF  CYCLE   8 - DIIS ACTIVE - HISTORY:     8 CYCLES
 CYCLE   8   ALPHA  674.817226  EPSILON    2.409727  DELTA    9.1084E-03
 TTTTTTTTTTTTTTTTTTTTTTTTTTTTTT MOQGAD      TELAPSE   271227.35 TCPU   268968.08
 TTTTTTTTTTTTTTTTTTTTTTTTTTTTTT CP_MONMON   TELAPSE   271241.11 TCPU   268981.80
 DIIS TEST: 0.49363E-03 AT CPHF  CYCLE   9 - DIIS ACTIVE - HISTORY:     9 CYCLES
 CYCLE   9   ALPHA  674.815933  EPSILON    2.409724  DELTA   -1.2934E-03
 TTTTTTTTTTTTTTTTTTTTTTTTTTTTTT MOQGAD      TELAPSE   271794.68 TCPU   269531.65
 TTTTTTTTTTTTTTTTTTTTTTTTTTTTTT CP_MONMON   TELAPSE   271808.31 TCPU   269545.23
 DIIS TEST: 0.38193E-04 AT CPHF  CYCLE  10 - DIIS ACTIVE - HISTORY:    10 CYCLES
 CYCLE  10   ALPHA  674.807265  EPSILON    2.409706  DELTA   -8.6678E-03
 TTTTTTTTTTTTTTTTTTTTTTTTTTTTTT MOQGAD      TELAPSE   272362.32 TCPU   270094.70
 TTTTTTTTTTTTTTTTTTTTTTTTTTTTTT CP_MONMON   TELAPSE   272375.96 TCPU   270108.31
 DIIS TEST: 0.66568E-05 AT CPHF  CYCLE  11 - DIIS ACTIVE - HISTORY:    11 CYCLES
 CYCLE  11   ALPHA  674.805398  EPSILON    2.409702  DELTA   -1.8669E-03
 TTTTTTTTTTTTTTTTTTTTTTTTTTTTTT MOQGAD      TELAPSE   272932.22 TCPU   270656.86
 TTTTTTTTTTTTTTTTTTTTTTTTTTTTTT CP_MONMON   TELAPSE   272945.84 TCPU   270670.39
 DIIS TEST: 0.93750E-06 AT CPHF  CYCLE  12 - DIIS ACTIVE - HISTORY:    12 CYCLES
 CYCLE  12   ALPHA  674.804292  EPSILON    2.409700  DELTA   -1.1064E-03
 TTTTTTTTTTTTTTTTTTTTTTTTTTTTTT MOQGAD      TELAPSE   273499.10 TCPU   271218.94
 TTTTTTTTTTTTTTTTTTTTTTTTTTTTTT CP_MONMON   TELAPSE   273512.74 TCPU   271232.56
 DIIS TEST: 0.17517E-06 AT CPHF  CYCLE  13 - DIIS ACTIVE - HISTORY:    13 CYCLES
 CYCLE  13   ALPHA  674.804077  EPSILON    2.409699  DELTA   -2.1413E-04
 TTTTTTTTTTTTTTTTTTTTTTTTTTTTTT CP_SC       TELAPSE   273585.63 TCPU   271302.03

 *******************************************************************************

 POLARIZABILITY (ALPHA), DIELECTRIC (EPSILON) AND FIRST-ORDER ELECTRIC
 SUSCEPTIBILITY (CHI(1)) TENSORS (INDEPENDENT COMPONENTS)

  FR.(eV) COMP.   ALPHA(Re,Im)           EPSILON(Re,Im)                CHI(1)
  1.165   XX    1486.8305       0.0000       4.1061       0.0000       3.1061
  1.165   ZZ     674.8041       0.0000       2.4097       0.0000       1.4097

 DIELECTRIC TENSOR

 TENSOR IN PRINCIPAL AXES SYSTEM
 AA  4.106063E+00 BB  4.106063E+00 CC  2.409699E+00

 REFRACTIVE INDICES 
 AA  1.552321E+00 BB  2.026342E+00 CC  2.026342E+00

 OPTICALLY ANISOTROPIC - UNIAXIAL CRYSTAL

 BIREFRINGENCE =  0.4740 (NEGATIVE) - OBLATE OPTICAL ELLIPSOID

 EPSILON=N**2=1+CHI(1)=1+ALPHA*4*PI/V,   4*PI/V=   0.00209 BOHR**(-3)
 ALPHA IN BOHR**3; EPSILON AND CHI(1) ARE DIMENSIONLESS.
 *******************************************************************************


 GCALCO - MAX INDICES DIRECT LATTICE VECTOR    14    14    15
 NO.OF VECTORS CREATED 6999 STARS  486 RMAX   216.08901 BOHR

 CAPPA:IS1  3;IS2  3;IS3  3; K PTS MONK NET   6; SYMMOPS:K SPACE   8;G SPACE   4

 TTTTTTTTTTTTTTTTTTTTTTTTTTTTTT END         TELAPSE   273585.88 TCPU   271302.04
 EEEEEEEEEE TERMINATION  DATE 11 12 2023 TIME 17:22:06.4
NODE    0 CPU TIME =    271302.039
NODE    1 CPU TIME =    271969.976
NODE    2 CPU TIME =    271596.847
NODE    3 CPU TIME =    271535.072
NODE    4 CPU TIME =    271774.508
NODE    5 CPU TIME =    271965.756
NODE    6 CPU TIME =    271566.290
NODE    7 CPU TIME =    271512.996
NODE    8 CPU TIME =    271653.208
NODE    9 CPU TIME =    271940.785
NODE   10 CPU TIME =    271331.328
NODE   11 CPU TIME =    271325.728
NODE   12 CPU TIME =    271408.560
NODE   13 CPU TIME =    271686.462
NODE   14 CPU TIME =    271222.096
NODE   15 CPU TIME =    271202.189
NODE   16 CPU TIME =    271320.258
NODE   17 CPU TIME =    271655.124
NODE   18 CPU TIME =    271262.120
NODE   19 CPU TIME =    271233.589
NODE   20 CPU TIME =    271325.477
NODE   21 CPU TIME =    271567.166
NODE   22 CPU TIME =    271167.759
NODE   23 CPU TIME =    271316.526
    TOTAL CPU TIME =   6515841.858
trying normal rsh (/usr/bin/rsh)
exec: No such file or directory
trying normal rsh (/usr/bin/rsh)
exec: No such file or directory
trying normal rsh (/usr/bin/rsh)
exec: No such file or directory
trying normal rsh (/usr/bin/rsh)
exec: No such file or directory
