Loading crystal17/1.0.2/intel/19.0
  Loading requirement: intel/19.0 ompi/4.0.1/intel/19.0
 PROCESS            1  OF           24  WORKING
 PROCESS            2  OF           24  WORKING
 PROCESS            3  OF           24  WORKING
 PROCESS            4  OF           24  WORKING
 PROCESS            5  OF           24  WORKING
 PROCESS            6  OF           24  WORKING
 PROCESS            8  OF           24  WORKING
 PROCESS            9  OF           24  WORKING
 PROCESS           10  OF           24  WORKING
 PROCESS           11  OF           24  WORKING
 PROCESS           12  OF           24  WORKING
 PROCESS           13  OF           24  WORKING
 PROCESS           14  OF           24  WORKING
 PROCESS           15  OF           24  WORKING
 PROCESS           16  OF           24  WORKING
 PROCESS           17  OF           24  WORKING
 PROCESS           18  OF           24  WORKING
 PROCESS           19  OF           24  WORKING
 PROCESS           20  OF           24  WORKING
 PROCESS           21  OF           24  WORKING
 PROCESS           22  OF           24  WORKING
 PROCESS           23  OF           24  WORKING
 PROCESS            0  OF           24  WORKING
 PROCESS            7  OF           24  WORKING

         
 *******************************************************************************
 *                                                                             *
 *                               CRYSTAL17                                     *
 *                      public : 1.0.2 - March 1st, 2018                       *
 *                       HTTP://WWW.CRYSTAL.UNITO.IT                           *
 *                                                                             *
 *                              MAIN AUTHORS                                   *
 *                                                                             *
 *  R. DOVESI(1,11), V.R. SAUNDERS(2), C. ROETTI(1,11), R. ORLANDO(1,11),      *
 *  C.M. ZICOVICH-WILSON(1,3), F. PASCALE(4), B. CIVALLERI(1,11),              *
 *  K. DOLL(5), N.M. HARRISON(2,6), I.J. BUSH(7), Ph. D'ARCO(8),               *
 *  M. LLUNELL(9), M. CAUSA'(10), Y. NOEL(8), L. MASCHIO(1,11), A. ERBA(1,11)  *
 *  M. RE'RAT(14), S. CASASSA(1,11)                                            *
 *                                                                             *
 *        CONTRIBUTIONS TO THE CODE HAVE ALSO BEEN GIVEN BY                    *
 *                                                                             *
 *  M. FERRABONE(1,11), M. DE LA PIERRE(1,11), M. FERRERO(1,11),               *
 *  J. BAIMA(1,11), E. ALBANESE(1,11), M.F. PEINTINGER(12), R. BAST(13),       *
 *  B. KIRTMAN(15), V. LACIVITA(1,11), R. DEMICHELIS(1,16)                     *
 *  G. BRANDEBURG(17), S. SALUSTRO(1,11), G. SANSONE(1,11)                     *
 *  M.T. RUGGIERO(18)                                                          *
 *                                                                             *
 * (1) THEORETICAL CHEMISTRY GROUP - UNIVERSITA' DI TORINO - TORINO (ITALY)    *
 * (2) COMPUTATIONAL SCIENCE & ENGINEERING DEPARTMENT - STFC DARESBURY (UK)    *
 * (3) UNIVERSIDAD AUTONOMA DEL ESTADO DE MORELOS - CUERNAVACA (MEXICO)        *
 * (4) UNIVERSITE' DE LORRAINE - NANCY (FRANCE)                                *
 * (5) UNIVERSITAET STUTTGART- STUTTGART (GERMANY)                             *
 * (6) IMPERIAL COLLEGE - LONDON (UK)                                          *
 * (7) OXFORD E-RESEARCH CENTRE - OXFORD (UK)                                  *
 * (8) UPMC - SORBONNE UNIVERSITES - PARIS (FRANCE)                            *
 * (9) UNIVERSIDAD DE BARCELONA - BARCELONA (SPAIN)                            *
 *(10) UNIVERSITA' DI NAPOLI "FEDERICO II" - NAPOLI (ITALY)                    *
 *(11) NIS - NANOSTRUCTURED INTERFACES AND SURFACES - TORINO (ITALY)           *
 *(12) MPI FUER CHEMISCHE ENERGIEKONVERSION - MUELHEIM AN DER RUHR (GERMANY)   *
 *(13) UNIVERSITY OF TROMSO - TROMSO (NORWAY)                                  *
 *(14) UNIVERSITE' DE PAU ET DES PAYS DE L'ADOUR - PAU (FRANCE)                *
 *(15) UNIVERSITY OF CALIFORNIA SANTA BARBARA - SANTA BARBARA (USA)            *
 *(16) CURTIN UNIVERSITY - PERTH (AUSTRALIA)                                   *
 *(17) UNIVERSITY COLLEGE LONDON - LONDON (UK)                                 *
 *(18) CAMBRIDGE UNIVERSITY - CAMBRIDGE (UK)                                   *
 *                                                                             *
 *******************************************************************************
 EEEEEEEEEE STARTING  DATE 08 12 2023 TIME 09:54:44.4
 Z:\home\sanoj\Downloads\tmp_p\newconn.mol                                       

 CRYSTAL CALCULATION
 (INPUT ACCORDING TO THE INTERNATIONAL TABLES FOR X-RAY CRYSTALLOGRAPHY)
 CRYSTAL FAMILY                       :  TETRAGONAL  
 CRYSTAL CLASS  (GROTH - 1921)        :  TETRAGONAL DISPHENOIDAL              

 SPACE GROUP (NONCENTROSYMMETRIC)     :  I -4            

 LATTICE PARAMETERS  (ANGSTROMS AND DEGREES) - CONVENTIONAL CELL
        A           B           C        ALPHA        BETA       GAMMA
    11.88808    11.88808    11.48848    90.00000    90.00000    90.00000


 NUMBER OF IRREDUCIBLE ATOMS IN THE CONVENTIONAL CELL:   17

 INPUT COORDINATES

 ATOM AT. N.              COORDINATES
   1   1     1.249300000000E-01  7.793700000000E-01  3.000600000000E-01
   2   6     2.782500000000E-01  8.221100000000E-01  3.895900000000E-01
   3   6     2.575700000000E-01 -5.683000000000E-02  3.865900000000E-01
   4   6     2.043900000000E-01  7.483800000000E-01  3.333700000000E-01
   5   6     3.400500000000E-01  6.011400000000E-01  3.535600000000E-01
   6   6     3.822500000000E-01  7.765800000000E-01  4.239500000000E-01
   7   6     7.618500000000E-01  3.603100000000E-01  3.065100000000E-01
   8   7     3.350300000000E-01  1.395000000000E-02  3.382400000000E-01
   9   7     2.905900000000E-01  1.203500000000E-01  3.476100000000E-01
  10   7     1.652800000000E-01  3.020000000000E-03  4.213500000000E-01
  11   7     1.901300000000E-01  1.140100000000E-01  3.960700000000E-01
  12   7     4.091600000000E-01  6.692100000000E-01  4.100100000000E-01
  13  17     4.864000000000E-01  8.613600000000E-01  4.849300000000E-01
  14  17     1.663600000000E-01  5.618800000000E-01  2.047500000000E-01
  15  17     3.779500000000E-01  4.617400000000E-01  3.383900000000E-01
  16  30     0.000000000000E+00  5.000000000000E-01  7.500000000000E-01
  17  30     0.000000000000E+00  0.000000000000E+00  5.000000000000E-01

 *******************************************************************************

 << INFORMATION >>: FROM NOW ON, ALL COORDINATES REFER TO THE PRIMITIVE CELL

 *******************************************************************************

 LATTICE PARAMETERS  (ANGSTROMS AND DEGREES) - PRIMITIVE CELL
       A          B          C        ALPHA      BETA     GAMMA        VOLUME
   10.18133   10.18133   10.18133   108.56101 108.56101 111.30739    811.812631

 COORDINATES OF THE EQUIVALENT ATOMS (FRACTIONAL UNITS)

 N. ATOM EQUIV AT. N.          X                  Y                  Z

   1   1   1    1 H     7.94300000000E-02  4.24990000000E-01 -9.57000000000E-02
   2   1   2    1 H    -4.79310000000E-01  1.75130000000E-01  9.57000000000E-02
   3   1   3    1 H    -4.24990000000E-01  4.79310000000E-01 -3.45560000000E-01
   4   1   4    1 H    -1.75130000000E-01 -7.94300000000E-02  3.45560000000E-01

   5   2   1    6 C     2.11700000000E-01 -3.32160000000E-01  1.00360000000E-01
   6   2   2    6 C    -4.32520000000E-01  1.11340000000E-01 -1.00360000000E-01
   7   2   3    6 C     3.32160000000E-01  4.32520000000E-01 -4.56140000000E-01
   8   2   4    6 C    -1.11340000000E-01 -2.11700000000E-01  4.56140000000E-01

   9   3   1    6 C     3.29760000000E-01 -3.55840000000E-01  2.00740000000E-01
  10   3   2    6 C     4.43420000000E-01  1.29020000000E-01 -2.00740000000E-01
  11   3   3    6 C     3.55840000000E-01 -4.43420000000E-01 -3.14400000000E-01
  12   3   4    6 C    -1.29020000000E-01 -3.29760000000E-01  3.14400000000E-01

  13   4   1    6 C     8.17500000000E-02 -4.62240000000E-01 -4.72300000000E-02
  14   4   2    6 C    -4.15010000000E-01  1.28980000000E-01  4.72300000000E-02
  15   4   3    6 C     4.62240000000E-01  4.15010000000E-01 -4.56010000000E-01
  16   4   4    6 C    -1.28980000000E-01 -8.17500000000E-02  4.56010000000E-01

  17   5   1    6 C    -4.53000000000E-02 -3.06390000000E-01 -5.88100000000E-02
  18   5   2    6 C    -2.47580000000E-01  1.35100000000E-02  5.88100000000E-02
  19   5   3    6 C     3.06390000000E-01  2.47580000000E-01  2.61090000000E-01
  20   5   4    6 C    -1.35100000000E-02  4.53000000000E-02 -2.61090000000E-01

  21   6   1    6 C     2.00530000000E-01 -1.93800000000E-01  1.58830000000E-01
  22   6   2    6 C    -3.52630000000E-01  4.17000000000E-02 -1.58830000000E-01
  23   6   3    6 C     1.93800000000E-01  3.52630000000E-01  3.94330000000E-01
  24   6   4    6 C    -4.17000000000E-02 -2.00530000000E-01 -3.94330000000E-01

  25   7   1    6 C    -3.33180000000E-01  6.83600000000E-02  1.22160000000E-01
  26   7   2    6 C    -5.38000000000E-02 -4.55340000000E-01 -1.22160000000E-01
  27   7   3    6 C    -6.83600000000E-02  5.38000000000E-02 -4.01540000000E-01
  28   7   4    6 C     4.55340000000E-01  3.33180000000E-01  4.01540000000E-01

  29   8   1    7 N     3.52190000000E-01 -3.26730000000E-01  3.48980000000E-01
  30   8   2    7 N     3.24290000000E-01  3.21000000000E-03 -3.48980000000E-01
  31   8   3    7 N     3.26730000000E-01 -3.24290000000E-01 -3.21080000000E-01
  32   8   4    7 N    -3.21000000000E-03 -3.52190000000E-01  3.21080000000E-01

  33   9   1    7 N     4.67960000000E-01 -3.61800000000E-01  4.10940000000E-01
  34   9   2    7 N     2.27260000000E-01  5.70200000000E-02 -4.10940000000E-01
  35   9   3    7 N     3.61800000000E-01 -2.27260000000E-01 -1.70240000000E-01
  36   9   4    7 N    -5.70200000000E-02 -4.67960000000E-01  1.70240000000E-01

  37  10   1    7 N     4.24370000000E-01 -4.13370000000E-01  1.68300000000E-01
  38  10   2    7 N     4.18330000000E-01  2.56070000000E-01 -1.68300000000E-01
  39  10   3    7 N     4.13370000000E-01 -4.18330000000E-01 -1.62260000000E-01
  40  10   4    7 N    -2.56070000000E-01 -4.24370000000E-01  1.62260000000E-01

  41  11   1    7 N    -4.89920000000E-01 -4.13800000000E-01  3.04140000000E-01
  42  11   2    7 N     2.82060000000E-01  2.05940000000E-01 -3.04140000000E-01
  43  11   3    7 N     4.13800000000E-01 -2.82060000000E-01 -7.61200000000E-02
  44  11   4    7 N    -2.05940000000E-01  4.89920000000E-01  7.61200000000E-02

  45  12   1    7 N     7.92200000000E-02 -1.80830000000E-01  7.83700000000E-02
  46  12   2    7 N    -2.59200000000E-01  8.50000000000E-04 -7.83700000000E-02
  47  12   3    7 N     1.80830000000E-01  2.59200000000E-01  2.60050000000E-01
  48  12   4    7 N    -8.50000000000E-04 -7.92200000000E-02 -2.60050000000E-01

  49  13   1   17 CL    3.46290000000E-01 -2.86700000000E-02  3.47760000000E-01
  50  13   2   17 CL   -3.76430000000E-01 -1.47000000000E-03 -3.47760000000E-01
  51  13   3   17 CL    2.86700000000E-02  3.76430000000E-01  3.74960000000E-01
  52  13   4   17 CL    1.47000000000E-03 -3.46290000000E-01 -3.74960000000E-01

  53  14   1   17 CL   -2.33370000000E-01  3.71110000000E-01 -2.71760000000E-01
  54  14   2   17 CL   -3.57130000000E-01  3.83900000000E-02  2.71760000000E-01
  55  14   3   17 CL   -3.71110000000E-01  3.57130000000E-01  3.95520000000E-01
  56  14   4   17 CL   -3.83900000000E-02  2.33370000000E-01 -3.95520000000E-01

  57  15   1   17 CL   -1.99870000000E-01 -2.83660000000E-01 -1.60310000000E-01
  58  15   2   17 CL   -1.23350000000E-01 -3.95600000000E-02  1.60310000000E-01
  59  15   3   17 CL    2.83660000000E-01  1.23350000000E-01  8.37900000000E-02
  60  15   4   17 CL    3.95600000000E-02  1.99870000000E-01 -8.37900000000E-02

  61  16   1   30 ZN    2.50000000000E-01 -2.50000000000E-01 -5.00000000000E-01

  62  17   1   30 ZN   -5.00000000000E-01 -5.00000000000E-01  0.00000000000E+00

 NUMBER OF SYMMETRY OPERATORS         :    4
 *******************************************************************************
 * GEOMETRY EDITING - INPUT COORDINATES ARE GIVEN IN ANGSTROM         
 *******************************************************************************

 GEOMETRY NOW FULLY CONSISTENT WITH THE GROUP

 GCALCO - MAX INDICES DIRECT LATTICE VECTOR    15    15    14
 NO.OF VECTORS CREATED 6999 STARS  490 RMAX   209.06082 BOHR

 GEOMETRY FOR WAVE FUNCTION - DIMENSIONALITY OF THE SYSTEM    3
 (NON PERIODIC DIRECTION: LATTICE PARAMETER FORMALLY SET TO 500)
 *******************************************************************************
 LATTICE PARAMETERS (ANGSTROMS AND DEGREES) - BOHR = 0.5291772083 ANGSTROM
 PRIMITIVE CELL - CENTRING CODE 6/0 VOLUME=   811.812631 - DENSITY  2.290 g/cm^3
         A              B              C           ALPHA      BETA       GAMMA 
    10.18133007    10.18133007    10.18133007   108.561011 108.561011 111.307392
 *******************************************************************************
 ATOMS IN THE ASYMMETRIC UNIT   17 - ATOMS IN THE UNIT CELL:   62
     ATOM                 X/A                 Y/B                 Z/C    
 *******************************************************************************
      1 T   1 H     7.943000000000E-02  4.249900000000E-01 -9.570000000000E-02
      2 F   1 H    -4.793100000000E-01  1.751300000000E-01  9.570000000000E-02
      3 F   1 H    -4.249900000000E-01  4.793100000000E-01 -3.455600000000E-01
      4 F   1 H    -1.751300000000E-01 -7.943000000000E-02  3.455600000000E-01
      5 T   6 C     2.117000000000E-01 -3.321600000000E-01  1.003600000000E-01
      6 F   6 C    -4.325200000000E-01  1.113400000000E-01 -1.003600000000E-01
      7 F   6 C     3.321600000000E-01  4.325200000000E-01 -4.561400000000E-01
      8 F   6 C    -1.113400000000E-01 -2.117000000000E-01  4.561400000000E-01
      9 T   6 C     3.297600000000E-01 -3.558400000000E-01  2.007400000000E-01
     10 F   6 C     4.434200000000E-01  1.290200000000E-01 -2.007400000000E-01
     11 F   6 C     3.558400000000E-01 -4.434200000000E-01 -3.144000000000E-01
     12 F   6 C    -1.290200000000E-01 -3.297600000000E-01  3.144000000000E-01
     13 T   6 C     8.175000000000E-02 -4.622400000000E-01 -4.723000000000E-02
     14 F   6 C    -4.150100000000E-01  1.289800000000E-01  4.723000000000E-02
     15 F   6 C     4.622400000000E-01  4.150100000000E-01 -4.560100000000E-01
     16 F   6 C    -1.289800000000E-01 -8.175000000000E-02  4.560100000000E-01
     17 T   6 C    -4.530000000000E-02 -3.063900000000E-01 -5.881000000000E-02
     18 F   6 C    -2.475800000000E-01  1.351000000000E-02  5.881000000000E-02
     19 F   6 C     3.063900000000E-01  2.475800000000E-01  2.610900000000E-01
     20 F   6 C    -1.351000000000E-02  4.530000000000E-02 -2.610900000000E-01
     21 T   6 C     2.005300000000E-01 -1.938000000000E-01  1.588300000000E-01
     22 F   6 C    -3.526300000000E-01  4.170000000000E-02 -1.588300000000E-01
     23 F   6 C     1.938000000000E-01  3.526300000000E-01  3.943300000000E-01
     24 F   6 C    -4.170000000000E-02 -2.005300000000E-01 -3.943300000000E-01
     25 T   6 C    -3.331800000000E-01  6.836000000000E-02  1.221600000000E-01
     26 F   6 C    -5.380000000000E-02 -4.553400000000E-01 -1.221600000000E-01
     27 F   6 C    -6.836000000000E-02  5.380000000000E-02 -4.015400000000E-01
     28 F   6 C     4.553400000000E-01  3.331800000000E-01  4.015400000000E-01
     29 T   7 N     3.521900000000E-01 -3.267300000000E-01  3.489800000000E-01
     30 F   7 N     3.242900000000E-01  3.210000000000E-03 -3.489800000000E-01
     31 F   7 N     3.267300000000E-01 -3.242900000000E-01 -3.210800000000E-01
     32 F   7 N    -3.210000000000E-03 -3.521900000000E-01  3.210800000000E-01
     33 T   7 N     4.679600000000E-01 -3.618000000000E-01  4.109400000000E-01
     34 F   7 N     2.272600000000E-01  5.702000000000E-02 -4.109400000000E-01
     35 F   7 N     3.618000000000E-01 -2.272600000000E-01 -1.702400000000E-01
     36 F   7 N    -5.702000000000E-02 -4.679600000000E-01  1.702400000000E-01
     37 T   7 N     4.243700000000E-01 -4.133700000000E-01  1.683000000000E-01
     38 F   7 N     4.183300000000E-01  2.560700000000E-01 -1.683000000000E-01
     39 F   7 N     4.133700000000E-01 -4.183300000000E-01 -1.622600000000E-01
     40 F   7 N    -2.560700000000E-01 -4.243700000000E-01  1.622600000000E-01
     41 T   7 N    -4.899200000000E-01 -4.138000000000E-01  3.041400000000E-01
     42 F   7 N     2.820600000000E-01  2.059400000000E-01 -3.041400000000E-01
     43 F   7 N     4.138000000000E-01 -2.820600000000E-01 -7.612000000000E-02
     44 F   7 N    -2.059400000000E-01  4.899200000000E-01  7.612000000000E-02
     45 T   7 N     7.922000000000E-02 -1.808300000000E-01  7.837000000000E-02
     46 F   7 N    -2.592000000000E-01  8.499999999998E-04 -7.837000000000E-02
     47 F   7 N     1.808300000000E-01  2.592000000000E-01  2.600500000000E-01
     48 F   7 N    -8.499999999998E-04 -7.922000000000E-02 -2.600500000000E-01
     49 T  17 CL    3.462900000000E-01 -2.867000000000E-02  3.477600000000E-01
     50 F  17 CL   -3.764300000000E-01 -1.470000000000E-03 -3.477600000000E-01
     51 F  17 CL    2.867000000000E-02  3.764300000000E-01  3.749600000000E-01
     52 F  17 CL    1.470000000000E-03 -3.462900000000E-01 -3.749600000000E-01
     53 T  17 CL   -2.333700000000E-01  3.711100000000E-01 -2.717600000000E-01
     54 F  17 CL   -3.571300000000E-01  3.839000000000E-02  2.717600000000E-01
     55 F  17 CL   -3.711100000000E-01  3.571300000000E-01  3.955200000000E-01
     56 F  17 CL   -3.839000000000E-02  2.333700000000E-01 -3.955200000000E-01
     57 T  17 CL   -1.998700000000E-01 -2.836600000000E-01 -1.603100000000E-01
     58 F  17 CL   -1.233500000000E-01 -3.956000000000E-02  1.603100000000E-01
     59 F  17 CL    2.836600000000E-01  1.233500000000E-01  8.379000000000E-02
     60 F  17 CL    3.956000000000E-02  1.998700000000E-01 -8.379000000000E-02
     61 T  30 ZN    2.500000000000E-01 -2.500000000000E-01  5.000000000000E-01
     62 T  30 ZN    5.000000000000E-01  5.000000000000E-01  0.000000000000E+00

 TRANSFORMATION MATRIX PRIMITIVE-CRYSTALLOGRAPHIC CELL
  0.0000  1.0000  1.0000  1.0000  0.0000  1.0000  1.0000  1.0000  0.0000

 *******************************************************************************
 CRYSTALLOGRAPHIC CELL (VOLUME=       1623.62526266)
         A              B              C           ALPHA      BETA       GAMMA 
    11.88807703    11.88807703    11.48848016    90.000000  90.000000  90.000000

 COORDINATES IN THE CRYSTALLOGRAPHIC CELL
     ATOM                 X/A                 Y/B                 Z/C    
 *******************************************************************************
      1 T   1 H     1.249300000000E-01 -2.206300000000E-01  3.000600000000E-01
      2 F   1 H    -1.249300000000E-01  2.206300000000E-01  3.000600000000E-01
      3 F   1 H    -2.206300000000E-01 -1.249300000000E-01 -3.000600000000E-01
      4 F   1 H     2.206300000000E-01  1.249300000000E-01 -3.000600000000E-01
      5 T   6 C    -2.217500000000E-01  3.221100000000E-01 -1.104100000000E-01
      6 F   6 C     2.217500000000E-01 -3.221100000000E-01 -1.104100000000E-01
      7 F   6 C     3.221100000000E-01  2.217500000000E-01  1.104100000000E-01
      8 F   6 C    -3.221100000000E-01 -2.217500000000E-01  1.104100000000E-01
      9 T   6 C     2.575700000000E-01 -5.683000000000E-02  3.865900000000E-01
     10 F   6 C    -2.575700000000E-01  5.683000000000E-02  3.865900000000E-01
     11 F   6 C    -5.683000000000E-02 -2.575700000000E-01 -3.865900000000E-01
     12 F   6 C     5.683000000000E-02  2.575700000000E-01 -3.865900000000E-01
     13 T   6 C    -2.956100000000E-01  2.483800000000E-01 -1.666300000000E-01
     14 F   6 C     2.956100000000E-01 -2.483800000000E-01 -1.666300000000E-01
     15 F   6 C     2.483800000000E-01  2.956100000000E-01  1.666300000000E-01
     16 F   6 C    -2.483800000000E-01 -2.956100000000E-01  1.666300000000E-01
     17 T   6 C    -1.599500000000E-01  1.011400000000E-01 -1.464400000000E-01
     18 F   6 C     1.599500000000E-01 -1.011400000000E-01 -1.464400000000E-01
     19 F   6 C     1.011400000000E-01  1.599500000000E-01  1.464400000000E-01
     20 F   6 C    -1.011400000000E-01 -1.599500000000E-01  1.464400000000E-01
     21 T   6 C    -1.177500000000E-01  2.765800000000E-01 -7.605000000000E-02
     22 F   6 C     1.177500000000E-01 -2.765800000000E-01 -7.605000000000E-02
     23 F   6 C     2.765800000000E-01  1.177500000000E-01  7.605000000000E-02
     24 F   6 C    -2.765800000000E-01 -1.177500000000E-01  7.605000000000E-02
     25 T   6 C     2.618500000000E-01 -1.396900000000E-01 -1.934900000000E-01
     26 F   6 C    -2.618500000000E-01  1.396900000000E-01 -1.934900000000E-01
     27 F   6 C    -1.396900000000E-01 -2.618500000000E-01  1.934900000000E-01
     28 F   6 C     1.396900000000E-01  2.618500000000E-01  1.934900000000E-01
     29 T   7 N     3.350300000000E-01  1.395000000000E-02  3.382400000000E-01
     30 F   7 N    -3.350300000000E-01 -1.395000000000E-02  3.382400000000E-01
     31 F   7 N     1.395000000000E-02 -3.350300000000E-01 -3.382400000000E-01
     32 F   7 N    -1.395000000000E-02  3.350300000000E-01 -3.382400000000E-01
     33 T   7 N    -2.094100000000E-01 -3.796500000000E-01 -1.523900000000E-01
     34 F   7 N     2.094100000000E-01  3.796500000000E-01 -1.523900000000E-01
     35 F   7 N    -3.796500000000E-01  2.094100000000E-01  1.523900000000E-01
     36 F   7 N     3.796500000000E-01 -2.094100000000E-01  1.523900000000E-01
     37 T   7 N     1.652800000000E-01  3.020000000000E-03  4.213500000000E-01
     38 F   7 N    -1.652800000000E-01 -3.020000000000E-03  4.213500000000E-01
     39 F   7 N     3.020000000000E-03 -1.652800000000E-01 -4.213500000000E-01
     40 F   7 N    -3.020000000000E-03  1.652800000000E-01 -4.213500000000E-01
     41 T   7 N     1.901300000000E-01  1.140100000000E-01  3.960700000000E-01
     42 F   7 N    -1.901300000000E-01 -1.140100000000E-01  3.960700000000E-01
     43 F   7 N     1.140100000000E-01 -1.901300000000E-01 -3.960700000000E-01
     44 F   7 N    -1.140100000000E-01  1.901300000000E-01 -3.960700000000E-01
     45 T   7 N    -9.084000000000E-02  1.692100000000E-01 -8.999000000000E-02
     46 F   7 N     9.084000000000E-02 -1.692100000000E-01 -8.999000000000E-02
     47 F   7 N     1.692100000000E-01  9.084000000000E-02  8.999000000000E-02
     48 F   7 N    -1.692100000000E-01 -9.084000000000E-02  8.999000000000E-02
     49 T  17 CL   -1.360000000000E-02  3.613600000000E-01 -1.507000000000E-02
     50 F  17 CL    1.360000000000E-02 -3.613600000000E-01 -1.507000000000E-02
     51 F  17 CL    3.613600000000E-01  1.360000000000E-02  1.507000000000E-02
     52 F  17 CL   -3.613600000000E-01 -1.360000000000E-02  1.507000000000E-02
     53 T  17 CL   -3.336400000000E-01  6.188000000000E-02 -2.952500000000E-01
     54 F  17 CL    3.336400000000E-01 -6.188000000000E-02 -2.952500000000E-01
     55 F  17 CL    6.188000000000E-02  3.336400000000E-01  2.952500000000E-01
     56 F  17 CL   -6.188000000000E-02 -3.336400000000E-01  2.952500000000E-01
     57 T  17 CL   -1.220500000000E-01 -3.826000000000E-02 -1.616100000000E-01
     58 F  17 CL    1.220500000000E-01  3.826000000000E-02 -1.616100000000E-01
     59 F  17 CL   -3.826000000000E-02  1.220500000000E-01  1.616100000000E-01
     60 F  17 CL    3.826000000000E-02 -1.220500000000E-01  1.616100000000E-01
     61 T  30 ZN    5.000000000000E-01  7.907145541359E-17  2.500000000000E-01
     62 T  30 ZN    0.000000000000E+00  0.000000000000E+00  5.000000000000E-01

 T = ATOM BELONGING TO THE ASYMMETRIC UNIT

 ****    4 SYMMOPS - TRANSLATORS IN FRACTIONAL UNITS
 **** MATRICES AND TRANSLATORS IN THE CRYSTALLOGRAPHIC REFERENCE FRAME
   V INV                    ROTATION MATRICES                   TRANSLATORS
   1   1  1.00  0.00  0.00  0.00  1.00  0.00  0.00  0.00  1.00  0.00  0.00  0.00
   2   2  0.00  1.00 -1.00  1.00 -0.00 -1.00  0.00  0.00 -1.00  0.00  0.00  0.00
   3   4  0.00 -1.00  0.00 -0.00 -1.00  1.00  1.00 -1.00  0.00  0.00  0.00  0.00
   4   3 -1.00  0.00  1.00 -1.00 -0.00 -0.00 -1.00  1.00  0.00  0.00  0.00  0.00

 DIRECT LATTICE VECTORS CARTESIAN COMPONENTS (ANGSTROM)
          X                    Y                    Z
  -0.594403851745E+01   0.594403851745E+01   0.574424008225E+01
   0.594403851745E+01  -0.594403851745E+01   0.574424008225E+01
   0.594403851745E+01   0.594403851745E+01  -0.574424008225E+01


 CARTESIAN COORDINATES - PRIMITIVE CELL
 *******************************************************************************
 *      ATOM          X(ANGSTROM)         Y(ANGSTROM)         Z(ANGSTROM)
 *******************************************************************************
    1     1 H     1.485177463970E+00 -2.622866436210E+00  3.447233358160E+00
    2     1 H    -1.485177463970E+00  2.622866436210E+00  3.447233358160E+00
    3     1 H    -2.622866436210E+00 -1.485177463970E+00 -3.447233358160E+00
    4     1 H     2.622866436210E+00  1.485177463970E+00 -3.447233358160E+00
    5     6 C    -2.636181082489E+00  3.829268493712E+00 -1.268443094962E+00
    6     6 C     2.636181082489E+00 -3.829268493712E+00 -1.268443094962E+00
    7     6 C     3.829268493712E+00  2.636181082489E+00  1.268443094962E+00
    8     6 C    -3.829268493712E+00 -2.636181082489E+00  1.268443094962E+00
    9     6 C     3.062012001879E+00 -6.755994178934E-01  4.441331546794E+00
   10     6 C    -3.062012001879E+00  6.755994178934E-01  4.441331546794E+00
   11     6 C    -6.755994178934E-01 -3.062012001879E+00 -4.441331546794E+00
   12     6 C     6.755994178934E-01  3.062012001879E+00 -4.441331546794E+00
   13     6 C    -3.514234452287E+00  2.952760573928E+00 -1.914325449811E+00
   14     6 C     3.514234452287E+00 -2.952760573928E+00 -1.914325449811E+00
   15     6 C     2.952760573928E+00  3.514234452287E+00  1.914325449811E+00
   16     6 C    -2.952760573928E+00 -3.514234452287E+00  1.914325449811E+00
   17     6 C    -1.901497921732E+00  1.202360111310E+00 -1.682373035289E+00
   18     6 C     1.901497921732E+00 -1.202360111310E+00 -1.682373035289E+00
   19     6 C     1.202360111310E+00  1.901497921732E+00  1.682373035289E+00
   20     6 C    -1.202360111310E+00 -1.901497921732E+00  1.682373035289E+00
   21     6 C    -1.399821070859E+00  3.288004346313E+00 -8.736989165102E-01
   22     6 C     1.399821070859E+00 -3.288004346313E+00 -8.736989165102E-01
   23     6 C     3.288004346313E+00  1.399821070859E+00  8.736989165102E-01
   24     6 C    -3.288004346313E+00 -1.399821070859E+00  8.736989165102E-01
   25     6 C     3.112892971589E+00 -1.660645481005E+00 -2.222906027029E+00
   26     6 C    -3.112892971589E+00  1.660645481005E+00 -2.222906027029E+00
   27     6 C    -1.660645481005E+00 -3.112892971589E+00  2.222906027029E+00
   28     6 C     1.660645481005E+00  3.112892971589E+00  2.222906027029E+00
   29     7 N     3.982862449003E+00  1.658386746369E-01  3.885863530840E+00
   30     7 N    -3.982862449003E+00 -1.658386746369E-01  3.885863530840E+00
   31     7 N     1.658386746369E-01 -3.982862449003E+00 -3.885863530840E+00
   32     7 N    -1.658386746369E-01  3.982862449003E+00 -3.885863530840E+00
   33     7 N    -2.489482211878E+00 -4.513308446300E+00 -1.750729492268E+00
   34     7 N     2.489482211878E+00  4.513308446300E+00 -1.750729492268E+00
   35     7 N    -4.513308446300E+00  2.489482211878E+00  1.750729492268E+00
   36     7 N     4.513308446300E+00 -2.489482211878E+00  1.750729492268E+00
   37     7 N     1.964861372328E+00  3.590199264540E-02  4.840671117312E+00
   38     7 N    -1.964861372328E+00 -3.590199264540E-02  4.840671117312E+00
   39     7 N     3.590199264540E-02 -1.964861372328E+00 -4.840671117312E+00
   40     7 N    -3.590199264540E-02  1.964861372328E+00 -4.840671117312E+00
   41     7 N     2.260280086646E+00  1.355359662749E+00  4.550242338754E+00
   42     7 N    -2.260280086646E+00 -1.355359662749E+00  4.550242338754E+00
   43     7 N     1.355359662749E+00 -2.260280086646E+00 -4.550242338754E+00
   44     7 N    -1.355359662749E+00  2.260280086646E+00 -4.550242338754E+00
   45     7 N    -1.079912917850E+00  2.011581515075E+00 -1.033848330003E+00
   46     7 N     1.079912917850E+00 -2.011581515075E+00 -1.033848330003E+00
   47     7 N     2.011581515075E+00  1.079912917850E+00  1.033848330003E+00
   48     7 N    -2.011581515075E+00 -1.079912917850E+00  1.033848330003E+00
   49    17 CL   -1.616778476746E-01  4.295875517331E+00 -1.731313960790E-01
   50    17 CL    1.616778476746E-01 -4.295875517331E+00 -1.731313960790E-01
   51    17 CL    4.295875517331E+00  1.616778476746E-01  1.731313960790E-01
   52    17 CL   -4.295875517331E+00 -1.616778476746E-01  1.731313960790E-01
   53    17 CL   -3.966338021924E+00  7.356342069196E-01 -3.391973768569E+00
   54    17 CL    3.966338021924E+00 -7.356342069196E-01 -3.391973768569E+00
   55    17 CL    7.356342069196E-01  3.966338021924E+00  3.391973768569E+00
   56    17 CL   -7.356342069196E-01 -3.966338021924E+00  3.391973768569E+00
   57    17 CL   -1.450939802110E+00 -4.548378273553E-01 -1.856653279385E+00
   58    17 CL    1.450939802110E+00  4.548378273553E-01 -1.856653279385E+00
   59    17 CL   -4.548378273553E-01  1.450939802110E+00  1.856653279385E+00
   60    17 CL    4.548378273553E-01 -1.450939802110E+00  1.856653279385E+00
   61    30 ZN    5.944038517450E+00  9.400075532184E-16 -8.616360123375E+00
   62    30 ZN    0.000000000000E+00  0.000000000000E+00  5.744240082250E+00

 *******************************************************************************
 STARTING BASIS SET HANDLING 
 *******************************************************************************

 Loading internal basis set: POB-DZVPP           

 Please cite in your publication:
 Peintinger, M. F., Oliveira, D. V. and Bredow, T. (2013), Generally applicable 
 solid-state Gaussian basis sets, in preparation                                
                                                                                
                    

 *******************************************************************************
 LOCAL ATOMIC FUNCTIONS BASIS SET
 *******************************************************************************
   ATOM   X(AU)   Y(AU)   Z(AU)  N. TYPE  EXPONENT  S COEF   P COEF   D/F/G COEF
 *******************************************************************************
   1 H    2.807  -4.956   6.514
                                  1 S  
                                         2.263E+01 1.441E-02 0.000E+00 0.000E+00
                                         3.236E+00 1.072E-01 0.000E+00 0.000E+00
                                         7.304E-01 3.846E-01 0.000E+00 0.000E+00
                                  2 S  
                                         1.417E-01 1.000E+00 0.000E+00 0.000E+00
                           3-     5 P  
                                         3.944E-01 0.000E+00 1.000E+00 0.000E+00
                           6-     8 P  
                                         1.006E-01 0.000E+00 1.000E+00 0.000E+00
   2 H   -2.807   4.956   6.514
   3 H   -4.956  -2.807  -6.514
   4 H    4.956   2.807  -6.514
   5 C   -4.982   7.236  -2.397
                                 33 S  
                                         1.238E+03 5.457E-03 0.000E+00 0.000E+00
                                         1.863E+02 4.064E-02 0.000E+00 0.000E+00
                                         4.225E+01 1.803E-01 0.000E+00 0.000E+00
                                         1.168E+01 4.632E-01 0.000E+00 0.000E+00
                                         3.593E+00 4.409E-01 0.000E+00 0.000E+00
                                 34 S  
                                         5.281E+00 1.000E+00 0.000E+00 0.000E+00
                                 35 S  
                                         4.447E-01 1.000E+00 0.000E+00 0.000E+00
                          36-    38 P  
                                         9.468E+00 0.000E+00 3.839E-02 0.000E+00
                                         2.010E+00 0.000E+00 2.112E-01 0.000E+00
                                         5.477E-01 0.000E+00 5.133E-01 0.000E+00
                          39-    41 P  
                                         1.604E-01 0.000E+00 1.000E+00 0.000E+00
                          42-    46 D  
                                         6.070E-01 0.000E+00 0.000E+00 1.000E+00
                          47-    51 D  
                                         2.939E-01 0.000E+00 0.000E+00 1.000E+00
   6 C    4.982  -7.236  -2.397
   7 C    7.236   4.982   2.397
   8 C   -7.236  -4.982   2.397
   9 C    5.786  -1.277   8.393
  10 C   -5.786   1.277   8.393
  11 C   -1.277  -5.786  -8.393
  12 C    1.277   5.786  -8.393
  13 C   -6.641   5.580  -3.618
  14 C    6.641  -5.580  -3.618
  15 C    5.580   6.641   3.618
  16 C   -5.580  -6.641   3.618
  17 C   -3.593   2.272  -3.179
  18 C    3.593  -2.272  -3.179
  19 C    2.272   3.593   3.179
  20 C   -2.272  -3.593   3.179
  21 C   -2.645   6.213  -1.651
  22 C    2.645  -6.213  -1.651
  23 C    6.213   2.645   1.651
  24 C   -6.213  -2.645   1.651
  25 C    5.883  -3.138  -4.201
  26 C   -5.883   3.138  -4.201
  27 C   -3.138  -5.883   4.201
  28 C    3.138   5.883   4.201
  29 N    7.527   0.313   7.343
                                489 S  
                                         1.713E+03-5.393E-03 0.000E+00 0.000E+00
                                         2.576E+02-4.022E-02 0.000E+00 0.000E+00
                                         5.846E+01-1.793E-01 0.000E+00 0.000E+00
                                         1.620E+01-4.638E-01 0.000E+00 0.000E+00
                                         5.005E+00-4.417E-01 0.000E+00 0.000E+00
                                490 S  
                                         6.217E-01 1.000E+00 0.000E+00 0.000E+00
                                491 S  
                                         2.921E-01 1.000E+00 0.000E+00 0.000E+00
                         492-   494 P  
                                         1.357E+01 0.000E+00-4.007E-02 0.000E+00
                                         2.926E+00 0.000E+00-2.181E-01 0.000E+00
                                         7.993E-01 0.000E+00-5.129E-01 0.000E+00
                         495-   497 P  
                                         2.244E-01 0.000E+00 1.000E+00 0.000E+00
                         498-   502 D  
                                         3.118E-01 0.000E+00 0.000E+00 1.000E+00
  30 N   -7.527  -0.313   7.343
  31 N    0.313  -7.527  -7.343
  32 N   -0.313   7.527  -7.343
  33 N   -4.704  -8.529  -3.308
  34 N    4.704   8.529  -3.308
  35 N   -8.529   4.704   3.308
  36 N    8.529  -4.704   3.308
  37 N    3.713   0.068   9.148
  38 N   -3.713  -0.068   9.148
  39 N    0.068  -3.713  -9.148
  40 N   -0.068   3.713  -9.148
  41 N    4.271   2.561   8.599
  42 N   -4.271  -2.561   8.599
  43 N    2.561  -4.271  -8.599
  44 N   -2.561   4.271  -8.599
  45 N   -2.041   3.801  -1.954
  46 N    2.041  -3.801  -1.954
  47 N    3.801   2.041   1.954
  48 N   -3.801  -2.041   1.954
  49 CL  -0.306   8.118  -0.327
                                769 S  
                                         1.045E+04 1.971E-03 0.000E+00 0.000E+00
                                         1.572E+03 1.475E-02 0.000E+00 0.000E+00
                                         3.571E+02 6.668E-02 0.000E+00 0.000E+00
                                         1.003E+02 1.723E-01 0.000E+00 0.000E+00
                                         3.081E+01 1.588E-01 0.000E+00 0.000E+00
                                770 S  
                                         5.192E+01-1.001E-01 0.000E+00 0.000E+00
                                         5.705E+00 6.084E-01 0.000E+00 0.000E+00
                                         2.351E+00 5.435E-01 0.000E+00 0.000E+00
                                771 S  
                                         4.886E-01 1.000E+00 0.000E+00 0.000E+00
                                772 S  
                                         1.984E-01 1.000E+00 0.000E+00 0.000E+00
                         773-   775 P  
                                         3.077E+02 0.000E+00-8.780E-03 0.000E+00
                                         7.210E+01 0.000E+00-6.356E-02 0.000E+00
                                         2.253E+01 0.000E+00-2.402E-01 0.000E+00
                                         7.899E+00 0.000E+00-4.780E-01 0.000E+00
                                         2.877E+00 0.000E+00-3.852E-01 0.000E+00
                         776-   778 P  
                                         9.483E-01 0.000E+00 1.000E+00 0.000E+00
                         779-   781 P  
                                         2.521E-01 0.000E+00 1.000E+00 0.000E+00
                         782-   786 D  
                                         9.722E-01 0.000E+00 0.000E+00 1.000E+00
                         787-   791 D  
                                         2.060E-01 0.000E+00 0.000E+00 1.000E+00
  50 CL   0.306  -8.118  -0.327
  51 CL   8.118   0.306   0.327
  52 CL  -8.118  -0.306   0.327
  53 CL  -7.495   1.390  -6.410
  54 CL   7.495  -1.390  -6.410
  55 CL   1.390   7.495   6.410
  56 CL  -1.390  -7.495   6.410
  57 CL  -2.742  -0.860  -3.509
  58 CL   2.742   0.860  -3.509
  59 CL  -0.860   2.742   3.509
  60 CL   0.860  -2.742   3.509
  61 ZN  11.233   0.000 -16.283
                               1045 S  
                                         8.200E+04 1.421E-03 0.000E+00 0.000E+00
                                         1.231E+04 1.089E-02 0.000E+00 0.000E+00
                                         2.801E+03 5.406E-02 0.000E+00 0.000E+00
                                         7.910E+02 1.885E-01 0.000E+00 0.000E+00
                                         2.576E+02 3.835E-01 0.000E+00 0.000E+00
                                         8.881E+01 2.972E-01 0.000E+00 0.000E+00
                               1046 S  
                                         1.719E+02-1.105E-01 0.000E+00 0.000E+00
                                         2.030E+01 6.461E-01 0.000E+00 0.000E+00
                                         8.346E+00 4.422E-01 0.000E+00 0.000E+00
                               1047 S  
                                         1.485E+01-2.271E-01 0.000E+00 0.000E+00
                                         2.450E+00 7.243E-01 0.000E+00 0.000E+00
                                         9.985E-01 4.484E-01 0.000E+00 0.000E+00
                               1048 S  
                                         1.493E+00 1.000E+00 0.000E+00 0.000E+00
                               1049 S  
                                         1.830E-01 1.000E+00 0.000E+00 0.000E+00
                        1050-  1052 P  
                                         1.072E+03 0.000E+00 9.277E-03 0.000E+00
                                         2.527E+02 0.000E+00 6.954E-02 0.000E+00
                                         8.010E+01 0.000E+00 2.716E-01 0.000E+00
                                         2.890E+01 0.000E+00 5.340E-01 0.000E+00
                                         1.077E+01 0.000E+00 3.450E-01 0.000E+00
                        1053-  1055 P  
                                         5.645E+00 0.000E+00 3.413E-01 0.000E+00
                                         2.168E+00 0.000E+00 5.639E-01 0.000E+00
                                         8.054E-01 0.000E+00 2.368E-01 0.000E+00
                        1056-  1058 P  
                                         2.721E-01 0.000E+00 1.000E+00 0.000E+00
                        1059-  1063 D  
                                         5.609E+01 0.000E+00 0.000E+00 2.959E-02
                                         1.575E+01 0.000E+00 0.000E+00 1.587E-01
                                         5.312E+00 0.000E+00 0.000E+00 3.798E-01
                                         1.774E+00 0.000E+00 0.000E+00 4.690E-01
                        1064-  1068 D  
                                         5.073E-01 0.000E+00 0.000E+00 1.000E+00
                        1069-  1075 F  
                                         2.814E+00 0.000E+00 0.000E+00 1.000E+00
                        1076-  1082 F  
                                         1.300E+00 0.000E+00 0.000E+00 1.000E+00
  62 ZN   0.000   0.000  10.855

 *******************************************************************************
 FINISHED BASIS SET HANDLING 
 *******************************************************************************

 INFORMATION **** SET_MPP **** PCRYSTAL CALCULATION
 INFORMATION **** READM2 **** NEW DEFAULT: FOCK/KS MATRIX MIXING SET TO 30 %
 INFORMATION **** READM2 **** NEW DEFAULT: FULL DIRECT SCF MODE
 INFORMATION **** READM2 **** NEW DEFAULT: COULOMB BIPOLAR BUFFER SET TO 32 Mb
 INFORMATION **** READM2 **** NEW DEFAULT: EXCHANGE BIPOLAR BUFFER SET TO 32 Mb

 *******************************************************************************
 NEW DEFAULT: DFT INTEGRATION GRID INCREASED TO XLGRID
 NEW DEFAULT: DIIS ACCELERATOR ACTIVE
 USE KEYWORD NODIIS TO TURN IT OFF
 *******************************************************************************

 INFORMATION **** DFTD3_INPUT **** PERFORM DISPERSION CORRECTION DFT-D3(BJ) IN THE BECKE-JOHNSON DAMPING SCHEME

 PLEASE CITE:
 (1) DFT-D3 Reference
  S. Grimme, J. Antony, S. Ehrlich, and H. Krieg, J. Chem. Phys. 132 (2010), 154104
 (2) BJ-Damping Reference
  S. Grimme, S. Ehrlich, and L. Goerigk, J. Comput. Chem. 32 (2011), 1456-1465
 (3) General DFT-D Review
  S. Grimme, A. Hansen, J. G. Brandenburg, and C. Bannwarth,
  Chem. Rev. 116 (2016), 5105-5154

 INFORMATION **** TOLINTEG **** COULOMB AND EXCHANGE SERIES TOLERANCES MODIFIED
 INFORMATION **** BIPOSIZE **** COULOMB BIPOLAR BUFFER SET TO   100000000
 INFORMATION **** MAXCYCLE **** MAX NUMBER OF SCF CYCLES SET TO          50
 *******************************************************************************
 N. OF ATOMS PER CELL        62  COULOMB OVERLAP TOL         (T1) 10**  -12
 NUMBER OF SHELLS           436  COULOMB PENETRATION TOL     (T2) 10**  -12
 NUMBER OF AO              1120  EXCHANGE OVERLAP TOL        (T3) 10**   20
 N. OF ELECTRONS PER CELL   552  EXCHANGE PSEUDO OVP (F(G))  (T4) 10**   20
 CORE ELECTRONS PER CELL    244  EXCHANGE PSEUDO OVP (P(G))  (T5) 10**   20
 N. OF SYMMETRY OPERATORS     4  POLE ORDER IN MONO ZONE                  4
 *******************************************************************************
 TYPE OF CALCULATION :  RESTRICTED CLOSED SHELL
 KOHN-SHAM HAMILTONIAN

 (EXCHANGE)[CORRELATION] FUNCTIONAL:(PERDEW-BURKE-ERNZERHOF)[PERDEW-BURKE-ERNZERHOF]


 CAPPA:IS1  3;IS2  3;IS3  3; K PTS MONK NET   6; SYMMOPS:K SPACE   8;G SPACE   4

 *******************************************************************************
 MAX NUMBER OF SCF CYCLES      50  CONVERGENCE ON DELTAP        10**-16
 WEIGHT OF F(I) IN F(I+1)      30% CONVERGENCE ON ENERGY        10**- 6
 SHRINK. FACT.(MONKH.)    3  3  3  NUMBER OF K POINTS IN THE IBZ      6
 SHRINKING FACTOR(GILAT NET)    3  NUMBER OF K POINTS(GILAT NET)      6
 *******************************************************************************
 *** K POINTS COORDINATES (OBLIQUE COORDINATES IN UNITS OF IS =  3)
   1-R(  0  0  0)   2-C(  1  0  0)   3-C(  1  1  0)   4-C(  2  1  0)
   5-C(  2  1  1)   6-C(  2  2  1)

 DIRECT LATTICE VECTORS COMPON. (A.U.)     RECIP. LATTICE VECTORS COMPON. (A.U.) 
        X            Y            Z              X            Y            Z
  -11.2326049   11.2326049   10.8550406      0.0000000    0.2796851    0.2894133
   11.2326049  -11.2326049   10.8550406      0.2796851    0.0000000    0.2894133
   11.2326049   11.2326049  -10.8550406      0.2796851    0.2796851    0.0000000

 DISK SPACE FOR EIGENVECTORS (FTN 10)    13798400 REALS

 SYMMETRY ADAPTION OF THE BLOCH FUNCTIONS ENABLED
 TTTTTTTTTTTTTTTTTTTTTTTTTTTTTT gordsh1     TELAPSE        2.88 TCPU        0.05

 MATRIX SIZE: P(G) 1795632, F(G)  898476, P(G) IRR  227071, F(G) IRR  227071
 MAX G-VECTOR INDEX FOR 1- AND 2-ELECTRON INTEGRALS  59

 TTTTTTTTTTTTTTTTTTTTTTTTTTTTTT INPUT       TELAPSE        3.17 TCPU        0.35

 NEIGHBORS OF THE NON-EQUIVALENT ATOMS

 N = NUMBER OF NEIGHBORS AT DISTANCE R
    ATOM  N     R/ANG      R/AU   NEIGHBORS (ATOM LABELS AND CELL INDICES)
   1 H    1     1.0837     2.0480   13 C    0 1 0
   1 H    1     2.1388     4.0417   26 C    0 1 0
   1 H    1     2.1537     4.0698    5 C    0 1 0
   1 H    1     2.2282     4.2107   60 CL   0 0 0
   1 H    1     2.5961     4.9060   56 CL   0 0 0
   1 H    1     2.6956     5.0940    9 C    0 0 0

   5 C    1     1.3987     2.6432   13 C    0 0 0
   5 C    1     1.4062     2.6573   21 C    0 0 0
   5 C    1     1.4604     2.7598    9 C    0-1 0
   5 C    1     2.1537     4.0698    1 H    0-1 0
   5 C    1     2.4044     4.5436   45 N    0 0 0
   5 C    1     2.4169     4.5672   26 C    0 0 0

   9 C    1     1.3655     2.5804   29 N    0 0 0
   9 C    1     1.3673     2.5838   37 N    0 0 0
   9 C    1     1.4604     2.7598    5 C    0 1 0
   9 C    1     2.1862     4.1313   41 N    0 0 0
   9 C    1     2.1889     4.1364   33 N    1 1 1
   9 C    1     2.4771     4.6810   13 C    0 1 0

  13 C    1     1.0837     2.0480    1 H    0-1 0
  13 C    1     1.3878     2.6225   26 C    0 0 0
  13 C    1     1.3987     2.6432    5 C    0 0 0
  13 C    1     2.3803     4.4982   21 C    0 0 0
  13 C    1     2.3914     4.5190   17 C    0 0 0
  13 C    1     2.4771     4.6810    9 C    0-1 0

  17 C    1     1.3230     2.5002   45 N    0 0 0
  17 C    1     1.4035     2.6521   26 C    0 0 0
  17 C    1     1.7262     3.2620   57 CL   0 0 0
  17 C    1     2.2925     4.3322   21 C    0 0 0
  17 C    1     2.3914     4.5190   13 C    0 0 0
  17 C    1     2.7211     5.1420   53 CL   0 0 0

  21 C    1     1.3256     2.5050   45 N    0 0 0
  21 C    1     1.4062     2.6573    5 C    0 0 0
  21 C    1     1.7434     3.2946   49 CL   0 0 0
  21 C    1     2.2925     4.3322   17 C    0 0 0
  21 C    1     2.3803     4.4982   13 C    0 0 0
  21 C    1     2.5106     4.7444    9 C    0-1 0

  25 C    1     1.3878     2.6225   14 C    0 0 0
  25 C    1     1.4035     2.6521   18 C    0 0 0
  25 C    1     1.7178     3.2461   54 CL   0 0 0
  25 C    1     2.1388     4.0417    2 H   -1 0 0
  25 C    1     2.3812     4.4998   46 N    0 0 0
  25 C    1     2.4169     4.5672    6 C    0 0 0

  29 N    1     1.3655     2.5804    9 C    0 0 0
  29 N    1     1.3750     2.5984   33 N    1 1 1
  29 N    1     2.1963     4.1504   41 N    0 0 0
  29 N    1     2.2139     4.1837   61 ZN   1 1 0
  29 N    1     2.2363     4.2259   37 N    0 0 0
  29 N    1     2.4505     4.6307    5 C    0 1 0

  33 N    1     1.3198     2.4941   41 N   -1-1-1
  33 N    1     1.3750     2.5984   29 N   -1-1-1
  33 N    1     2.1889     4.1364    9 C   -1-1-1
  33 N    1     2.2096     4.1756   37 N   -1-1-1
  33 N    1     2.9859     5.6426   15 C   -1-1-1
  33 N    1     3.0033     5.6753    7 C   -1-1-1

  37 N    1     1.3673     2.5838    9 C    0 0 0
  37 N    1     1.3830     2.6134   41 N    0 0 0
  37 N    1     2.1630     4.0874   62 ZN   0 0 0
  37 N    1     2.2096     4.1756   33 N    1 1 1
  37 N    1     2.2363     4.2259   29 N    0 0 0
  37 N    1     2.5617     4.8409    5 C    0 1 0

  41 N    1     1.3198     2.4941   33 N    1 1 1
  41 N    1     1.3830     2.6134   37 N    0 0 0
  41 N    1     2.1862     4.1313    9 C    0 0 0
  41 N    1     2.1963     4.1504   29 N    0 0 0
  41 N    1     2.8934     5.4676   62 ZN   0 0 0
  41 N    1     2.9774     5.6265   28 C    0 0 0

  45 N    1     1.3230     2.5002   17 C    0 0 0
  45 N    1     1.3256     2.5050   21 C    0 0 0
  45 N    1     2.3812     4.4998   26 C    0 0 0
  45 N    1     2.4044     4.5436    5 C    0 0 0
  45 N    1     2.6081     4.9285   49 CL   0 0 0
  45 N    1     2.6264     4.9631   57 CL   0 0 0

  49 CL   1     1.7434     3.2946   21 C    0 0 0
  49 CL   1     2.6081     4.9285   45 N    0 0 0
  49 CL   1     2.7460     5.1892    5 C    0 0 0
  49 CL   1     3.0609     5.7842   29 N    0-1 0
  49 CL   1     3.0893     5.8380   30 N    0 0 1
  49 CL   1     3.0927     5.8443   34 N    0 0 0

  53 CL   1     1.7178     3.2461   26 C    0 0 0
  53 CL   1     2.5961     4.9060    3 H    0 0 0
  53 CL   1     2.7025     5.1070   13 C    0 0 0
  53 CL   1     2.7211     5.1420   17 C    0 0 0
  53 CL   1     2.8507     5.3871    1 H    0-1 0
  53 CL   2     3.1600     5.9716   55 CL  -1-1-1   56 CL   0-1 0

  57 CL   1     1.7262     3.2620   17 C    0 0 0
  57 CL   1     2.2282     4.2107    3 H    0 0 0
  57 CL   1     2.6264     4.9631   45 N    0 0 0
  57 CL   1     2.7151     5.1307   26 C    0 0 0
  57 CL   1     3.0100     5.6881   48 N    0 0 0
  57 CL   1     3.0411     5.7469   58 CL   0 0 0

  61 ZN   4     2.2139     4.1837   29 N   -1-1 0   30 N   -1 0 1   31 N    0 0 1
                                    32 N   -1 0 0
  61 ZN   4     3.0825     5.8251   33 N    0 0 1   34 N   -1 0 0   35 N   -1 0 1
                                    36 N   -1-1 0
  61 ZN   4     3.1666     5.9839   49 CL  -1 0 0   50 CL   0 0 1   51 CL  -1-1 0
                                    52 CL  -1 0 1
  61 ZN   4     3.3504     6.3313    9 C   -1-1 0   10 C   -1 0 1   11 C    0 0 1
                                    12 C   -1 0 0
  61 ZN   4     3.6066     6.8155   21 C   -1 0 0   22 C    0 0 1   23 C   -1-1 0
                                    24 C   -1 0 1
  61 ZN   4     3.7408     7.0691    5 C   -1 0 0    6 C    0 0 1    7 C   -1-1 0
                                     8 C   -1 0 1

  62 ZN   4     2.1630     4.0874   37 N    0 0 0   38 N    0 0 0   39 N    1 1 0
                                    40 N    1 1 0
  62 ZN   4     2.8934     5.4676   41 N    0 0 0   42 N    0 0 0   43 N    1 1 0
                                    44 N    1 1 0
  62 ZN   4     3.3956     6.4167    9 C    0 0 0   10 C    0 0 0   11 C    1 1 0
                                    12 C    1 1 0
  62 ZN   4     3.7896     7.1614    1 H    0 0 0    2 H    0 0 0    3 H    1 1 0
                                     4 H    1 1 0
  62 ZN   4     4.1259     7.7968    5 C    0 1 0    6 C    1 0 0    7 C    0 0-1
                                     8 C    1 1 1
  62 ZN   4     4.1287     7.8021   33 N    1 1 1   34 N    0 0-1   35 N    0 1 0
                                    36 N    1 0 0


 SYMMETRY ALLOWED INTERNAL DEGREE(S) OF FREEDOM:  45
 TTTTTTTTTTTTTTTTTTTTTTTTTTTTTT SYMM        TELAPSE        3.20 TCPU        0.37
 TTTTTTTTTTTTTTTTTTTTTTTTTTTTTT INT_SCREEN  TELAPSE        3.20 TCPU        0.37
 INFORMATION **** EXCBUF **** EXCH. BIPO BUFFER: WORDS USED =           0

 DFT PARAMETERS

     ATOM       ELECTRONS   NET CHARGE   R(ANGSTROM)
   1   1  H       1.0000      0.0000     1.11000000
   5   6  C       6.0000      0.0000     0.77000000
  29   7  N       7.0000      0.0000     0.74000000
  49  17  CL     17.0000      0.0000     0.99000000
  61  30  ZN     30.0000      0.0000     1.37000000

 SIZE OF GRID=     485091
 TTTTTTTTTTTTTTTTTTTTTTTTTTTTTT MAKE_GRID2  TELAPSE        3.97 TCPU        1.14
 BECKE WEIGHT FUNCTION
 RADSAFE =     2.00
 TOLERANCES - DENSITY:10**- 6; POTENTIAL:10**- 9; GRID WGT:10**-14

 RADIAL INTEGRATION  - INTERVALS (POINTS,UPPER LIMIT):            1( 75,  4.0*R)

 ANGULAR INTEGRATION - INTERVALS (ACCURACY LEVEL [N. POINTS] UPPER LIMIT):
  1(  4[  86]   0.2)  2(  8[ 194]   0.5)  3( 12[ 350]   0.9)  4( 16[ 974]   3.5)
  5( 12[ 350]9999.0)
 TTTTTTTTTTTTTTTTTTTTTTTTTTTTTT INT_CALC    TELAPSE        4.02 TCPU        1.19
 EEEEEEEEEE INT_CALC TERMINATION  DATE 08 12 2023 TIME 09:54:48.3

 *******************************************************************************
 Z:\home\sanoj\Downloads\tmp_p\newconn.mol                                       
 CRYSTAL - SCF - TYPE OF CALCULATION :  RESTRICTED CLOSED SHELL
 *******************************************************************************

 CAPPA:IS1  3;IS2  3;IS3  3; K PTS MONK NET   6; SYMMOPS:K SPACE   8;G SPACE   4

 TTTTTTTTTTTTTTTTTTTTTTTTTTTTTT SDIK        TELAPSE        4.26 TCPU        1.43

 AAAAAAAAAAAAAAAAAAAAAAAAAAAAAAAAAAAAAAAAAAAAAAAAAAAAAAAAAAAAAAAAAAAAAAAAAAAAAAA
         ATOMIC WAVEFUNCTION(S)


 NUCLEAR CHARGE  1.0  SYMMETRY SPECIES            S
 N. ELECTRONS    1.0  NUMBER OF PRIMITIVE GTOS    4
                      NUMBER OF CONTRACTED GTOS   2
                      NUMBER OF CLOSED SHELLS     0
                      OPEN SHELL OCCUPATION       1

  ZNUC SCFIT  TOTAL HF ENERGY   KINETIC ENERGY   VIRIAL THEOREM ACCURACY
   1.0   1   -4.946643675E-01  4.917913167E-01 -2.005842012E+00  9.4E-17

 NUCLEAR CHARGE  6.0  SYMMETRY SPECIES            S    P
 N. ELECTRONS    6.0  NUMBER OF PRIMITIVE GTOS    7    4
                      NUMBER OF CONTRACTED GTOS   3    2
                      NUMBER OF CLOSED SHELLS     2    0
                      OPEN SHELL OCCUPATION       0    2

  ZNUC SCFIT  TOTAL HF ENERGY   KINETIC ENERGY   VIRIAL THEOREM ACCURACY
   6.0   6   -3.750912652E+01  3.905246519E+01 -1.960480378E+00  3.7E-06

 NUCLEAR CHARGE  7.0  SYMMETRY SPECIES            S    P
 N. ELECTRONS    7.0  NUMBER OF PRIMITIVE GTOS    7    4
                      NUMBER OF CONTRACTED GTOS   3    2
                      NUMBER OF CLOSED SHELLS     2    0
                      OPEN SHELL OCCUPATION       0    3

  ZNUC SCFIT  TOTAL HF ENERGY   KINETIC ENERGY   VIRIAL THEOREM ACCURACY
   7.0   9   -5.432196661E+01  5.425066284E+01 -2.001314339E+00  1.2E-06

 NUCLEAR CHARGE 17.0  SYMMETRY SPECIES            S    P
 N. ELECTRONS   17.0  NUMBER OF PRIMITIVE GTOS   10    7
                      NUMBER OF CONTRACTED GTOS   4    3
                      NUMBER OF CLOSED SHELLS     3    1
                      OPEN SHELL OCCUPATION       0    5

  ZNUC SCFIT  TOTAL HF ENERGY   KINETIC ENERGY   VIRIAL THEOREM ACCURACY
  17.0   9   -4.593005957E+02  4.593991532E+02 -1.999785464E+00  2.3E-06

 NUCLEAR CHARGE 30.0  SYMMETRY SPECIES            S    P    D
 N. ELECTRONS   30.0  NUMBER OF PRIMITIVE GTOS   14    9    5
                      NUMBER OF CONTRACTED GTOS   5    3    2
                      NUMBER OF CLOSED SHELLS     4    2    1
                      OPEN SHELL OCCUPATION       0    0    0

  ZNUC SCFIT  TOTAL HF ENERGY   KINETIC ENERGY   VIRIAL THEOREM ACCURACY
  30.0  10   -1.777404290E+03  1.777325716E+03 -2.000044209E+00  2.5E-06

 AAAAAAAAAAAAAAAAAAAAAAAAAAAAAAAAAAAAAAAAAAAAAAAAAAAAAAAAAAAAAAAAAAAAAAAAAAAAAAA

 TOTAL ATOMIC CHARGES:
   1.0000000   1.0000000   1.0000000   1.0000000   6.0000000   6.0000000
   6.0000000   6.0000000   6.0000000   6.0000000   6.0000000   6.0000000
   6.0000000   6.0000000   6.0000000   6.0000000   6.0000000   6.0000000
   6.0000000   6.0000000   6.0000000   6.0000000   6.0000000   6.0000000
   6.0000000   6.0000000   6.0000000   6.0000000   7.0000000   7.0000000
   7.0000000   7.0000000   7.0000000   7.0000000   7.0000000   7.0000000
   7.0000000   7.0000000   7.0000000   7.0000000   7.0000000   7.0000000
   7.0000000   7.0000000   7.0000000   7.0000000   7.0000000   7.0000000
  17.0000000  17.0000000  17.0000000  17.0000000  17.0000000  17.0000000
  17.0000000  17.0000000  17.0000000  17.0000000  17.0000000  17.0000000
  30.0000000  30.0000000
 TTTTTTTTTTTTTTTTTTTTTTTTTTTTTT MOQGAD      TELAPSE        6.31 TCPU        3.45
 TTTTTTTTTTTTTTTTTTTTTTTTTTTTTT SHELLXN     TELAPSE       75.44 TCPU       62.13
 TTTTTTTTTTTTTTTTTTTTTTTTTTTTTT MONMO3      TELAPSE       78.17 TCPU       64.85
 NUMERICALLY INTEGRATED DENSITY    551.9998962873
 TTTTTTTTTTTTTTTTTTTTTTTTTTTTTT NUMDFT      TELAPSE       80.35 TCPU       67.02
 CYC   0 ETOT(AU) -1.108908017495E+04 DETOT -1.11E+04 tst  0.00E+00 PX  1.00E+00
 TTTTTTTTTTTTTTTTTTTTTTTTTTTTTT DIIS        TELAPSE       80.44 TCPU       67.12
 TTTTTTTTTTTTTTTTTTTTTTTTTTTTTT FDIK        TELAPSE      137.88 TCPU      116.70
 INSULATING STATE
 TOP OF VALENCE BANDS -    BAND    276; K    1; EIG -1.2970032E-01 AU
 BOTTOM OF VIRTUAL BANDS - BAND    277; K    1; EIG -9.1226584E-02 AU
 DIRECT ENERGY BAND GAP:   1.0469 eV
 TTTTTTTTTTTTTTTTTTTTTTTTTTTTTT PDIG        TELAPSE      138.75 TCPU      117.57
 TOTAL ATOMIC CHARGES:
   1.3324269   1.3324269   1.3324269   1.3324269   6.2575778   6.2575778
   6.2575778   6.2575778   5.4897678   5.4897678   5.4897678   5.4897678
   6.4723970   6.4723970   6.4723970   6.4723970   5.1604968   5.1604968
   5.1604968   5.1604968   5.0876770   5.0876770   5.0876770   5.0876770
   5.4143349   5.4143349   5.4143349   5.4143349   7.4485478   7.4485478
   7.4485478   7.4485478   7.2014920   7.2014920   7.2014920   7.2014920
   7.4186685   7.4186685   7.4186685   7.4186685   7.1840894   7.1840894
   7.1840894   7.1840894   7.6320216   7.6320216   7.6320216   7.6320216
  17.3265075  17.3265075  17.3265075  17.3265075  17.3008587  17.3008587
  17.3008587  17.3008587  17.2505378  17.2505378  17.2505378  17.2505378
  28.0402402  28.0501536
 TTTTTTTTTTTTTTTTTTTTTTTTTTTTTT MOQGAD      TELAPSE      138.80 TCPU      117.61
 TTTTTTTTTTTTTTTTTTTTTTTTTTTTTT SHELLXN     TELAPSE      211.56 TCPU      186.08
 TTTTTTTTTTTTTTTTTTTTTTTTTTTTTT MONMO3      TELAPSE      216.37 TCPU      190.87
 NUMERICALLY INTEGRATED DENSITY    551.9999418227
 TTTTTTTTTTTTTTTTTTTTTTTTTTTTTT NUMDFT      TELAPSE      222.11 TCPU      196.61
 CYC   1 ETOT(AU) -1.108334061433E+04 DETOT  5.74E+00 tst  0.00E+00 PX  1.00E+00
 TTTTTTTTTTTTTTTTTTTTTTTTTTTTTT DIIS        TELAPSE      222.37 TCPU      196.86
 DIIS TEST: 0.77061E+01 AT SCF   CYCLE   1 - MIX   30 %
 TTTTTTTTTTTTTTTTTTTTTTTTTTTTTT FDIK        TELAPSE      239.45 TCPU      210.01
 INSULATING STATE
 TOP OF VALENCE BANDS -    BAND    276; K    1; EIG -1.9262120E-01 AU
 BOTTOM OF VIRTUAL BANDS - BAND    277; K    5; EIG -1.2017633E-01 AU
 INDIRECT ENERGY BAND GAP:   1.9713 eV
 BOTTOM OF VIRTUAL BANDS - BAND    277; K    1; EIG -1.1597204E-01 AU
 TTTTTTTTTTTTTTTTTTTTTTTTTTTTTT PDIG        TELAPSE      240.32 TCPU      210.87
 TOTAL ATOMIC CHARGES:
   1.3229529   1.3229529   1.3229529   1.3229529   6.1375677   6.1375677
   6.1375677   6.1375677   6.3482740   6.3482740   6.3482740   6.3482740
   6.1922174   6.1922174   6.1922174   6.1922174   6.1688050   6.1688050
   6.1688050   6.1688050   6.1245665   6.1245665   6.1245665   6.1245665
   5.7730367   5.7730367   5.7730367   5.7730367   6.8784089   6.8784089
   6.8784089   6.8784089   6.9669724   6.9669724   6.9669724   6.9669724
   6.8570627   6.8570627   6.8570627   6.8570627   6.9814439   6.9814439
   6.9814439   6.9814439   6.2418894   6.2418894   6.2418894   6.2418894
  17.1811438  17.1811438  17.1811438  17.1811438  17.0849795  17.0849795
  17.0849795  17.0849795  17.0441901  17.0441901  17.0441901  17.0441901
  29.4299271  29.3560290
 TTTTTTTTTTTTTTTTTTTTTTTTTTTTTT MOQGAD      TELAPSE      240.37 TCPU      210.92
 TTTTTTTTTTTTTTTTTTTTTTTTTTTTTT SHELLXN     TELAPSE      310.81 TCPU      279.03
 TTTTTTTTTTTTTTTTTTTTTTTTTTTTTT MONMO3      TELAPSE      316.48 TCPU      284.68
 NUMERICALLY INTEGRATED DENSITY    551.9999410093
 TTTTTTTTTTTTTTTTTTTTTTTTTTTTTT NUMDFT      TELAPSE      322.28 TCPU      290.47
 CYC   2 ETOT(AU) -1.108269919968E+04 DETOT  6.41E-01 tst  1.55E-02 PX  6.25E-01
 TTTTTTTTTTTTTTTTTTTTTTTTTTTTTT DIIS        TELAPSE      322.49 TCPU      290.68
 DIIS TEST: 0.11780E+02 AT SCF   CYCLE   2 - DIIS ACTIVE - HISTORY:     2 CYCLES
 TTTTTTTTTTTTTTTTTTTTTTTTTTTTTT FDIK        TELAPSE      343.32 TCPU      307.86
 INSULATING STATE
 TOP OF VALENCE BANDS -    BAND    276; K    4; EIG -2.2851898E-01 AU
 TOP OF VALENCE BANDS -    BAND    276; K    1; EIG -2.2916292E-01 AU
 BOTTOM OF VIRTUAL BANDS - BAND    277; K    5; EIG -1.1459407E-01 AU
 INDIRECT ENERGY BAND GAP:   3.1001 eV
 BOTTOM OF VIRTUAL BANDS - BAND    277; K    1; EIG -1.1216890E-01 AU
 TTTTTTTTTTTTTTTTTTTTTTTTTTTTTT PDIG        TELAPSE      344.18 TCPU      308.72
 TOTAL ATOMIC CHARGES:
   1.3045824   1.3045824   1.3045824   1.3045824   6.0841758   6.0841758
   6.0841758   6.0841758   5.8124809   5.8124809   5.8124809   5.8124809
   6.2569545   6.2569545   6.2569545   6.2569545   5.6344636   5.6344636
   5.6344636   5.6344636   5.5466305   5.5466305   5.5466305   5.5466305
   5.5612859   5.5612859   5.5612859   5.5612859   7.1434719   7.1434719
   7.1434719   7.1434719   7.1054215   7.1054215   7.1054215   7.1054215
   7.1698906   7.1698906   7.1698906   7.1698906   7.1047760   7.1047760
   7.1047760   7.1047760   7.3353013   7.3353013   7.3353013   7.3353013
  17.1603743  17.1603743  17.1603743  17.1603743  17.1596762  17.1596762
  17.1596762  17.1596762  17.1466370  17.1466370  17.1466370  17.1466370
  28.9334818  28.9620289
 TTTTTTTTTTTTTTTTTTTTTTTTTTTTTT MOQGAD      TELAPSE      344.23 TCPU      308.76
 TTTTTTTTTTTTTTTTTTTTTTTTTTTTTT SHELLXN     TELAPSE      414.96 TCPU      377.11
 TTTTTTTTTTTTTTTTTTTTTTTTTTTTTT MONMO3      TELAPSE      420.27 TCPU      382.42
 NUMERICALLY INTEGRATED DENSITY    551.9999381699
 TTTTTTTTTTTTTTTTTTTTTTTTTTTTTT NUMDFT      TELAPSE      426.06 TCPU      388.19
 CYC   3 ETOT(AU) -1.108474607120E+04 DETOT -2.05E+00 tst  2.37E-03 PX  4.36E-01
 TTTTTTTTTTTTTTTTTTTTTTTTTTTTTT DIIS        TELAPSE      426.29 TCPU      388.41
 DIIS TEST: 0.86938E+00 AT SCF   CYCLE   3 - DIIS ACTIVE - HISTORY:     3 CYCLES
 TTTTTTTTTTTTTTTTTTTTTTTTTTTTTT FDIK        TELAPSE      442.85 TCPU      402.80
 INSULATING STATE
 TOP OF VALENCE BANDS -    BAND    276; K    4; EIG -2.3346974E-01 AU
 TOP OF VALENCE BANDS -    BAND    276; K    1; EIG -2.3548522E-01 AU
 BOTTOM OF VIRTUAL BANDS - BAND    277; K    5; EIG -1.1706751E-01 AU
 INDIRECT ENERGY BAND GAP:   3.1675 eV
 BOTTOM OF VIRTUAL BANDS - BAND    277; K    1; EIG -1.1495716E-01 AU
 TTTTTTTTTTTTTTTTTTTTTTTTTTTTTT PDIG        TELAPSE      443.70 TCPU      403.65
 TOTAL ATOMIC CHARGES:
   1.2931696   1.2931696   1.2931696   1.2931696   6.2457767   6.2457767
   6.2457767   6.2457767   5.8435086   5.8435086   5.8435086   5.8435086
   6.4076526   6.4076526   6.4076526   6.4076526   5.5304004   5.5304004
   5.5304004   5.5304004   5.5215515   5.5215515   5.5215515   5.5215515
   5.6061948   5.6061948   5.6061948   5.6061948   7.2161104   7.2161104
   7.2161104   7.2161104   7.1085144   7.1085144   7.1085144   7.1085144
   7.1544914   7.1544914   7.1544914   7.1544914   7.0996999   7.0996999
   7.0996999   7.0996999   7.0185424   7.0185424   7.0185424   7.0185424
  17.2337017  17.2337017  17.2337017  17.2337017  17.2057502  17.2057502
  17.2057502  17.2057502  17.1334857  17.1334857  17.1334857  17.1334857
  28.7588839  28.7669154
 TTTTTTTTTTTTTTTTTTTTTTTTTTTTTT MOQGAD      TELAPSE      443.75 TCPU      403.70
 TTTTTTTTTTTTTTTTTTTTTTTTTTTTTT SHELLXN     TELAPSE      514.38 TCPU      472.02
 TTTTTTTTTTTTTTTTTTTTTTTTTTTTTT MONMO3      TELAPSE      519.75 TCPU      477.38
 NUMERICALLY INTEGRATED DENSITY    551.9999413213
 TTTTTTTTTTTTTTTTTTTTTTTTTTTTTT NUMDFT      TELAPSE      525.50 TCPU      483.11
 CYC   4 ETOT(AU) -1.108480821920E+04 DETOT -6.21E-02 tst  1.28E-03 PX  9.97E-02
 TTTTTTTTTTTTTTTTTTTTTTTTTTTTTT DIIS        TELAPSE      525.70 TCPU      483.31
 DIIS TEST: 0.48454E+00 AT SCF   CYCLE   4 - DIIS ACTIVE - HISTORY:     4 CYCLES
 TTTTTTTTTTTTTTTTTTTTTTTTTTTTTT FDIK        TELAPSE      541.66 TCPU      497.02
 INSULATING STATE
 TOP OF VALENCE BANDS -    BAND    276; K    4; EIG -2.3690621E-01 AU
 TOP OF VALENCE BANDS -    BAND    276; K    1; EIG -2.3795428E-01 AU
 BOTTOM OF VIRTUAL BANDS - BAND    277; K    5; EIG -1.1918982E-01 AU
 INDIRECT ENERGY BAND GAP:   3.2032 eV
 BOTTOM OF VIRTUAL BANDS - BAND    277; K    1; EIG -1.1781560E-01 AU
 TTTTTTTTTTTTTTTTTTTTTTTTTTTTTT PDIG        TELAPSE      542.52 TCPU      497.87
 TOTAL ATOMIC CHARGES:
   1.2979250   1.2979250   1.2979250   1.2979250   6.1747252   6.1747252
   6.1747252   6.1747252   5.8513878   5.8513878   5.8513878   5.8513878
   6.3257323   6.3257323   6.3257323   6.3257323   5.6374317   5.6374317
   5.6374317   5.6374317   5.5591551   5.5591551   5.5591551   5.5591551
   5.5844183   5.5844183   5.5844183   5.5844183   7.1627262   7.1627262
   7.1627262   7.1627262   7.1016581   7.1016581   7.1016581   7.1016581
   7.1541496   7.1541496   7.1541496   7.1541496   7.1238742   7.1238742
   7.1238742   7.1238742   7.1285336   7.1285336   7.1285336   7.1285336
  17.2083848  17.2083848  17.2083848  17.2083848  17.1701247  17.1701247
  17.1701247  17.1701247  17.1389994  17.1389994  17.1389994  17.1389994
  28.7617091  28.7613864
 TTTTTTTTTTTTTTTTTTTTTTTTTTTTTT MOQGAD      TELAPSE      542.56 TCPU      497.91
 TTTTTTTTTTTTTTTTTTTTTTTTTTTTTT SHELLXN     TELAPSE      614.34 TCPU      566.31
 TTTTTTTTTTTTTTTTTTTTTTTTTTTTTT MONMO3      TELAPSE      619.43 TCPU      571.40
 NUMERICALLY INTEGRATED DENSITY    551.9999400637
 TTTTTTTTTTTTTTTTTTTTTTTTTTTTTT NUMDFT      TELAPSE      625.18 TCPU      577.13
 CYC   5 ETOT(AU) -1.108487558022E+04 DETOT -6.74E-02 tst  3.71E-04 PX  3.69E-02
 TTTTTTTTTTTTTTTTTTTTTTTTTTTTTT DIIS        TELAPSE      625.94 TCPU      577.89
 DIIS TEST: 0.32757E-01 AT SCF   CYCLE   5 - DIIS ACTIVE - HISTORY:     5 CYCLES
 TTTTTTTTTTTTTTTTTTTTTTTTTTTTTT FDIK        TELAPSE      643.66 TCPU      592.66
 INSULATING STATE
 TOP OF VALENCE BANDS -    BAND    276; K    4; EIG -2.3537859E-01 AU
 TOP OF VALENCE BANDS -    BAND    276; K    1; EIG -2.3658536E-01 AU
 BOTTOM OF VIRTUAL BANDS - BAND    277; K    5; EIG -1.1754035E-01 AU
 INDIRECT ENERGY BAND GAP:   3.2065 eV
 BOTTOM OF VIRTUAL BANDS - BAND    277; K    1; EIG -1.1561710E-01 AU
 TTTTTTTTTTTTTTTTTTTTTTTTTTTTTT PDIG        TELAPSE      644.53 TCPU      593.53
 TOTAL ATOMIC CHARGES:
   1.3003761   1.3003761   1.3003761   1.3003761   6.1786793   6.1786793
   6.1786793   6.1786793   5.8480433   5.8480433   5.8480433   5.8480433
   6.3375948   6.3375948   6.3375948   6.3375948   5.5904297   5.5904297
   5.5904297   5.5904297   5.5425593   5.5425593   5.5425593   5.5425593
   5.5816237   5.5816237   5.5816237   5.5816237   7.1850178   7.1850178
   7.1850178   7.1850178   7.1058967   7.1058967   7.1058967   7.1058967
   7.1565995   7.1565995   7.1565995   7.1565995   7.0947090   7.0947090
   7.0947090   7.0947090   7.1348122   7.1348122   7.1348122   7.1348122
  17.2159346  17.2159346  17.2159346  17.2159346  17.1865822  17.1865822
  17.1865822  17.1865822  17.1461591  17.1461591  17.1461591  17.1461591
  28.7894170  28.7905136
 TTTTTTTTTTTTTTTTTTTTTTTTTTTTTT MOQGAD      TELAPSE      644.58 TCPU      593.58
 TTTTTTTTTTTTTTTTTTTTTTTTTTTTTT SHELLXN     TELAPSE      716.21 TCPU      662.15
 TTTTTTTTTTTTTTTTTTTTTTTTTTTTTT MONMO3      TELAPSE      721.38 TCPU      667.30
 NUMERICALLY INTEGRATED DENSITY    551.9999404368
 TTTTTTTTTTTTTTTTTTTTTTTTTTTTTT NUMDFT      TELAPSE      727.10 TCPU      673.00
 CYC   6 ETOT(AU) -1.108488122025E+04 DETOT -5.64E-03 tst  1.71E-05 PX  3.35E-02
 TTTTTTTTTTTTTTTTTTTTTTTTTTTTTT DIIS        TELAPSE      727.30 TCPU      673.20
 DIIS TEST: 0.80796E-02 AT SCF   CYCLE   6 - DIIS ACTIVE - HISTORY:     6 CYCLES
 TTTTTTTTTTTTTTTTTTTTTTTTTTTTTT FDIK        TELAPSE      744.50 TCPU      688.28
 INSULATING STATE
 TOP OF VALENCE BANDS -    BAND    276; K    4; EIG -2.3514309E-01 AU
 TOP OF VALENCE BANDS -    BAND    276; K    1; EIG -2.3633162E-01 AU
 BOTTOM OF VIRTUAL BANDS - BAND    277; K    5; EIG -1.1770682E-01 AU
 INDIRECT ENERGY BAND GAP:   3.1956 eV
 BOTTOM OF VIRTUAL BANDS - BAND    277; K    1; EIG -1.1599409E-01 AU
 TTTTTTTTTTTTTTTTTTTTTTTTTTTTTT PDIG        TELAPSE      745.36 TCPU      689.13
 TOTAL ATOMIC CHARGES:
   1.3008174   1.3008174   1.3008174   1.3008174   6.1741642   6.1741642
   6.1741642   6.1741642   5.8508427   5.8508427   5.8508427   5.8508427
   6.3365342   6.3365342   6.3365342   6.3365342   5.6071558   5.6071558
   5.6071558   5.6071558   5.5472310   5.5472310   5.5472310   5.5472310
   5.5906183   5.5906183   5.5906183   5.5906183   7.1632232   7.1632232
   7.1632232   7.1632232   7.0978378   7.0978378   7.0978378   7.0978378
   7.1605002   7.1605002   7.1605002   7.1605002   7.1188631   7.1188631
   7.1188631   7.1188631   7.1252496   7.1252496   7.1252496   7.1252496
  17.2083545  17.2083545  17.2083545  17.2083545  17.1811199  17.1811199
  17.1811199  17.1811199  17.1420021  17.1420021  17.1420021  17.1420021
  28.7879367  28.7940075
 TTTTTTTTTTTTTTTTTTTTTTTTTTTTTT MOQGAD      TELAPSE      745.41 TCPU      689.18
 TTTTTTTTTTTTTTTTTTTTTTTTTTTTTT SHELLXN     TELAPSE      816.06 TCPU      757.44
 TTTTTTTTTTTTTTTTTTTTTTTTTTTTTT MONMO3      TELAPSE      821.25 TCPU      762.62
 NUMERICALLY INTEGRATED DENSITY    551.9999401342
 TTTTTTTTTTTTTTTTTTTTTTTTTTTTTT NUMDFT      TELAPSE      826.95 TCPU      768.28
 CYC   7 ETOT(AU) -1.108488204200E+04 DETOT -8.22E-04 tst  6.07E-06 PX  8.39E-03
 TTTTTTTTTTTTTTTTTTTTTTTTTTTTTT DIIS        TELAPSE      827.53 TCPU      768.87
 DIIS TEST: 0.41464E-02 AT SCF   CYCLE   7 - DIIS ACTIVE - HISTORY:     7 CYCLES
 TTTTTTTTTTTTTTTTTTTTTTTTTTTTTT FDIK        TELAPSE      842.35 TCPU      781.36
 INSULATING STATE
 TOP OF VALENCE BANDS -    BAND    276; K    4; EIG -2.3524932E-01 AU
 TOP OF VALENCE BANDS -    BAND    276; K    1; EIG -2.3637750E-01 AU
 BOTTOM OF VIRTUAL BANDS - BAND    277; K    5; EIG -1.1792754E-01 AU
 INDIRECT ENERGY BAND GAP:   3.1925 eV
 BOTTOM OF VIRTUAL BANDS - BAND    277; K    1; EIG -1.1592679E-01 AU
 TTTTTTTTTTTTTTTTTTTTTTTTTTTTTT PDIG        TELAPSE      843.22 TCPU      782.23
 TOTAL ATOMIC CHARGES:
   1.3002887   1.3002887   1.3002887   1.3002887   6.1759500   6.1759500
   6.1759500   6.1759500   5.8509636   5.8509636   5.8509636   5.8509636
   6.3318420   6.3318420   6.3318420   6.3318420   5.6086302   5.6086302
   5.6086302   5.6086302   5.5549146   5.5549146   5.5549146   5.5549146
   5.5844827   5.5844827   5.5844827   5.5844827   7.1811974   7.1811974
   7.1811974   7.1811974   7.1077682   7.1077682   7.1077682   7.1077682
   7.1500905   7.1500905   7.1500905   7.1500905   7.1008854   7.1008854
   7.1008854   7.1008854   7.1279606   7.1279606   7.1279606   7.1279606
  17.2093146  17.2093146  17.2093146  17.2093146  17.1796474  17.1796474
  17.1796474  17.1796474  17.1412553  17.1412553  17.1412553  17.1412553
  28.7878142  28.7914215
 TTTTTTTTTTTTTTTTTTTTTTTTTTTTTT MOQGAD      TELAPSE      843.27 TCPU      782.27
 TTTTTTTTTTTTTTTTTTTTTTTTTTTTTT SHELLXN     TELAPSE      913.98 TCPU      850.62
 TTTTTTTTTTTTTTTTTTTTTTTTTTTTTT MONMO3      TELAPSE      919.36 TCPU      855.98
 NUMERICALLY INTEGRATED DENSITY    551.9999402940
 TTTTTTTTTTTTTTTTTTTTTTTTTTTTTT NUMDFT      TELAPSE      925.10 TCPU      861.70
 CYC   8 ETOT(AU) -1.108488234979E+04 DETOT -3.08E-04 tst  3.53E-06 PX  5.65E-03
 TTTTTTTTTTTTTTTTTTTTTTTTTTTTTT DIIS        TELAPSE      925.32 TCPU      861.91
 DIIS TEST: 0.20847E-02 AT SCF   CYCLE   8 - DIIS ACTIVE - HISTORY:     8 CYCLES
 TTTTTTTTTTTTTTTTTTTTTTTTTTTTTT FDIK        TELAPSE      941.68 TCPU      876.08
 INSULATING STATE
 TOP OF VALENCE BANDS -    BAND    276; K    4; EIG -2.3533631E-01 AU
 TOP OF VALENCE BANDS -    BAND    276; K    1; EIG -2.3649092E-01 AU
 BOTTOM OF VIRTUAL BANDS - BAND    277; K    5; EIG -1.1788657E-01 AU
 INDIRECT ENERGY BAND GAP:   3.1960 eV
 BOTTOM OF VIRTUAL BANDS - BAND    277; K    1; EIG -1.1600097E-01 AU
 TTTTTTTTTTTTTTTTTTTTTTTTTTTTTT PDIG        TELAPSE      942.54 TCPU      876.94
 TOTAL ATOMIC CHARGES:
   1.3000037   1.3000037   1.3000037   1.3000037   6.1767682   6.1767682
   6.1767682   6.1767682   5.8496368   5.8496368   5.8496368   5.8496368
   6.3330730   6.3330730   6.3330730   6.3330730   5.6068301   5.6068301
   5.6068301   5.6068301   5.5493636   5.5493636   5.5493636   5.5493636
   5.5841422   5.5841422   5.5841422   5.5841422   7.1748925   7.1748925
   7.1748925   7.1748925   7.1005228   7.1005228   7.1005228   7.1005228
   7.1594097   7.1594097   7.1594097   7.1594097   7.1049713   7.1049713
   7.1049713   7.1049713   7.1283502   7.1283502   7.1283502   7.1283502
  17.2117457  17.2117457  17.2117457  17.2117457  17.1818616  17.1818616
  17.1818616  17.1818616  17.1429212  17.1429212  17.1429212  17.1429212
  28.7893854  28.7926441
 TTTTTTTTTTTTTTTTTTTTTTTTTTTTTT MOQGAD      TELAPSE      942.59 TCPU      876.99
 TTTTTTTTTTTTTTTTTTTTTTTTTTTTTT SHELLXN     TELAPSE     1011.14 TCPU      945.25
 TTTTTTTTTTTTTTTTTTTTTTTTTTTTTT MONMO3      TELAPSE     1016.44 TCPU      950.54
 NUMERICALLY INTEGRATED DENSITY    551.9999402383
 TTTTTTTTTTTTTTTTTTTTTTTTTTTTTT NUMDFT      TELAPSE     1022.14 TCPU      956.22
 CYC   9 ETOT(AU) -1.108488262651E+04 DETOT -2.77E-04 tst  7.62E-07 PX  2.72E-03
 TTTTTTTTTTTTTTTTTTTTTTTTTTTTTT DIIS        TELAPSE     1022.36 TCPU      956.44
 DIIS TEST: 0.20989E-03 AT SCF   CYCLE   9 - DIIS ACTIVE - HISTORY:     9 CYCLES
 TTTTTTTTTTTTTTTTTTTTTTTTTTTTTT FDIK        TELAPSE     1039.22 TCPU      971.14
 INSULATING STATE
 TOP OF VALENCE BANDS -    BAND    276; K    4; EIG -2.3535197E-01 AU
 TOP OF VALENCE BANDS -    BAND    276; K    1; EIG -2.3651434E-01 AU
 BOTTOM OF VIRTUAL BANDS - BAND    277; K    5; EIG -1.1785362E-01 AU
 INDIRECT ENERGY BAND GAP:   3.1973 eV
 BOTTOM OF VIRTUAL BANDS - BAND    277; K    1; EIG -1.1599334E-01 AU
 TTTTTTTTTTTTTTTTTTTTTTTTTTTTTT PDIG        TELAPSE     1040.08 TCPU      972.00
 TOTAL ATOMIC CHARGES:
   1.2997386   1.2997386   1.2997386   1.2997386   6.1758560   6.1758560
   6.1758560   6.1758560   5.8496599   5.8496599   5.8496599   5.8496599
   6.3342955   6.3342955   6.3342955   6.3342955   5.6063790   5.6063790
   5.6063790   5.6063790   5.5493389   5.5493389   5.5493389   5.5493389
   5.5863995   5.5863995   5.5863995   5.5863995   7.1738588   7.1738588
   7.1738588   7.1738588   7.1039621   7.1039621   7.1039621   7.1039621
   7.1542698   7.1542698   7.1542698   7.1542698   7.1077101   7.1077101
   7.1077101   7.1077101   7.1283255   7.1283255   7.1283255   7.1283255
  17.2107352  17.2107352  17.2107352  17.2107352  17.1811588  17.1811588
  17.1811588  17.1811588  17.1426029  17.1426029  17.1426029  17.1426029
  28.7894218  28.7934161
 TTTTTTTTTTTTTTTTTTTTTTTTTTTTTT MOQGAD      TELAPSE     1040.12 TCPU      972.04
 TTTTTTTTTTTTTTTTTTTTTTTTTTTTTT SHELLXN     TELAPSE     1108.75 TCPU     1040.44
 TTTTTTTTTTTTTTTTTTTTTTTTTTTTTT MONMO3      TELAPSE     1113.70 TCPU     1045.38
 NUMERICALLY INTEGRATED DENSITY    551.9999402162
 TTTTTTTTTTTTTTTTTTTTTTTTTTTTTT NUMDFT      TELAPSE     1119.42 TCPU     1051.09
 CYC  10 ETOT(AU) -1.108488265204E+04 DETOT -2.55E-05 tst  1.93E-07 PX  1.30E-03
 TTTTTTTTTTTTTTTTTTTTTTTTTTTTTT DIIS        TELAPSE     1119.65 TCPU     1051.32
 DIIS TEST: 0.56712E-04 AT SCF   CYCLE  10 - DIIS ACTIVE - HISTORY:    10 CYCLES
 TTTTTTTTTTTTTTTTTTTTTTTTTTTTTT FDIK        TELAPSE     1135.16 TCPU     1064.68
 INSULATING STATE
 TOP OF VALENCE BANDS -    BAND    276; K    4; EIG -2.3528756E-01 AU
 TOP OF VALENCE BANDS -    BAND    276; K    1; EIG -2.3643866E-01 AU
 BOTTOM OF VIRTUAL BANDS - BAND    277; K    5; EIG -1.1789876E-01 AU
 INDIRECT ENERGY BAND GAP:   3.1943 eV
 BOTTOM OF VIRTUAL BANDS - BAND    277; K    1; EIG -1.1601508E-01 AU
 TTTTTTTTTTTTTTTTTTTTTTTTTTTTTT PDIG        TELAPSE     1136.02 TCPU     1065.54
 TOTAL ATOMIC CHARGES:
   1.2999538   1.2999538   1.2999538   1.2999538   6.1760496   6.1760496
   6.1760496   6.1760496   5.8503772   5.8503772   5.8503772   5.8503772
   6.3337142   6.3337142   6.3337142   6.3337142   5.6066251   5.6066251
   5.6066251   5.6066251   5.5506945   5.5506945   5.5506945   5.5506945
   5.5855049   5.5855049   5.5855049   5.5855049   7.1744081   7.1744081
   7.1744081   7.1744081   7.1020746   7.1020746   7.1020746   7.1020746
   7.1567036   7.1567036   7.1567036   7.1567036   7.1070499   7.1070499
   7.1070499   7.1070499   7.1279975   7.1279975   7.1279975   7.1279975
  17.2099172  17.2099172  17.2099172  17.2099172  17.1811428  17.1811428
  17.1811428  17.1811428  17.1425321  17.1425321  17.1425321  17.1425321
  28.7886176  28.7924012
 TTTTTTTTTTTTTTTTTTTTTTTTTTTTTT MOQGAD      TELAPSE     1136.07 TCPU     1065.59
 TTTTTTTTTTTTTTTTTTTTTTTTTTTTTT SHELLXN     TELAPSE     1206.29 TCPU     1133.53
 TTTTTTTTTTTTTTTTTTTTTTTTTTTTTT MONMO3      TELAPSE     1211.97 TCPU     1139.20
 NUMERICALLY INTEGRATED DENSITY    551.9999402438
 TTTTTTTTTTTTTTTTTTTTTTTTTTTTTT NUMDFT      TELAPSE     1217.72 TCPU     1144.94
 CYC  11 ETOT(AU) -1.108488265785E+04 DETOT -5.82E-06 tst  3.64E-08 PX  6.72E-04
 TTTTTTTTTTTTTTTTTTTTTTTTTTTTTT DIIS        TELAPSE     1217.95 TCPU     1145.17
 DIIS TEST: 0.19187E-04 AT SCF   CYCLE  11 - DIIS ACTIVE - HISTORY:    11 CYCLES
 TTTTTTTTTTTTTTTTTTTTTTTTTTTTTT FDIK        TELAPSE     1234.05 TCPU     1159.07
 INSULATING STATE
 TOP OF VALENCE BANDS -    BAND    276; K    4; EIG -2.3531448E-01 AU
 TOP OF VALENCE BANDS -    BAND    276; K    1; EIG -2.3647620E-01 AU
 BOTTOM OF VIRTUAL BANDS - BAND    277; K    5; EIG -1.1785095E-01 AU
 INDIRECT ENERGY BAND GAP:   3.1963 eV
 BOTTOM OF VIRTUAL BANDS - BAND    277; K    1; EIG -1.1597350E-01 AU
 TTTTTTTTTTTTTTTTTTTTTTTTTTTTTT PDIG        TELAPSE     1234.91 TCPU     1159.93
 TOTAL ATOMIC CHARGES:
   1.2999367   1.2999367   1.2999367   1.2999367   6.1758637   6.1758637
   6.1758637   6.1758637   5.8499551   5.8499551   5.8499551   5.8499551
   6.3337047   6.3337047   6.3337047   6.3337047   5.6069068   5.6069068
   5.6069068   5.6069068   5.5497669   5.5497669   5.5497669   5.5497669
   5.5858120   5.5858120   5.5858120   5.5858120   7.1742353   7.1742353
   7.1742353   7.1742353   7.1030068   7.1030068   7.1030068   7.1030068
   7.1561066   7.1561066   7.1561066   7.1561066   7.1066177   7.1066177
   7.1066177   7.1066177   7.1279737   7.1279737   7.1279737   7.1279737
  17.2107099  17.2107099  17.2107099  17.2107099  17.1814141  17.1814141
  17.1814141  17.1814141  17.1425003  17.1425003  17.1425003  17.1425003
  28.7890550  28.7929038
 TTTTTTTTTTTTTTTTTTTTTTTTTTTTTT MOQGAD      TELAPSE     1234.96 TCPU     1159.98
 TTTTTTTTTTTTTTTTTTTTTTTTTTTTTT SHELLXN     TELAPSE     1305.17 TCPU     1227.85
 TTTTTTTTTTTTTTTTTTTTTTTTTTTTTT MONMO3      TELAPSE     1311.03 TCPU     1233.69
 NUMERICALLY INTEGRATED DENSITY    551.9999402291
 TTTTTTTTTTTTTTTTTTTTTTTTTTTTTT NUMDFT      TELAPSE     1316.76 TCPU     1239.41
 CYC  12 ETOT(AU) -1.108488266048E+04 DETOT -2.63E-06 tst  8.39E-09 PX  2.57E-04
 TTTTTTTTTTTTTTTTTTTTTTTTTTTTTT DIIS        TELAPSE     1316.99 TCPU     1239.64
 DIIS TEST: 0.43826E-05 AT SCF   CYCLE  12 - DIIS ACTIVE - HISTORY:    12 CYCLES
 TTTTTTTTTTTTTTTTTTTTTTTTTTTTTT FDIK        TELAPSE     1332.79 TCPU     1253.21
 INSULATING STATE
 TOP OF VALENCE BANDS -    BAND    276; K    4; EIG -2.3530692E-01 AU
 TOP OF VALENCE BANDS -    BAND    276; K    1; EIG -2.3646286E-01 AU
 BOTTOM OF VIRTUAL BANDS - BAND    277; K    5; EIG -1.1786381E-01 AU
 INDIRECT ENERGY BAND GAP:   3.1958 eV
 BOTTOM OF VIRTUAL BANDS - BAND    277; K    1; EIG -1.1599014E-01 AU
 TTTTTTTTTTTTTTTTTTTTTTTTTTTTTT PDIG        TELAPSE     1333.66 TCPU     1254.08
 TOTAL ATOMIC CHARGES:
   1.2999105   1.2999105   1.2999105   1.2999105   6.1761642   6.1761642
   6.1761642   6.1761642   5.8499813   5.8499813   5.8499813   5.8499813
   6.3338627   6.3338627   6.3338627   6.3338627   5.6065330   5.6065330
   5.6065330   5.6065330   5.5500353   5.5500353   5.5500353   5.5500353
   5.5856496   5.5856496   5.5856496   5.5856496   7.1741768   7.1741768
   7.1741768   7.1741768   7.1026675   7.1026675   7.1026675   7.1026675
   7.1559138   7.1559138   7.1559138   7.1559138   7.1071246   7.1071246
   7.1071246   7.1071246   7.1281867   7.1281867   7.1281867   7.1281867
  17.2104841  17.2104841  17.2104841  17.2104841  17.1812186  17.1812186
  17.1812186  17.1812186  17.1425618  17.1425618  17.1425618  17.1425618
  28.7891123  28.7930063
[...]
 TTTTTTTTTTTTTTTTTTTTTTTTTTTTTT MOQGAD      TELAPSE   288356.03 TCPU   286731.82
 TTTTTTTTTTTTTTTTTTTTTTTTTTTTTT CP_MONMON   TELAPSE   288371.33 TCPU   286747.07
 DIIS TEST: 0.41511E+01 AT CPHF  CYCLE   4 - DIIS ACTIVE - HISTORY:     4 CYCLES
 CYCLE   4   ALPHA  755.114454  EPSILON    2.732089  DELTA    2.7383E+00
 TTTTTTTTTTTTTTTTTTTTTTTTTTTTTT MOQGAD      TELAPSE   289063.96 TCPU   287436.12
 TTTTTTTTTTTTTTTTTTTTTTTTTTTTTT CP_MONMON   TELAPSE   289079.27 TCPU   287451.39
 DIIS TEST: 0.77904E+00 AT CPHF  CYCLE   5 - DIIS ACTIVE - HISTORY:     5 CYCLES
 CYCLE   5   ALPHA  756.498596  EPSILON    2.735264  DELTA    1.3841E+00
 TTTTTTTTTTTTTTTTTTTTTTTTTTTTTT MOQGAD      TELAPSE   289776.04 TCPU   288141.91
 TTTTTTTTTTTTTTTTTTTTTTTTTTTTTT CP_MONMON   TELAPSE   289791.34 TCPU   288157.16
 DIIS TEST: 0.13530E+00 AT CPHF  CYCLE   6 - DIIS ACTIVE - HISTORY:     6 CYCLES
 CYCLE   6   ALPHA  756.976944  EPSILON    2.736361  DELTA    4.7835E-01
 TTTTTTTTTTTTTTTTTTTTTTTTTTTTTT MOQGAD      TELAPSE   290488.28 TCPU   288849.56
 TTTTTTTTTTTTTTTTTTTTTTTTTTTTTT CP_MONMON   TELAPSE   290503.53 TCPU   288864.72
 DIIS TEST: 0.73285E-01 AT CPHF  CYCLE   7 - DIIS ACTIVE - HISTORY:     7 CYCLES
 CYCLE   7   ALPHA  757.372161  EPSILON    2.737268  DELTA    3.9522E-01
 TTTTTTTTTTTTTTTTTTTTTTTTTTTTTT MOQGAD      TELAPSE   291200.11 TCPU   289554.39
 TTTTTTTTTTTTTTTTTTTTTTTTTTTTTT CP_MONMON   TELAPSE   291215.40 TCPU   289569.63
 DIIS TEST: 0.97668E-02 AT CPHF  CYCLE   8 - DIIS ACTIVE - HISTORY:     8 CYCLES
 CYCLE   8   ALPHA  757.508380  EPSILON    2.737580  DELTA    1.3622E-01
 TTTTTTTTTTTTTTTTTTTTTTTTTTTTTT MOQGAD      TELAPSE   291905.02 TCPU   290247.49
 TTTTTTTTTTTTTTTTTTTTTTTTTTTTTT CP_MONMON   TELAPSE   291920.30 TCPU   290262.71
 DIIS TEST: 0.37297E-03 AT CPHF  CYCLE   9 - DIIS ACTIVE - HISTORY:     9 CYCLES
 CYCLE   9   ALPHA  757.500321  EPSILON    2.737562  DELTA   -8.0584E-03
 TTTTTTTTTTTTTTTTTTTTTTTTTTTTTT MOQGAD      TELAPSE   292613.22 TCPU   290951.03
 TTTTTTTTTTTTTTTTTTTTTTTTTTTTTT CP_MONMON   TELAPSE   292628.49 TCPU   290966.26
 DIIS TEST: 0.84280E-04 AT CPHF  CYCLE  10 - DIIS ACTIVE - HISTORY:    10 CYCLES
 CYCLE  10   ALPHA  757.478774  EPSILON    2.737512  DELTA   -2.1548E-02
 TTTTTTTTTTTTTTTTTTTTTTTTTTTTTT MOQGAD      TELAPSE   293322.23 TCPU   291656.81
 TTTTTTTTTTTTTTTTTTTTTTTTTTTTTT CP_MONMON   TELAPSE   293337.64 TCPU   291672.19
 DIIS TEST: 0.17043E-04 AT CPHF  CYCLE  11 - DIIS ACTIVE - HISTORY:    11 CYCLES
 CYCLE  11   ALPHA  757.476829  EPSILON    2.737508  DELTA   -1.9442E-03
 TTTTTTTTTTTTTTTTTTTTTTTTTTTTTT MOQGAD      TELAPSE   294037.67 TCPU   292368.29
 TTTTTTTTTTTTTTTTTTTTTTTTTTTTTT CP_MONMON   TELAPSE   294052.98 TCPU   292383.56
 DIIS TEST: 0.16460E-05 AT CPHF  CYCLE  12 - DIIS ACTIVE - HISTORY:    12 CYCLES
 CYCLE  12   ALPHA  757.472803  EPSILON    2.737499  DELTA   -4.0267E-03
 TTTTTTTTTTTTTTTTTTTTTTTTTTTTTT MOQGAD      TELAPSE   294744.26 TCPU   293069.05
 TTTTTTTTTTTTTTTTTTTTTTTTTTTTTT CP_MONMON   TELAPSE   294759.55 TCPU   293084.31
 DIIS TEST: 0.31694E-06 AT CPHF  CYCLE  13 - DIIS ACTIVE - HISTORY:    13 CYCLES
 CYCLE  13   ALPHA  757.472500  EPSILON    2.737498  DELTA   -3.0301E-04
 TTTTTTTTTTTTTTTTTTTTTTTTTTTTTT CP_SC       TELAPSE   294824.80 TCPU   293146.88

 *******************************************************************************

 POLARIZABILITY (ALPHA), DIELECTRIC (EPSILON) AND FIRST-ORDER ELECTRIC
 SUSCEPTIBILITY (CHI(1)) TENSORS (INDEPENDENT COMPONENTS)

  FR.(eV) COMP.   ALPHA(Re,Im)           EPSILON(Re,Im)                CHI(1)
  1.435   XX    1246.1425       0.0000       3.8584       0.0000       2.8584
  1.435   ZZ     757.4725       0.0000       2.7375       0.0000       1.7375

 DIELECTRIC TENSOR

 TENSOR IN PRINCIPAL AXES SYSTEM
 AA  3.858414E+00 BB  3.858414E+00 CC  2.737498E+00

 REFRACTIVE INDICES 
 AA  1.654539E+00 BB  1.964285E+00 CC  1.964285E+00

 OPTICALLY ANISOTROPIC - UNIAXIAL CRYSTAL

 BIREFRINGENCE =  0.3097 (NEGATIVE) - OBLATE OPTICAL ELLIPSOID

 EPSILON=N**2=1+CHI(1)=1+ALPHA*4*PI/V,   4*PI/V=   0.00229 BOHR**(-3)
 ALPHA IN BOHR**3; EPSILON AND CHI(1) ARE DIMENSIONLESS.
 *******************************************************************************

 DYNAMIC FIELD: RUN 10/ 10 - RADIATION WAVELENGTH: 1064.0000 NM

 *******************************************************************************

 ELECTRIC FIELD APPLIED ALONG CARTESIAN DIRECTION X

 *******************************************************************************
 THE NUMBER OF SYMMETRY OPERATORS HAS BEEN REDUCED FROM  4 TO  1

 NEW GRID IN RECIPROCAL SPACE
 *******************************************************************************
 POINTS IN THE IBZ                  14 SHRINKING FACTORS               3  3  3
 *******************************************************************************
 *** K POINTS COORDINATES (OBLIQUE COORDINATES IN UNITS OF SHRINK FAC. )
   1-R(  0  0  0)   2-C(  1  0  0)   3-C(  0  1  2)   4-C(  2  0  1)
   5-C(  0  2  0)   6-C(  1  1  0)   7-C(  1  1  1)   8-C(  1  0  1)
   9-C(  0  1  1)  10-C(  2  1  0)  11-C(  0  0  2)  12-C(  2  1  1)
  13-C(  2  1  2)  14-C(  2  2  1)

 GCALCO - MAX INDICES DIRECT LATTICE VECTOR    15    15    14
 NO.OF VECTORS CREATED 6999 STARS  490 RMAX   209.06082 BOHR
 TTTTTTTTTTTTTTTTTTTTTTTTTTTTTT gordsh1     TELAPSE   294824.82 TCPU   293146.89

 MATRIX SIZE: P(G) 1795632, F(G)  898476, P(G) IRR  900102, F(G) IRR  900102
 MAX G-VECTOR INDEX FOR 1- AND 2-ELECTRON INTEGRALS  59

 TTTTTTTTTTTTTTTTTTTTTTTTTTTTTT INPUT       TELAPSE   294825.24 TCPU   293147.32
 TTTTTTTTTTTTTTTTTTTTTTTTTTTTTT SYMM        TELAPSE   294825.25 TCPU   293147.32

 ***** NEW REFERENCE GEOMETRY *****
 TTTTTTTTTTTTTTTTTTTTTTTTTTTTTT INT_SCREEN  TELAPSE   294825.26 TCPU   293147.33
 INFORMATION **** EXCBUF **** EXCH. BIPO BUFFER: WORDS USED =           0

 DFT PARAMETERS

     ATOM       ELECTRONS   NET CHARGE   R(ANGSTROM)
   1   1  H       1.0000      0.0000     1.11000000
   5   6  C       6.0000      0.0000     0.77000000
  29   7  N       7.0000      0.0000     0.74000000
  49  17  CL     17.0000      0.0000     0.99000000
  61  30  ZN     30.0000      0.0000     1.37000000

 SIZE OF GRID=    1940128
 TTTTTTTTTTTTTTTTTTTTTTTTTTTTTT MAKE_GRID2  TELAPSE   294827.42 TCPU   293149.47
 BECKE WEIGHT FUNCTION
 RADSAFE =     2.00
 TOLERANCES - DENSITY:10**- 6; POTENTIAL:10**- 9; GRID WGT:10**-14

 RADIAL INTEGRATION  - INTERVALS (POINTS,UPPER LIMIT):            1( 75,  4.0*R)

 ANGULAR INTEGRATION - INTERVALS (ACCURACY LEVEL [N. POINTS] UPPER LIMIT):
  1(  4[  86]   0.2)  2(  8[ 194]   0.5)  3( 12[ 350]   0.9)  4( 16[ 974]   3.5)
  5( 12[ 350]9999.0)
 TTTTTTTTTTTTTTTTTTTTTTTTTTTTTT INT_CALC    TELAPSE   294827.52 TCPU   293149.58
 CYCLE   0   ALPHA 1660.704375  EPSILON    4.809340  DELTA    1.6607E+03
 TTTTTTTTTTTTTTTTTTTTTTTTTTTTTT MOQGAD      TELAPSE   296176.60 TCPU   294494.94
 TTTTTTTTTTTTTTTTTTTTTTTTTTTTTT CP_MONMON   TELAPSE   296205.55 TCPU   294523.81
 DIIS TEST: 0.35207E+03 AT CPHF  CYCLE   1 - MIX    0 %
 CYCLE   1   ALPHA  372.514720  EPSILON    1.854478  DELTA   -1.2882E+03
 TTTTTTTTTTTTTTTTTTTTTTTTTTTTTT MOQGAD      TELAPSE   297593.03 TCPU   295904.97
 TTTTTTTTTTTTTTTTTTTTTTTTTTTTTT CP_MONMON   TELAPSE   297622.25 TCPU   295934.12
 DIIS TEST: 0.30479E+04 AT CPHF  CYCLE   2 - DIIS ACTIVE - HISTORY:     2 CYCLES
 CYCLE   2   ALPHA 1125.473993  EPSILON    3.581624  DELTA    7.5296E+02
 TTTTTTTTTTTTTTTTTTTTTTTTTTTTTT MOQGAD      TELAPSE   298991.78 TCPU   297298.40
 TTTTTTTTTTTTTTTTTTTTTTTTTTTTTT CP_MONMON   TELAPSE   299020.91 TCPU   297327.42
 DIIS TEST: 0.82355E+02 AT CPHF  CYCLE   3 - DIIS ACTIVE - HISTORY:     3 CYCLES
 CYCLE   3   ALPHA 1205.621864  EPSILON    3.765468  DELTA    8.0148E+01
 TTTTTTTTTTTTTTTTTTTTTTTTTTTTTT MOQGAD      TELAPSE   300363.01 TCPU   298665.28
 TTTTTTTTTTTTTTTTTTTTTTTTTTTTTT CP_MONMON   TELAPSE   300392.17 TCPU   298694.36
 DIIS TEST: 0.95420E+01 AT CPHF  CYCLE   4 - DIIS ACTIVE - HISTORY:     4 CYCLES
 CYCLE   4   ALPHA 1218.281423  EPSILON    3.794506  DELTA    1.2660E+01
 TTTTTTTTTTTTTTTTTTTTTTTTTTTTTT MOQGAD      TELAPSE   301795.02 TCPU   300089.28
 TTTTTTTTTTTTTTTTTTTTTTTTTTTTTT CP_MONMON   TELAPSE   301823.89 TCPU   300118.05
 DIIS TEST: 0.15054E+01 AT CPHF  CYCLE   5 - DIIS ACTIVE - HISTORY:     5 CYCLES
 CYCLE   5   ALPHA 1222.734129  EPSILON    3.804720  DELTA    4.4527E+00
 TTTTTTTTTTTTTTTTTTTTTTTTTTTTTT MOQGAD      TELAPSE   303223.03 TCPU   301512.08
 TTTTTTTTTTTTTTTTTTTTTTTTTTTTTT CP_MONMON   TELAPSE   303252.16 TCPU   301541.15
 DIIS TEST: 0.19136E+00 AT CPHF  CYCLE   6 - DIIS ACTIVE - HISTORY:     6 CYCLES
 CYCLE   6   ALPHA 1224.606586  EPSILON    3.809015  DELTA    1.8725E+00
 TTTTTTTTTTTTTTTTTTTTTTTTTTTTTT MOQGAD      TELAPSE   304633.64 TCPU   302910.76
 TTTTTTTTTTTTTTTTTTTTTTTTTTTTTT CP_MONMON   TELAPSE   304662.52 TCPU   302939.54
 DIIS TEST: 0.22321E-01 AT CPHF  CYCLE   7 - DIIS ACTIVE - HISTORY:     7 CYCLES
 CYCLE   7   ALPHA 1225.196383  EPSILON    3.810368  DELTA    5.8980E-01
 TTTTTTTTTTTTTTTTTTTTTTTTTTTTTT MOQGAD      TELAPSE   306043.03 TCPU   304315.87
 TTTTTTTTTTTTTTTTTTTTTTTTTTTTTT CP_MONMON   TELAPSE   306071.93 TCPU   304344.70
 DIIS TEST: 0.29347E-02 AT CPHF  CYCLE   8 - DIIS ACTIVE - HISTORY:     8 CYCLES
 CYCLE   8   ALPHA 1225.368909  EPSILON    3.810764  DELTA    1.7253E-01
 TTTTTTTTTTTTTTTTTTTTTTTTTTTTTT MOQGAD      TELAPSE   307468.59 TCPU   305734.67
 TTTTTTTTTTTTTTTTTTTTTTTTTTTTTT CP_MONMON   TELAPSE   307497.50 TCPU   305763.45
 DIIS TEST: 0.21295E-03 AT CPHF  CYCLE   9 - DIIS ACTIVE - HISTORY:     9 CYCLES
 CYCLE   9   ALPHA 1225.338308  EPSILON    3.810693  DELTA   -3.0601E-02
 TTTTTTTTTTTTTTTTTTTTTTTTTTTTTT MOQGAD      TELAPSE   308942.66 TCPU   307202.75
 TTTTTTTTTTTTTTTTTTTTTTTTTTTTTT CP_MONMON   TELAPSE   308971.80 TCPU   307231.82
 DIIS TEST: 0.65744E-04 AT CPHF  CYCLE  10 - DIIS ACTIVE - HISTORY:    10 CYCLES
 CYCLE  10   ALPHA 1225.324845  EPSILON    3.810662  DELTA   -1.3462E-02
 TTTTTTTTTTTTTTTTTTTTTTTTTTTTTT MOQGAD      TELAPSE   310334.53 TCPU   308588.83
 TTTTTTTTTTTTTTTTTTTTTTTTTTTTTT CP_MONMON   TELAPSE   310363.41 TCPU   308617.63
 DIIS TEST: 0.55372E-05 AT CPHF  CYCLE  11 - DIIS ACTIVE - HISTORY:    11 CYCLES
 CYCLE  11   ALPHA 1225.314666  EPSILON    3.810639  DELTA   -1.0179E-02
 TTTTTTTTTTTTTTTTTTTTTTTTTTTTTT MOQGAD      TELAPSE   311762.73 TCPU   310008.34
 TTTTTTTTTTTTTTTTTTTTTTTTTTTTTT CP_MONMON   TELAPSE   311791.87 TCPU   310037.41
 DIIS TEST: 0.60387E-06 AT CPHF  CYCLE  12 - DIIS ACTIVE - HISTORY:    12 CYCLES
 CYCLE  12   ALPHA 1225.312757  EPSILON    3.810635  DELTA   -1.9087E-03
 TTTTTTTTTTTTTTTTTTTTTTTTTTTTTT MOQGAD      TELAPSE   313150.40 TCPU   311389.66
 TTTTTTTTTTTTTTTTTTTTTTTTTTTTTT CP_MONMON   TELAPSE   313179.54 TCPU   311418.73
 DIIS TEST: 0.85256E-07 AT CPHF  CYCLE  13 - DIIS ACTIVE - HISTORY:    13 CYCLES
 CYCLE  13   ALPHA 1225.312306  EPSILON    3.810634  DELTA   -4.5104E-04
 TTTTTTTTTTTTTTTTTTTTTTTTTTTTTT CP_SC       TELAPSE   313249.72 TCPU   311486.42

 *******************************************************************************

 ELECTRIC FIELD APPLIED ALONG CARTESIAN DIRECTION Z

 *******************************************************************************
 THE NUMBER OF SYMMETRY OPERATORS HAS BEEN REDUCED FROM  4 TO  2

 NEW GRID IN RECIPROCAL SPACE
 *******************************************************************************
 POINTS IN THE IBZ                  10 SHRINKING FACTORS               3  3  3
 *******************************************************************************
 *** K POINTS COORDINATES (OBLIQUE COORDINATES IN UNITS OF SHRINK FAC. )
   1-R(  0  0  0)   2-C(  1  0  0)   3-C(  2  0  1)   4-C(  1  1  0)
   5-C(  1  0  1)   6-C(  2  1  0)   7-C(  0  0  2)   8-C(  2  1  1)
   9-C(  2  1  2)  10-C(  2  2  1)

 GCALCO - MAX INDICES DIRECT LATTICE VECTOR    15    15    14
 NO.OF VECTORS CREATED 6999 STARS  490 RMAX   209.06082 BOHR
 TTTTTTTTTTTTTTTTTTTTTTTTTTTTTT gordsh1     TELAPSE   313249.73 TCPU   311486.43

 MATRIX SIZE: P(G) 1795632, F(G)  898476, P(G) IRR  452518, F(G) IRR  452518
 MAX G-VECTOR INDEX FOR 1- AND 2-ELECTRON INTEGRALS  59

 TTTTTTTTTTTTTTTTTTTTTTTTTTTTTT INPUT       TELAPSE   313249.86 TCPU   311486.55
 TTTTTTTTTTTTTTTTTTTTTTTTTTTTTT SYMM        TELAPSE   313249.86 TCPU   311486.55

 ***** NEW REFERENCE GEOMETRY *****
 TTTTTTTTTTTTTTTTTTTTTTTTTTTTTT INT_SCREEN  TELAPSE   313249.87 TCPU   311486.56
 INFORMATION **** EXCBUF **** EXCH. BIPO BUFFER: WORDS USED =           0

 DFT PARAMETERS

     ATOM       ELECTRONS   NET CHARGE   R(ANGSTROM)
   1   1  H       1.0000      0.0000     1.11000000
   5   6  C       6.0000      0.0000     0.77000000
  29   7  N       7.0000      0.0000     0.74000000
  49  17  CL     17.0000      0.0000     0.99000000
  61  30  ZN     30.0000      0.0000     1.37000000

 SIZE OF GRID=     970182
 TTTTTTTTTTTTTTTTTTTTTTTTTTTTTT MAKE_GRID2  TELAPSE   313251.14 TCPU   311487.83
 BECKE WEIGHT FUNCTION
 RADSAFE =     2.00
 TOLERANCES - DENSITY:10**- 6; POTENTIAL:10**- 9; GRID WGT:10**-14

 RADIAL INTEGRATION  - INTERVALS (POINTS,UPPER LIMIT):            1( 75,  4.0*R)

 ANGULAR INTEGRATION - INTERVALS (ACCURACY LEVEL [N. POINTS] UPPER LIMIT):
  1(  4[  86]   0.2)  2(  8[ 194]   0.5)  3( 12[ 350]   0.9)  4( 16[ 974]   3.5)
  5( 12[ 350]9999.0)
 TTTTTTTTTTTTTTTTTTTTTTTTTTTTTT INT_CALC    TELAPSE   313251.22 TCPU   311487.90
 CYCLE   0   ALPHA  993.961684  EPSILON    3.279959  DELTA    9.9396E+02
 TTTTTTTTTTTTTTTTTTTTTTTTTTTTTT MOQGAD      TELAPSE   313926.38 TCPU   312161.17
 TTTTTTTTTTTTTTTTTTTTTTTTTTTTTT CP_MONMON   TELAPSE   313941.76 TCPU   312176.51
 DIIS TEST: 0.13815E+03 AT CPHF  CYCLE   1 - MIX    0 %
 CYCLE   1   ALPHA  400.334319  EPSILON    1.918291  DELTA   -5.9363E+02
 TTTTTTTTTTTTTTTTTTTTTTTTTTTTTT MOQGAD      TELAPSE   314646.85 TCPU   312877.60
 TTTTTTTTTTTTTTTTTTTTTTTTTTTTTT CP_MONMON   TELAPSE   314662.21 TCPU   312892.93
 DIIS TEST: 0.89996E+03 AT CPHF  CYCLE   2 - DIIS ACTIVE - HISTORY:     2 CYCLES
 CYCLE   2   ALPHA  689.661387  EPSILON    2.581952  DELTA    2.8933E+02
 TTTTTTTTTTTTTTTTTTTTTTTTTTTTTT MOQGAD      TELAPSE   315364.63 TCPU   313592.45
 TTTTTTTTTTTTTTTTTTTTTTTTTTTTTT CP_MONMON   TELAPSE   315379.98 TCPU   313607.76
 DIIS TEST: 0.44120E+02 AT CPHF  CYCLE   3 - DIIS ACTIVE - HISTORY:     3 CYCLES
 CYCLE   3   ALPHA  744.383156  EPSILON    2.707474  DELTA    5.4722E+01
 TTTTTTTTTTTTTTTTTTTTTTTTTTTTTT MOQGAD      TELAPSE   316079.72 TCPU   314301.09
 TTTTTTTTTTTTTTTTTTTTTTTTTTTTTT CP_MONMON   TELAPSE   316095.11 TCPU   314316.43
 DIIS TEST: 0.37760E+01 AT CPHF  CYCLE   4 - DIIS ACTIVE - HISTORY:     4 CYCLES
 CYCLE   4   ALPHA  746.952181  EPSILON    2.713366  DELTA    2.5690E+00
 TTTTTTTTTTTTTTTTTTTTTTTTTTTTTT MOQGAD      TELAPSE   316797.28 TCPU   315014.04
 TTTTTTTTTTTTTTTTTTTTTTTTTTTTTT CP_MONMON   TELAPSE   316812.78 TCPU   315029.48
 DIIS TEST: 0.67882E+00 AT CPHF  CYCLE   5 - DIIS ACTIVE - HISTORY:     5 CYCLES
 CYCLE   5   ALPHA  748.282095  EPSILON    2.716417  DELTA    1.3299E+00
 TTTTTTTTTTTTTTTTTTTTTTTTTTTTTT MOQGAD      TELAPSE   317512.71 TCPU   315724.33
 TTTTTTTTTTTTTTTTTTTTTTTTTTTTTT CP_MONMON   TELAPSE   317528.11 TCPU   315739.65
 DIIS TEST: 0.90987E-01 AT CPHF  CYCLE   6 - DIIS ACTIVE - HISTORY:     6 CYCLES
 CYCLE   6   ALPHA  748.766652  EPSILON    2.717528  DELTA    4.8456E-01
 TTTTTTTTTTTTTTTTTTTTTTTTTTTTTT MOQGAD      TELAPSE   318228.18 TCPU   316435.76
 TTTTTTTTTTTTTTTTTTTTTTTTTTTTTT CP_MONMON   TELAPSE   318243.70 TCPU   316451.22
 DIIS TEST: 0.71075E-01 AT CPHF  CYCLE   7 - DIIS ACTIVE - HISTORY:     7 CYCLES
 CYCLE   7   ALPHA  749.090586  EPSILON    2.718272  DELTA    3.2393E-01
 TTTTTTTTTTTTTTTTTTTTTTTTTTTTTT MOQGAD      TELAPSE   318947.21 TCPU   317150.07
 TTTTTTTTTTTTTTTTTTTTTTTTTTTTTT CP_MONMON   TELAPSE   318962.56 TCPU   317165.38
 DIIS TEST: 0.95138E-02 AT CPHF  CYCLE   8 - DIIS ACTIVE - HISTORY:     8 CYCLES
 CYCLE   8   ALPHA  749.203228  EPSILON    2.718530  DELTA    1.1264E-01
 TTTTTTTTTTTTTTTTTTTTTTTTTTTTTT MOQGAD      TELAPSE   319662.37 TCPU   317861.86
 TTTTTTTTTTTTTTTTTTTTTTTTTTTTTT CP_MONMON   TELAPSE   319677.75 TCPU   317877.19
 DIIS TEST: 0.33085E-03 AT CPHF  CYCLE   9 - DIIS ACTIVE - HISTORY:     9 CYCLES
 CYCLE   9   ALPHA  749.195956  EPSILON    2.718513  DELTA   -7.2720E-03
 TTTTTTTTTTTTTTTTTTTTTTTTTTTTTT MOQGAD      TELAPSE   320389.59 TCPU   318584.08
 TTTTTTTTTTTTTTTTTTTTTTTTTTTTTT CP_MONMON   TELAPSE   320404.98 TCPU   318599.41
 DIIS TEST: 0.79202E-04 AT CPHF  CYCLE  10 - DIIS ACTIVE - HISTORY:    10 CYCLES
 CYCLE  10   ALPHA  749.176342  EPSILON    2.718468  DELTA   -1.9613E-02
 TTTTTTTTTTTTTTTTTTTTTTTTTTTTTT MOQGAD      TELAPSE   321106.37 TCPU   319296.48
 TTTTTTTTTTTTTTTTTTTTTTTTTTTTTT CP_MONMON   TELAPSE   321121.73 TCPU   319311.77
 DIIS TEST: 0.15145E-04 AT CPHF  CYCLE  11 - DIIS ACTIVE - HISTORY:    11 CYCLES
 CYCLE  11   ALPHA  749.174372  EPSILON    2.718464  DELTA   -1.9705E-03
 TTTTTTTTTTTTTTTTTTTTTTTTTTTTTT MOQGAD      TELAPSE   321825.12 TCPU   320008.41
 TTTTTTTTTTTTTTTTTTTTTTTTTTTTTT CP_MONMON   TELAPSE   321840.48 TCPU   320023.70
 DIIS TEST: 0.12473E-05 AT CPHF  CYCLE  12 - DIIS ACTIVE - HISTORY:    12 CYCLES
 CYCLE  12   ALPHA  749.170865  EPSILON    2.718456  DELTA   -3.5063E-03
 TTTTTTTTTTTTTTTTTTTTTTTTTTTTTT MOQGAD      TELAPSE   322542.75 TCPU   320715.85
 TTTTTTTTTTTTTTTTTTTTTTTTTTTTTT CP_MONMON   TELAPSE   322558.26 TCPU   320731.28
 DIIS TEST: 0.22469E-06 AT CPHF  CYCLE  13 - DIIS ACTIVE - HISTORY:    13 CYCLES
 CYCLE  13   ALPHA  749.170582  EPSILON    2.718455  DELTA   -2.8351E-04
 TTTTTTTTTTTTTTTTTTTTTTTTTTTTTT CP_SC       TELAPSE   322623.46 TCPU   320793.66

 *******************************************************************************

 POLARIZABILITY (ALPHA), DIELECTRIC (EPSILON) AND FIRST-ORDER ELECTRIC
 SUSCEPTIBILITY (CHI(1)) TENSORS (INDEPENDENT COMPONENTS)

  FR.(eV) COMP.   ALPHA(Re,Im)           EPSILON(Re,Im)                CHI(1)
  1.165   XX    1225.3123       0.0000       3.8106       0.0000       2.8106
  1.165   ZZ     749.1706       0.0000       2.7185       0.0000       1.7185

 DIELECTRIC TENSOR

 TENSOR IN PRINCIPAL AXES SYSTEM
 AA  3.810634E+00 BB  3.810634E+00 CC  2.718455E+00

 REFRACTIVE INDICES 
 AA  1.648774E+00 BB  1.952084E+00 CC  1.952084E+00

 OPTICALLY ANISOTROPIC - UNIAXIAL CRYSTAL

 BIREFRINGENCE =  0.3033 (NEGATIVE) - OBLATE OPTICAL ELLIPSOID

 EPSILON=N**2=1+CHI(1)=1+ALPHA*4*PI/V,   4*PI/V=   0.00229 BOHR**(-3)
 ALPHA IN BOHR**3; EPSILON AND CHI(1) ARE DIMENSIONLESS.
 *******************************************************************************


 GCALCO - MAX INDICES DIRECT LATTICE VECTOR    15    15    14
 NO.OF VECTORS CREATED 6999 STARS  490 RMAX   209.06082 BOHR

 CAPPA:IS1  3;IS2  3;IS3  3; K PTS MONK NET   6; SYMMOPS:K SPACE   8;G SPACE   4

 TTTTTTTTTTTTTTTTTTTTTTTTTTTTTT END         TELAPSE   322623.52 TCPU   320793.67
 EEEEEEEEEE TERMINATION  DATE 12 12 2023 TIME 03:31:47.8
NODE    0 CPU TIME =    320793.666
NODE    1 CPU TIME =    321155.533
NODE    2 CPU TIME =    320415.626
NODE    3 CPU TIME =    320255.198
NODE    4 CPU TIME =    321025.560
NODE    5 CPU TIME =    321154.624
NODE    6 CPU TIME =    320347.781
NODE    7 CPU TIME =    320215.288
NODE    8 CPU TIME =    320936.446
NODE    9 CPU TIME =    321142.546
NODE   10 CPU TIME =    320305.845
NODE   11 CPU TIME =    320170.609
NODE   12 CPU TIME =    320914.862
NODE   13 CPU TIME =    321100.803
NODE   14 CPU TIME =    320203.269
NODE   15 CPU TIME =    320103.270
NODE   16 CPU TIME =    320802.511
NODE   17 CPU TIME =    321098.916
NODE   18 CPU TIME =    320186.243
NODE   19 CPU TIME =    320139.966
NODE   20 CPU TIME =    320828.205
NODE   21 CPU TIME =    321048.803
NODE   22 CPU TIME =    320149.607
NODE   23 CPU TIME =    320070.261
    TOTAL CPU TIME =   7694565.439
trying normal rsh (/usr/bin/rsh)
exec: No such file or directory
trying normal rsh (/usr/bin/rsh)
exec: No such file or directory
trying normal rsh (/usr/bin/rsh)
exec: No such file or directory
trying normal rsh (/usr/bin/rsh)
exec: No such file or directory
