Loading crystal17/1.0.2/intel/19.0
  Loading requirement: intel/19.0 ompi/4.0.1/intel/19.0
 PROCESS            2  OF           24  WORKING
 PROCESS            6  OF           24  WORKING
 PROCESS           11  OF           24  WORKING
 PROCESS            0  OF           24  WORKING
 PROCESS            1  OF           24  WORKING
 PROCESS            4  OF           24  WORKING
 PROCESS            8  OF           24  WORKING
 PROCESS            9  OF           24  WORKING
 PROCESS           10  OF           24  WORKING
 PROCESS           16  OF           24  WORKING
 PROCESS           22  OF           24  WORKING
 PROCESS            3  OF           24  WORKING
 PROCESS            7  OF           24  WORKING
 PROCESS           15  OF           24  WORKING
 PROCESS           19  OF           24  WORKING
 PROCESS           12  OF           24  WORKING
 PROCESS           23  OF           24  WORKING
 PROCESS            5  OF           24  WORKING
 PROCESS           13  OF           24  WORKING
 PROCESS           17  OF           24  WORKING
 PROCESS           20  OF           24  WORKING
 PROCESS           21  OF           24  WORKING
 PROCESS           18  OF           24  WORKING
 PROCESS           14  OF           24  WORKING

         
 *******************************************************************************
 *                                                                             *
 *                               CRYSTAL17                                     *
 *                      public : 1.0.2 - March 1st, 2018                       *
 *                       HTTP://WWW.CRYSTAL.UNITO.IT                           *
 *                                                                             *
 *                              MAIN AUTHORS                                   *
 *                                                                             *
 *  R. DOVESI(1,11), V.R. SAUNDERS(2), C. ROETTI(1,11), R. ORLANDO(1,11),      *
 *  C.M. ZICOVICH-WILSON(1,3), F. PASCALE(4), B. CIVALLERI(1,11),              *
 *  K. DOLL(5), N.M. HARRISON(2,6), I.J. BUSH(7), Ph. D'ARCO(8),               *
 *  M. LLUNELL(9), M. CAUSA'(10), Y. NOEL(8), L. MASCHIO(1,11), A. ERBA(1,11)  *
 *  M. RE'RAT(14), S. CASASSA(1,11)                                            *
 *                                                                             *
 *        CONTRIBUTIONS TO THE CODE HAVE ALSO BEEN GIVEN BY                    *
 *                                                                             *
 *  M. FERRABONE(1,11), M. DE LA PIERRE(1,11), M. FERRERO(1,11),               *
 *  J. BAIMA(1,11), E. ALBANESE(1,11), M.F. PEINTINGER(12), R. BAST(13),       *
 *  B. KIRTMAN(15), V. LACIVITA(1,11), R. DEMICHELIS(1,16)                     *
 *  G. BRANDEBURG(17), S. SALUSTRO(1,11), G. SANSONE(1,11)                     *
 *  M.T. RUGGIERO(18)                                                          *
 *                                                                             *
 * (1) THEORETICAL CHEMISTRY GROUP - UNIVERSITA' DI TORINO - TORINO (ITALY)    *
 * (2) COMPUTATIONAL SCIENCE & ENGINEERING DEPARTMENT - STFC DARESBURY (UK)    *
 * (3) UNIVERSIDAD AUTONOMA DEL ESTADO DE MORELOS - CUERNAVACA (MEXICO)        *
 * (4) UNIVERSITE' DE LORRAINE - NANCY (FRANCE)                                *
 * (5) UNIVERSITAET STUTTGART- STUTTGART (GERMANY)                             *
 * (6) IMPERIAL COLLEGE - LONDON (UK)                                          *
 * (7) OXFORD E-RESEARCH CENTRE - OXFORD (UK)                                  *
 * (8) UPMC - SORBONNE UNIVERSITES - PARIS (FRANCE)                            *
 * (9) UNIVERSIDAD DE BARCELONA - BARCELONA (SPAIN)                            *
 *(10) UNIVERSITA' DI NAPOLI "FEDERICO II" - NAPOLI (ITALY)                    *
 *(11) NIS - NANOSTRUCTURED INTERFACES AND SURFACES - TORINO (ITALY)           *
 *(12) MPI FUER CHEMISCHE ENERGIEKONVERSION - MUELHEIM AN DER RUHR (GERMANY)   *
 *(13) UNIVERSITY OF TROMSO - TROMSO (NORWAY)                                  *
 *(14) UNIVERSITE' DE PAU ET DES PAYS DE L'ADOUR - PAU (FRANCE)                *
 *(15) UNIVERSITY OF CALIFORNIA SANTA BARBARA - SANTA BARBARA (USA)            *
 *(16) CURTIN UNIVERSITY - PERTH (AUSTRALIA)                                   *
 *(17) UNIVERSITY COLLEGE LONDON - LONDON (UK)                                 *
 *(18) CAMBRIDGE UNIVERSITY - CAMBRIDGE (UK)                                   *
 *                                                                             *
 *******************************************************************************
 EEEEEEEEEE STARTING  DATE 03 12 2023 TIME 11:29:03.4
 Z:\home\sanoj\Downloads\tmp_p\newconn.mol                                       

 CRYSTAL CALCULATION
 (INPUT ACCORDING TO THE INTERNATIONAL TABLES FOR X-RAY CRYSTALLOGRAPHY)
 CRYSTAL FAMILY                       :  TETRAGONAL  
 CRYSTAL CLASS  (GROTH - 1921)        :  TETRAGONAL DISPHENOIDAL              

 SPACE GROUP (NONCENTROSYMMETRIC)     :  I -4            

 LATTICE PARAMETERS  (ANGSTROMS AND DEGREES) - CONVENTIONAL CELL
        A           B           C        ALPHA        BETA       GAMMA
    10.71444    10.71444    12.72623    90.00000    90.00000    90.00000


 NUMBER OF IRREDUCIBLE ATOMS IN THE CONVENTIONAL CELL:   17

 INPUT COORDINATES

 ATOM AT. N.              COORDINATES
   1   1     4.759800000000E-01  8.321700000000E-01  4.105300000000E-01
   2   1     1.536600000000E-01  5.099400000000E-01  3.680000000000E-01
   3   1     3.839900000000E-01  4.586300000000E-01  3.830400000000E-01
   4   6     2.774000000000E-01  8.039100000000E-01  3.847600000000E-01
   5   6     2.554800000000E-01 -6.182000000000E-02  3.773700000000E-01
   6   6     1.874200000000E-01  7.087200000000E-01  3.748200000000E-01
   7   6     3.498400000000E-01  5.550100000000E-01  3.850300000000E-01
   8   6     4.018400000000E-01  7.636000000000E-01  3.977900000000E-01
   9   6     7.768200000000E-01  4.162600000000E-01  3.762800000000E-01
  10   7     3.445400000000E-01  1.562000000000E-02  3.375200000000E-01
  11   7     3.017400000000E-01  1.357100000000E-01  3.480400000000E-01
  12   7     1.579000000000E-01  9.150000000000E-03  4.101800000000E-01
  13   7     1.905300000000E-01  1.318400000000E-01  3.913000000000E-01
  14   7     4.379400000000E-01  6.441600000000E-01  3.961400000000E-01
  15  17     3.092000000000E-02  7.441500000000E-01  3.594800000000E-01
  16  30     0.000000000000E+00  5.000000000000E-01  7.500000000000E-01
  17  30     0.000000000000E+00  0.000000000000E+00  5.000000000000E-01

 *******************************************************************************

 << INFORMATION >>: FROM NOW ON, ALL COORDINATES REFER TO THE PRIMITIVE CELL

 *******************************************************************************

 LATTICE PARAMETERS  (ANGSTROMS AND DEGREES) - PRIMITIVE CELL
       A          B          C        ALPHA      BETA     GAMMA        VOLUME
    9.89388    9.89388    9.89388   114.43273 114.43273  99.94780    730.479904

 COORDINATES OF THE EQUIVALENT ATOMS (FRACTIONAL UNITS)

 N. ATOM EQUIV AT. N.          X                  Y                  Z

   1   1   1    1 H     2.42700000000E-01 -1.13490000000E-01  3.08150000000E-01
   2   1   2    1 H    -4.21640000000E-01 -6.54500000000E-02 -3.08150000000E-01
   3   1   3    1 H     1.13490000000E-01  4.21640000000E-01  3.56190000000E-01
   4   1   4    1 H     6.54500000000E-02 -2.42700000000E-01 -3.56190000000E-01

   5   2   1    1 H    -1.22060000000E-01 -4.78340000000E-01 -3.36400000000E-01
   6   2   2    1 H    -1.41940000000E-01  2.14340000000E-01  3.36400000000E-01
   7   2   3    1 H     4.78340000000E-01  1.41940000000E-01  3.56280000000E-01
   8   2   4    1 H    -2.14340000000E-01  1.22060000000E-01 -3.56280000000E-01

   9   3   1    1 H    -1.58330000000E-01 -2.32970000000E-01 -1.57380000000E-01
  10   3   2    1 H    -7.55900000000E-02 -9.50000000000E-04  1.57380000000E-01
  11   3   3    1 H     2.32970000000E-01  7.55900000000E-02  7.46400000000E-02
  12   3   4    1 H     9.50000000000E-04  1.58330000000E-01 -7.46400000000E-02

  13   4   1    6 C     1.88670000000E-01 -3.37840000000E-01  8.13100000000E-02
  14   4   2    6 C    -4.19150000000E-01  1.07360000000E-01 -8.13100000000E-02
  15   4   3    6 C     3.37840000000E-01  4.19150000000E-01 -4.73490000000E-01
  16   4   4    6 C    -1.07360000000E-01 -1.88670000000E-01  4.73490000000E-01

  17   5   1    6 C     3.15550000000E-01 -3.67150000000E-01  1.93660000000E-01
  18   5   2    6 C     4.39190000000E-01  1.21890000000E-01 -1.93660000000E-01
  19   5   3    6 C     3.67150000000E-01 -4.39190000000E-01 -3.17300000000E-01
  20   5   4    6 C    -1.21890000000E-01 -3.15550000000E-01  3.17300000000E-01

  21   6   1    6 C     8.35400000000E-02 -4.37760000000E-01 -1.03860000000E-01
  22   6   2    6 C    -3.33900000000E-01  1.87400000000E-01  1.03860000000E-01
  23   6   3    6 C     4.37760000000E-01  3.33900000000E-01 -4.78700000000E-01
  24   6   4    6 C    -1.87400000000E-01 -8.35400000000E-02  4.78700000000E-01

  25   7   1    6 C    -5.99600000000E-02 -2.65130000000E-01 -9.51500000000E-02
  26   7   2    6 C    -1.69980000000E-01  3.51900000000E-02  9.51500000000E-02
  27   7   3    6 C     2.65130000000E-01  1.69980000000E-01  2.05170000000E-01
  28   7   4    6 C    -3.51900000000E-02  5.99600000000E-02 -2.05170000000E-01

  29   8   1    6 C     1.61390000000E-01 -2.00370000000E-01  1.65440000000E-01
  30   8   2    6 C    -3.65810000000E-01 -4.05000000000E-03 -1.65440000000E-01
  31   8   3    6 C     2.00370000000E-01  3.65810000000E-01  3.61760000000E-01
  32   8   4    6 C     4.05000000000E-03 -1.61390000000E-01 -3.61760000000E-01

  33   9   1    6 C    -2.07460000000E-01  1.53100000000E-01  1.93080000000E-01
  34   9   2    6 C    -3.99800000000E-02 -4.00540000000E-01 -1.93080000000E-01
  35   9   3    6 C    -1.53100000000E-01  3.99800000000E-02 -3.60560000000E-01
  36   9   4    6 C     4.00540000000E-01  2.07460000000E-01  3.60560000000E-01

  37  10   1    7 N     3.53140000000E-01 -3.17940000000E-01  3.60160000000E-01
  38  10   2    7 N     3.21900000000E-01 -7.02000000000E-03 -3.60160000000E-01
  39  10   3    7 N     3.17940000000E-01 -3.21900000000E-01 -3.28920000000E-01
  40  10   4    7 N     7.02000000000E-03 -3.53140000000E-01  3.28920000000E-01

  41  11   1    7 N     4.83750000000E-01 -3.50220000000E-01  4.37450000000E-01
  42  11   2    7 N     2.12330000000E-01  4.63000000000E-02 -4.37450000000E-01
  43  11   3    7 N     3.50220000000E-01 -2.12330000000E-01 -1.66030000000E-01
  44  11   4    7 N    -4.63000000000E-02 -4.83750000000E-01  1.66030000000E-01

  45  12   1    7 N     4.19330000000E-01 -4.31920000000E-01  1.67050000000E-01
  46  12   2    7 N     4.01030000000E-01  2.52280000000E-01 -1.67050000000E-01
  47  12   3    7 N     4.31920000000E-01 -4.01030000000E-01 -1.48750000000E-01
  48  12   4    7 N    -2.52280000000E-01 -4.19330000000E-01  1.48750000000E-01

  49  13   1    7 N    -4.76860000000E-01 -4.18170000000E-01  3.22370000000E-01
  50  13   2    7 N     2.59460000000E-01  2.00770000000E-01 -3.22370000000E-01
  51  13   3    7 N     4.18170000000E-01 -2.59460000000E-01 -5.86900000000E-02
  52  13   4    7 N    -2.00770000000E-01  4.76860000000E-01  5.86900000000E-02

  53  14   1    7 N     4.03000000000E-02 -1.65920000000E-01  8.21000000000E-02
  54  14   2    7 N    -2.48020000000E-01 -4.18000000000E-02 -8.21000000000E-02
  55  14   3    7 N     1.65920000000E-01  2.48020000000E-01  2.06220000000E-01
  56  14   4    7 N     4.18000000000E-02 -4.03000000000E-02 -2.06220000000E-01

  57  15   1   17 CL    1.03630000000E-01  3.90400000000E-01 -2.24930000000E-01
  58  15   2   17 CL   -3.84670000000E-01  3.28560000000E-01  2.24930000000E-01
  59  15   3   17 CL   -3.90400000000E-01  3.84670000000E-01 -2.86770000000E-01
  60  15   4   17 CL   -3.28560000000E-01 -1.03630000000E-01  2.86770000000E-01

  61  16   1   30 ZN    2.50000000000E-01 -2.50000000000E-01 -5.00000000000E-01

  62  17   1   30 ZN   -5.00000000000E-01 -5.00000000000E-01  0.00000000000E+00

 NUMBER OF SYMMETRY OPERATORS         :    4
 *******************************************************************************
 * GEOMETRY EDITING - INPUT COORDINATES ARE GIVEN IN ANGSTROM         
 *******************************************************************************

 GEOMETRY NOW FULLY CONSISTENT WITH THE GROUP

 GCALCO - MAX INDICES DIRECT LATTICE VECTOR    14    14    16
 NO.OF VECTORS CREATED 6999 STARS  487 RMAX   202.74626 BOHR

 GEOMETRY FOR WAVE FUNCTION - DIMENSIONALITY OF THE SYSTEM    3
 (NON PERIODIC DIRECTION: LATTICE PARAMETER FORMALLY SET TO 500)
 *******************************************************************************
 LATTICE PARAMETERS (ANGSTROMS AND DEGREES) - BOHR = 0.5291772083 ANGSTROM
 PRIMITIVE CELL - CENTRING CODE 6/0 VOLUME=   730.479904 - DENSITY  1.927 g/cm^3
         A              B              C           ALPHA      BETA       GAMMA 
     9.89387572     9.89387572     9.89387572   114.432730 114.432730  99.947796
 *******************************************************************************
 ATOMS IN THE ASYMMETRIC UNIT   17 - ATOMS IN THE UNIT CELL:   62
     ATOM                 X/A                 Y/B                 Z/C    
 *******************************************************************************
      1 T   1 H     2.427000000000E-01 -1.134900000000E-01  3.081500000000E-01
      2 F   1 H    -4.216400000000E-01 -6.545000000000E-02 -3.081500000000E-01
      3 F   1 H     1.134900000000E-01  4.216400000000E-01  3.561900000000E-01
      4 F   1 H     6.545000000000E-02 -2.427000000000E-01 -3.561900000000E-01
      5 T   1 H    -1.220600000000E-01 -4.783400000000E-01 -3.364000000000E-01
      6 F   1 H    -1.419400000000E-01  2.143400000000E-01  3.364000000000E-01
      7 F   1 H     4.783400000000E-01  1.419400000000E-01  3.562800000000E-01
      8 F   1 H    -2.143400000000E-01  1.220600000000E-01 -3.562800000000E-01
      9 T   1 H    -1.583300000000E-01 -2.329700000000E-01 -1.573800000000E-01
     10 F   1 H    -7.559000000000E-02 -9.500000000000E-04  1.573800000000E-01
     11 F   1 H     2.329700000000E-01  7.559000000000E-02  7.464000000000E-02
     12 F   1 H     9.500000000000E-04  1.583300000000E-01 -7.464000000000E-02
     13 T   6 C     1.886700000000E-01 -3.378400000000E-01  8.131000000000E-02
     14 F   6 C    -4.191500000000E-01  1.073600000000E-01 -8.131000000000E-02
     15 F   6 C     3.378400000000E-01  4.191500000000E-01 -4.734900000000E-01
     16 F   6 C    -1.073600000000E-01 -1.886700000000E-01  4.734900000000E-01
     17 T   6 C     3.155500000000E-01 -3.671500000000E-01  1.936600000000E-01
     18 F   6 C     4.391900000000E-01  1.218900000000E-01 -1.936600000000E-01
     19 F   6 C     3.671500000000E-01 -4.391900000000E-01 -3.173000000000E-01
     20 F   6 C    -1.218900000000E-01 -3.155500000000E-01  3.173000000000E-01
     21 T   6 C     8.354000000000E-02 -4.377600000000E-01 -1.038600000000E-01
     22 F   6 C    -3.339000000000E-01  1.874000000000E-01  1.038600000000E-01
     23 F   6 C     4.377600000000E-01  3.339000000000E-01 -4.787000000000E-01
     24 F   6 C    -1.874000000000E-01 -8.354000000000E-02  4.787000000000E-01
     25 T   6 C    -5.996000000000E-02 -2.651300000000E-01 -9.515000000000E-02
     26 F   6 C    -1.699800000000E-01  3.519000000000E-02  9.515000000000E-02
     27 F   6 C     2.651300000000E-01  1.699800000000E-01  2.051700000000E-01
     28 F   6 C    -3.519000000000E-02  5.996000000000E-02 -2.051700000000E-01
     29 T   6 C     1.613900000000E-01 -2.003700000000E-01  1.654400000000E-01
     30 F   6 C    -3.658100000000E-01 -4.050000000000E-03 -1.654400000000E-01
     31 F   6 C     2.003700000000E-01  3.658100000000E-01  3.617600000000E-01
     32 F   6 C     4.050000000000E-03 -1.613900000000E-01 -3.617600000000E-01
     33 T   6 C    -2.074600000000E-01  1.531000000000E-01  1.930800000000E-01
     34 F   6 C    -3.998000000000E-02 -4.005400000000E-01 -1.930800000000E-01
     35 F   6 C    -1.531000000000E-01  3.998000000000E-02 -3.605600000000E-01
     36 F   6 C     4.005400000000E-01  2.074600000000E-01  3.605600000000E-01
     37 T   7 N     3.531400000000E-01 -3.179400000000E-01  3.601600000000E-01
     38 F   7 N     3.219000000000E-01 -7.020000000000E-03 -3.601600000000E-01
     39 F   7 N     3.179400000000E-01 -3.219000000000E-01 -3.289200000000E-01
     40 F   7 N     7.020000000000E-03 -3.531400000000E-01  3.289200000000E-01
     41 T   7 N     4.837500000000E-01 -3.502200000000E-01  4.374500000000E-01
     42 F   7 N     2.123300000000E-01  4.630000000000E-02 -4.374500000000E-01
     43 F   7 N     3.502200000000E-01 -2.123300000000E-01 -1.660300000000E-01
     44 F   7 N    -4.630000000000E-02 -4.837500000000E-01  1.660300000000E-01
     45 T   7 N     4.193300000000E-01 -4.319200000000E-01  1.670500000000E-01
     46 F   7 N     4.010300000000E-01  2.522800000000E-01 -1.670500000000E-01
     47 F   7 N     4.319200000000E-01 -4.010300000000E-01 -1.487500000000E-01
     48 F   7 N    -2.522800000000E-01 -4.193300000000E-01  1.487500000000E-01
     49 T   7 N    -4.768600000000E-01 -4.181700000000E-01  3.223700000000E-01
     50 F   7 N     2.594600000000E-01  2.007700000000E-01 -3.223700000000E-01
     51 F   7 N     4.181700000000E-01 -2.594600000000E-01 -5.869000000000E-02
     52 F   7 N    -2.007700000000E-01  4.768600000000E-01  5.869000000000E-02
     53 T   7 N     4.030000000000E-02 -1.659200000000E-01  8.210000000000E-02
     54 F   7 N    -2.480200000000E-01 -4.180000000000E-02 -8.210000000000E-02
     55 F   7 N     1.659200000000E-01  2.480200000000E-01  2.062200000000E-01
     56 F   7 N     4.180000000000E-02 -4.030000000000E-02 -2.062200000000E-01
     57 T  17 CL    1.036300000000E-01  3.904000000000E-01 -2.249300000000E-01
     58 F  17 CL   -3.846700000000E-01  3.285600000000E-01  2.249300000000E-01
     59 F  17 CL   -3.904000000000E-01  3.846700000000E-01 -2.867700000000E-01
     60 F  17 CL   -3.285600000000E-01 -1.036300000000E-01  2.867700000000E-01
     61 T  30 ZN    2.500000000000E-01 -2.500000000000E-01  5.000000000000E-01
     62 T  30 ZN   -5.000000000000E-01  5.000000000000E-01  0.000000000000E+00

 TRANSFORMATION MATRIX PRIMITIVE-CRYSTALLOGRAPHIC CELL
  0.0000  1.0000  1.0000  1.0000  0.0000  1.0000  1.0000  1.0000  0.0000

 *******************************************************************************
 CRYSTALLOGRAPHIC CELL (VOLUME=       1460.95980890)
         A              B              C           ALPHA      BETA       GAMMA 
    10.71443621    10.71443621    12.72622571    90.000000  90.000000  90.000000

 COORDINATES IN THE CRYSTALLOGRAPHIC CELL
     ATOM                 X/A                 Y/B                 Z/C    
 *******************************************************************************
      1 T   1 H    -2.402000000000E-02  3.321700000000E-01 -8.947000000000E-02
      2 F   1 H     2.402000000000E-02 -3.321700000000E-01 -8.947000000000E-02
      3 F   1 H     3.321700000000E-01  2.402000000000E-02  8.947000000000E-02
      4 F   1 H    -3.321700000000E-01 -2.402000000000E-02  8.947000000000E-02
      5 T   1 H    -3.463400000000E-01  9.940000000000E-03 -1.320000000000E-01
      6 F   1 H     3.463400000000E-01 -9.940000000000E-03 -1.320000000000E-01
      7 F   1 H     9.940000000000E-03  3.463400000000E-01  1.320000000000E-01
      8 F   1 H    -9.940000000000E-03 -3.463400000000E-01  1.320000000000E-01
      9 T   1 H    -1.160100000000E-01 -4.137000000000E-02 -1.169600000000E-01
     10 F   1 H     1.160100000000E-01  4.137000000000E-02 -1.169600000000E-01
     11 F   1 H    -4.137000000000E-02  1.160100000000E-01  1.169600000000E-01
     12 F   1 H     4.137000000000E-02 -1.160100000000E-01  1.169600000000E-01
     13 T   6 C    -2.226000000000E-01  3.039100000000E-01 -1.152400000000E-01
     14 F   6 C     2.226000000000E-01 -3.039100000000E-01 -1.152400000000E-01
     15 F   6 C     3.039100000000E-01  2.226000000000E-01  1.152400000000E-01
     16 F   6 C    -3.039100000000E-01 -2.226000000000E-01  1.152400000000E-01
     17 T   6 C     2.554800000000E-01 -6.182000000000E-02  3.773700000000E-01
     18 F   6 C    -2.554800000000E-01  6.182000000000E-02  3.773700000000E-01
     19 F   6 C    -6.182000000000E-02 -2.554800000000E-01 -3.773700000000E-01
     20 F   6 C     6.182000000000E-02  2.554800000000E-01 -3.773700000000E-01
     21 T   6 C    -3.125800000000E-01  2.087200000000E-01 -1.251800000000E-01
     22 F   6 C     3.125800000000E-01 -2.087200000000E-01 -1.251800000000E-01
     23 F   6 C     2.087200000000E-01  3.125800000000E-01  1.251800000000E-01
     24 F   6 C    -2.087200000000E-01 -3.125800000000E-01  1.251800000000E-01
     25 T   6 C    -1.501600000000E-01  5.501000000000E-02 -1.149700000000E-01
     26 F   6 C     1.501600000000E-01 -5.501000000000E-02 -1.149700000000E-01
     27 F   6 C     5.501000000000E-02  1.501600000000E-01  1.149700000000E-01
     28 F   6 C    -5.501000000000E-02 -1.501600000000E-01  1.149700000000E-01
     29 T   6 C    -9.816000000000E-02  2.636000000000E-01 -1.022100000000E-01
     30 F   6 C     9.816000000000E-02 -2.636000000000E-01 -1.022100000000E-01
     31 F   6 C     2.636000000000E-01  9.816000000000E-02  1.022100000000E-01
     32 F   6 C    -2.636000000000E-01 -9.816000000000E-02  1.022100000000E-01
     33 T   6 C     2.768200000000E-01 -8.374000000000E-02 -1.237200000000E-01
     34 F   6 C    -2.768200000000E-01  8.374000000000E-02 -1.237200000000E-01
     35 F   6 C    -8.374000000000E-02 -2.768200000000E-01  1.237200000000E-01
     36 F   6 C     8.374000000000E-02  2.768200000000E-01  1.237200000000E-01
     37 T   7 N     3.445400000000E-01  1.562000000000E-02  3.375200000000E-01
     38 F   7 N    -3.445400000000E-01 -1.562000000000E-02  3.375200000000E-01
     39 F   7 N     1.562000000000E-02 -3.445400000000E-01 -3.375200000000E-01
     40 F   7 N    -1.562000000000E-02  3.445400000000E-01 -3.375200000000E-01
     41 T   7 N    -1.982600000000E-01 -3.642900000000E-01 -1.519600000000E-01
     42 F   7 N     1.982600000000E-01  3.642900000000E-01 -1.519600000000E-01
     43 F   7 N    -3.642900000000E-01  1.982600000000E-01  1.519600000000E-01
     44 F   7 N     3.642900000000E-01 -1.982600000000E-01  1.519600000000E-01
     45 T   7 N     1.579000000000E-01  9.150000000000E-03  4.101800000000E-01
     46 F   7 N    -1.579000000000E-01 -9.150000000000E-03  4.101800000000E-01
     47 F   7 N     9.150000000000E-03 -1.579000000000E-01 -4.101800000000E-01
     48 F   7 N    -9.150000000000E-03  1.579000000000E-01 -4.101800000000E-01
     49 T   7 N    -3.094700000000E-01 -3.681600000000E-01 -1.087000000000E-01
     50 F   7 N     3.094700000000E-01  3.681600000000E-01 -1.087000000000E-01
     51 F   7 N    -3.681600000000E-01  3.094700000000E-01  1.087000000000E-01
     52 F   7 N     3.681600000000E-01 -3.094700000000E-01  1.087000000000E-01
     53 T   7 N    -6.206000000000E-02  1.441600000000E-01 -1.038600000000E-01
     54 F   7 N     6.206000000000E-02 -1.441600000000E-01 -1.038600000000E-01
     55 F   7 N     1.441600000000E-01  6.206000000000E-02  1.038600000000E-01
     56 F   7 N    -1.441600000000E-01 -6.206000000000E-02  1.038600000000E-01
     57 T  17 CL    3.092000000000E-02 -2.558500000000E-01  3.594800000000E-01
     58 F  17 CL   -3.092000000000E-02  2.558500000000E-01  3.594800000000E-01
     59 F  17 CL   -2.558500000000E-01 -3.092000000000E-02 -3.594800000000E-01
     60 F  17 CL    2.558500000000E-01  3.092000000000E-02 -3.594800000000E-01
     61 T  30 ZN   -5.000000000000E-01  0.000000000000E+00  2.500000000000E-01
     62 T  30 ZN    0.000000000000E+00  0.000000000000E+00  5.000000000000E-01

 T = ATOM BELONGING TO THE ASYMMETRIC UNIT

 ****    4 SYMMOPS - TRANSLATORS IN FRACTIONAL UNITS
 **** MATRICES AND TRANSLATORS IN THE CRYSTALLOGRAPHIC REFERENCE FRAME
   V INV                    ROTATION MATRICES                   TRANSLATORS
   1   1  1.00  0.00  0.00  0.00  1.00  0.00  0.00  0.00  1.00  0.00  0.00  0.00
   2   2  0.00  1.00 -1.00  1.00  0.00 -1.00 -0.00  0.00 -1.00  0.00  0.00  0.00
   3   4 -0.00 -1.00  0.00  0.00 -1.00  1.00  1.00 -1.00  0.00  0.00  0.00  0.00
   4   3 -1.00 -0.00  1.00 -1.00  0.00  0.00 -1.00  1.00 -0.00  0.00  0.00  0.00

 DIRECT LATTICE VECTORS CARTESIAN COMPONENTS (ANGSTROM)
          X                    Y                    Z
  -0.535721810585E+01   0.535721810585E+01   0.636311285285E+01
   0.535721810585E+01  -0.535721810585E+01   0.636311285285E+01
   0.535721810585E+01   0.535721810585E+01  -0.636311285285E+01


 CARTESIAN COORDINATES - PRIMITIVE CELL
 *******************************************************************************
 *      ATOM          X(ANGSTROM)         Y(ANGSTROM)         Z(ANGSTROM)
 *******************************************************************************
    1     1 H    -2.573607578050E-01  3.559014276440E+00 -1.138615413889E+00
    2     1 H     2.573607578050E-01 -3.559014276440E+00 -1.138615413889E+00
    3     1 H     3.559014276440E+00  2.573607578050E-01  1.138615413889E+00
    4     1 H    -3.559014276440E+00 -2.573607578050E-01  1.138615413889E+00
    5     1 H    -3.710837837560E+00  1.065014959443E-01 -1.679861793152E+00
    6     1 H     3.710837837560E+00 -1.065014959443E-01 -1.679861793152E+00
    7     1 H     1.065014959443E-01  3.710837837560E+00  1.679861793152E+00
    8     1 H    -1.065014959443E-01 -3.710837837560E+00  1.679861793152E+00
    9     1 H    -1.242981744919E+00 -4.432562260780E-01 -1.488459358539E+00
   10     1 H     1.242981744919E+00  4.432562260780E-01 -1.488459358539E+00
   11     1 H    -4.432562260780E-01  1.242981744919E+00  1.488459358539E+00
   12     1 H     4.432562260780E-01 -1.242981744919E+00  1.488459358539E+00
   13     6 C    -2.385033500724E+00  3.256224309098E+00 -1.466570250325E+00
   14     6 C     2.385033500724E+00 -3.256224309098E+00 -1.466570250325E+00
   15     6 C     3.256224309098E+00  2.385033500724E+00  1.466570250325E+00
   16     6 C    -3.256224309098E+00 -2.385033500724E+00  1.466570250325E+00
   17     6 C     2.737324163365E+00 -6.623664466073E-01  4.802495794560E+00
   18     6 C    -2.737324163365E+00  6.623664466073E-01  4.802495794560E+00
   19     6 C    -6.623664466073E-01 -2.737324163365E+00 -4.802495794560E+00
   20     6 C     6.623664466073E-01  2.737324163365E+00 -4.802495794560E+00
   21     6 C    -3.349118471053E+00  2.236317126106E+00 -1.593068933840E+00
   22     6 C     3.349118471053E+00 -2.236317126106E+00 -1.593068933840E+00
   23     6 C     2.236317126106E+00  3.349118471053E+00  1.593068933840E+00
   24     6 C    -2.236317126106E+00 -3.349118471053E+00  1.593068933840E+00
   25     6 C    -1.608879741549E+00  5.894011360056E-01 -1.463134169384E+00
   26     6 C     1.608879741549E+00 -5.894011360056E-01 -1.463134169384E+00
   27     6 C     5.894011360056E-01  1.608879741549E+00  1.463134169384E+00
   28     6 C    -5.894011360056E-01 -1.608879741549E+00  1.463134169384E+00
   29     6 C    -1.051729058540E+00  2.824325385404E+00 -1.300747529380E+00
   30     6 C     1.051729058540E+00 -2.824325385404E+00 -1.300747529380E+00
   31     6 C     2.824325385404E+00  1.051729058540E+00  1.300747529380E+00
   32     6 C    -2.824325385404E+00 -1.051729058540E+00  1.300747529380E+00
   33     6 C     2.965970232123E+00 -8.972268883678E-01 -1.574488644309E+00
   34     6 C    -2.965970232123E+00  8.972268883678E-01 -1.574488644309E+00
   35     6 C    -8.972268883678E-01 -2.965970232123E+00  1.574488644309E+00
   36     6 C     8.972268883678E-01  2.965970232123E+00  1.574488644309E+00
   37     7 N     3.691551852379E+00  1.673594936268E-01  4.295355700188E+00
   38     7 N    -3.691551852379E+00 -1.673594936268E-01  4.295355700188E+00
   39     7 N     1.673594936268E-01 -3.691551852379E+00 -4.295355700188E+00
   40     7 N    -1.673594936268E-01  3.691551852379E+00 -4.295355700188E+00
   41     7 N    -2.124244123332E+00 -3.903161967560E+00 -1.933877258238E+00
   42     7 N     2.124244123332E+00  3.903161967560E+00 -1.933877258238E+00
   43     7 N    -3.903161967560E+00  2.124244123332E+00  1.933877258238E+00
   44     7 N     3.903161967560E+00 -2.124244123332E+00  1.933877258238E+00
   45     7 N     1.691809477827E+00  9.803709133706E-02  5.220043259964E+00
   46     7 N    -1.691809477827E+00 -9.803709133705E-02  5.220043259964E+00
   47     7 N     9.803709133706E-02 -1.691809477827E+00 -5.220043259964E+00
   48     7 N    -9.803709133705E-02  1.691809477827E+00 -5.220043259964E+00
   49     7 N    -3.315796574435E+00 -3.944626835699E+00 -1.383340734210E+00
   50     7 N     3.315796574435E+00  3.944626835699E+00 -1.383340734210E+00
   51     7 N    -3.944626835699E+00  3.315796574435E+00  1.383340734210E+00
   52     7 N     3.944626835699E+00 -3.315796574435E+00  1.383340734210E+00
   53     7 N    -6.649379112981E-01  1.544593124279E+00 -1.321745801794E+00
   54     7 N     6.649379112981E-01 -1.544593124279E+00 -1.321745801794E+00
   55     7 N     1.544593124279E+00  6.649379112981E-01  1.321745801794E+00
   56     7 N    -1.544593124279E+00 -6.649379112981E-01  1.321745801794E+00
   57    17 CL    3.312903676658E-01 -2.741288504763E+00  4.574823616685E+00
   58    17 CL   -3.312903676658E-01  2.741288504763E+00  4.574823616685E+00
   59    17 CL   -2.741288504763E+00 -3.312903676658E-01 -4.574823616685E+00
   60    17 CL    2.741288504763E+00  3.312903676658E-01 -4.574823616685E+00
   61    30 ZN    5.357218105850E+00  0.000000000000E+00 -9.544669279275E+00
   62    30 ZN    0.000000000000E+00  0.000000000000E+00  6.363112852850E+00

 *******************************************************************************
 STARTING BASIS SET HANDLING 
 *******************************************************************************

 Loading internal basis set: POB-DZVPP           

 Please cite in your publication:
 Peintinger, M. F., Oliveira, D. V. and Bredow, T. (2013), Generally applicable 
 solid-state Gaussian basis sets, in preparation                                
                                                                                
                    

 *******************************************************************************
 LOCAL ATOMIC FUNCTIONS BASIS SET
 *******************************************************************************
   ATOM   X(AU)   Y(AU)   Z(AU)  N. TYPE  EXPONENT  S COEF   P COEF   D/F/G COEF
 *******************************************************************************
   1 H   -0.486   6.726  -2.152
                                  1 S  
                                         2.263E+01 1.441E-02 0.000E+00 0.000E+00
                                         3.236E+00 1.072E-01 0.000E+00 0.000E+00
                                         7.304E-01 3.846E-01 0.000E+00 0.000E+00
                                  2 S  
                                         1.417E-01 1.000E+00 0.000E+00 0.000E+00
                           3-     5 P  
                                         3.944E-01 0.000E+00 1.000E+00 0.000E+00
                           6-     8 P  
                                         1.006E-01 0.000E+00 1.000E+00 0.000E+00
   2 H    0.486  -6.726  -2.152
   3 H    6.726   0.486   2.152
   4 H   -6.726  -0.486   2.152
   5 H   -7.012   0.201  -3.174
   6 H    7.012  -0.201  -3.174
   7 H    0.201   7.012   3.174
   8 H   -0.201  -7.012   3.174
   9 H   -2.349  -0.838  -2.813
  10 H    2.349   0.838  -2.813
  11 H   -0.838   2.349   2.813
  12 H    0.838  -2.349   2.813
  13 C   -4.507   6.153  -2.771
                                 97 S  
                                         1.238E+03 5.457E-03 0.000E+00 0.000E+00
                                         1.863E+02 4.064E-02 0.000E+00 0.000E+00
                                         4.225E+01 1.803E-01 0.000E+00 0.000E+00
                                         1.168E+01 4.632E-01 0.000E+00 0.000E+00
                                         3.593E+00 4.409E-01 0.000E+00 0.000E+00
                                 98 S  
                                         5.281E+00 1.000E+00 0.000E+00 0.000E+00
                                 99 S  
                                         4.447E-01 1.000E+00 0.000E+00 0.000E+00
                         100-   102 P  
                                         9.468E+00 0.000E+00 3.839E-02 0.000E+00
                                         2.010E+00 0.000E+00 2.112E-01 0.000E+00
                                         5.477E-01 0.000E+00 5.133E-01 0.000E+00
                         103-   105 P  
                                         1.604E-01 0.000E+00 1.000E+00 0.000E+00
                         106-   110 D  
                                         6.070E-01 0.000E+00 0.000E+00 1.000E+00
                         111-   115 D  
                                         2.939E-01 0.000E+00 0.000E+00 1.000E+00
  14 C    4.507  -6.153  -2.771
  15 C    6.153   4.507   2.771
  16 C   -6.153  -4.507   2.771
  17 C    5.173  -1.252   9.075
  18 C   -5.173   1.252   9.075
  19 C   -1.252  -5.173  -9.075
  20 C    1.252   5.173  -9.075
  21 C   -6.329   4.226  -3.010
  22 C    6.329  -4.226  -3.010
  23 C    4.226   6.329   3.010
  24 C   -4.226  -6.329   3.010
  25 C   -3.040   1.114  -2.765
  26 C    3.040  -1.114  -2.765
  27 C    1.114   3.040   2.765
  28 C   -1.114  -3.040   2.765
  29 C   -1.987   5.337  -2.458
  30 C    1.987  -5.337  -2.458
  31 C    5.337   1.987   2.458
  32 C   -5.337  -1.987   2.458
  33 C    5.605  -1.696  -2.975
  34 C   -5.605   1.696  -2.975
  35 C   -1.696  -5.605   2.975
  36 C    1.696   5.605   2.975
  37 N    6.976   0.316   8.117
                                553 S  
                                         1.713E+03-5.393E-03 0.000E+00 0.000E+00
                                         2.576E+02-4.022E-02 0.000E+00 0.000E+00
                                         5.846E+01-1.793E-01 0.000E+00 0.000E+00
                                         1.620E+01-4.638E-01 0.000E+00 0.000E+00
                                         5.005E+00-4.417E-01 0.000E+00 0.000E+00
                                554 S  
                                         6.217E-01 1.000E+00 0.000E+00 0.000E+00
                                555 S  
                                         2.921E-01 1.000E+00 0.000E+00 0.000E+00
                         556-   558 P  
                                         1.357E+01 0.000E+00-4.007E-02 0.000E+00
                                         2.926E+00 0.000E+00-2.181E-01 0.000E+00
                                         7.993E-01 0.000E+00-5.129E-01 0.000E+00
                         559-   561 P  
                                         2.244E-01 0.000E+00 1.000E+00 0.000E+00
                         562-   566 D  
                                         3.118E-01 0.000E+00 0.000E+00 1.000E+00
  38 N   -6.976  -0.316   8.117
  39 N    0.316  -6.976  -8.117
  40 N   -0.316   6.976  -8.117
  41 N   -4.014  -7.376  -3.654
  42 N    4.014   7.376  -3.654
  43 N   -7.376   4.014   3.654
  44 N    7.376  -4.014   3.654
  45 N    3.197   0.185   9.864
  46 N   -3.197  -0.185   9.864
  47 N    0.185  -3.197  -9.864
  48 N   -0.185   3.197  -9.864
  49 N   -6.266  -7.454  -2.614
  50 N    6.266   7.454  -2.614
  51 N   -7.454   6.266   2.614
  52 N    7.454  -6.266   2.614
  53 N   -1.257   2.919  -2.498
  54 N    1.257  -2.919  -2.498
  55 N    2.919   1.257   2.498
  56 N   -2.919  -1.257   2.498
  57 CL   0.626  -5.180   8.645
                                833 S  
                                         1.045E+04 1.971E-03 0.000E+00 0.000E+00
                                         1.572E+03 1.475E-02 0.000E+00 0.000E+00
                                         3.571E+02 6.668E-02 0.000E+00 0.000E+00
                                         1.003E+02 1.723E-01 0.000E+00 0.000E+00
                                         3.081E+01 1.588E-01 0.000E+00 0.000E+00
                                834 S  
                                         5.192E+01-1.001E-01 0.000E+00 0.000E+00
                                         5.705E+00 6.084E-01 0.000E+00 0.000E+00
                                         2.351E+00 5.435E-01 0.000E+00 0.000E+00
                                835 S  
                                         4.886E-01 1.000E+00 0.000E+00 0.000E+00
                                836 S  
                                         1.984E-01 1.000E+00 0.000E+00 0.000E+00
                         837-   839 P  
                                         3.077E+02 0.000E+00-8.780E-03 0.000E+00
                                         7.210E+01 0.000E+00-6.356E-02 0.000E+00
                                         2.253E+01 0.000E+00-2.402E-01 0.000E+00
                                         7.899E+00 0.000E+00-4.780E-01 0.000E+00
                                         2.877E+00 0.000E+00-3.852E-01 0.000E+00
                         840-   842 P  
                                         9.483E-01 0.000E+00 1.000E+00 0.000E+00
                         843-   845 P  
                                         2.521E-01 0.000E+00 1.000E+00 0.000E+00
                         846-   850 D  
                                         9.722E-01 0.000E+00 0.000E+00 1.000E+00
                         851-   855 D  
                                         2.060E-01 0.000E+00 0.000E+00 1.000E+00
  58 CL  -0.626   5.180   8.645
  59 CL  -5.180  -0.626  -8.645
  60 CL   5.180   0.626  -8.645
  61 ZN  10.124   0.000 -18.037
                                925 S  
                                         8.200E+04 1.421E-03 0.000E+00 0.000E+00
                                         1.231E+04 1.089E-02 0.000E+00 0.000E+00
                                         2.801E+03 5.406E-02 0.000E+00 0.000E+00
                                         7.910E+02 1.885E-01 0.000E+00 0.000E+00
                                         2.576E+02 3.835E-01 0.000E+00 0.000E+00
                                         8.881E+01 2.972E-01 0.000E+00 0.000E+00
                                926 S  
                                         1.719E+02-1.105E-01 0.000E+00 0.000E+00
                                         2.030E+01 6.461E-01 0.000E+00 0.000E+00
                                         8.346E+00 4.422E-01 0.000E+00 0.000E+00
                                927 S  
                                         1.485E+01-2.271E-01 0.000E+00 0.000E+00
                                         2.450E+00 7.243E-01 0.000E+00 0.000E+00
                                         9.985E-01 4.484E-01 0.000E+00 0.000E+00
                                928 S  
                                         1.493E+00 1.000E+00 0.000E+00 0.000E+00
                                929 S  
                                         1.830E-01 1.000E+00 0.000E+00 0.000E+00
                         930-   932 P  
                                         1.072E+03 0.000E+00 9.277E-03 0.000E+00
                                         2.527E+02 0.000E+00 6.954E-02 0.000E+00
                                         8.010E+01 0.000E+00 2.716E-01 0.000E+00
                                         2.890E+01 0.000E+00 5.340E-01 0.000E+00
                                         1.077E+01 0.000E+00 3.450E-01 0.000E+00
                         933-   935 P  
                                         5.645E+00 0.000E+00 3.413E-01 0.000E+00
                                         2.168E+00 0.000E+00 5.639E-01 0.000E+00
                                         8.054E-01 0.000E+00 2.368E-01 0.000E+00
                         936-   938 P  
                                         2.721E-01 0.000E+00 1.000E+00 0.000E+00
                         939-   943 D  
                                         5.609E+01 0.000E+00 0.000E+00 2.959E-02
                                         1.575E+01 0.000E+00 0.000E+00 1.587E-01
                                         5.312E+00 0.000E+00 0.000E+00 3.798E-01
                                         1.774E+00 0.000E+00 0.000E+00 4.690E-01
                         944-   948 D  
                                         5.073E-01 0.000E+00 0.000E+00 1.000E+00
                         949-   955 F  
                                         2.814E+00 0.000E+00 0.000E+00 1.000E+00
                         956-   962 F  
                                         1.300E+00 0.000E+00 0.000E+00 1.000E+00
  62 ZN   0.000   0.000  12.025

 *******************************************************************************
 FINISHED BASIS SET HANDLING 
 *******************************************************************************

 INFORMATION **** SET_MPP **** PCRYSTAL CALCULATION
 INFORMATION **** READM2 **** NEW DEFAULT: FOCK/KS MATRIX MIXING SET TO 30 %
 INFORMATION **** READM2 **** NEW DEFAULT: FULL DIRECT SCF MODE
 INFORMATION **** READM2 **** NEW DEFAULT: COULOMB BIPOLAR BUFFER SET TO 32 Mb
 INFORMATION **** READM2 **** NEW DEFAULT: EXCHANGE BIPOLAR BUFFER SET TO 32 Mb

 *******************************************************************************
 NEW DEFAULT: DFT INTEGRATION GRID INCREASED TO XLGRID
 NEW DEFAULT: DIIS ACCELERATOR ACTIVE
 USE KEYWORD NODIIS TO TURN IT OFF
 *******************************************************************************

 INFORMATION **** DFTD3_INPUT **** PERFORM DISPERSION CORRECTION DFT-D3(BJ) IN THE BECKE-JOHNSON DAMPING SCHEME

 PLEASE CITE:
 (1) DFT-D3 Reference
  S. Grimme, J. Antony, S. Ehrlich, and H. Krieg, J. Chem. Phys. 132 (2010), 154104
 (2) BJ-Damping Reference
  S. Grimme, S. Ehrlich, and L. Goerigk, J. Comput. Chem. 32 (2011), 1456-1465
 (3) General DFT-D Review
  S. Grimme, A. Hansen, J. G. Brandenburg, and C. Bannwarth,
  Chem. Rev. 116 (2016), 5105-5154

 INFORMATION **** TOLINTEG **** COULOMB AND EXCHANGE SERIES TOLERANCES MODIFIED
 INFORMATION **** BIPOSIZE **** COULOMB BIPOLAR BUFFER SET TO   100000000
 INFORMATION **** MAXCYCLE **** MAX NUMBER OF SCF CYCLES SET TO          50
 *******************************************************************************
 N. OF ATOMS PER CELL        62  COULOMB OVERLAP TOL         (T1) 10**  -12
 NUMBER OF SHELLS           396  COULOMB PENETRATION TOL     (T2) 10**  -12
 NUMBER OF AO              1000  EXCHANGE OVERLAP TOL        (T3) 10**   20
 N. OF ELECTRONS PER CELL   424  EXCHANGE PSEUDO OVP (F(G))  (T4) 10**   20
 CORE ELECTRONS PER CELL    164  EXCHANGE PSEUDO OVP (P(G))  (T5) 10**   20
 N. OF SYMMETRY OPERATORS     4  POLE ORDER IN MONO ZONE                  4
 *******************************************************************************
 TYPE OF CALCULATION :  RESTRICTED CLOSED SHELL
 KOHN-SHAM HAMILTONIAN

 (EXCHANGE)[CORRELATION] FUNCTIONAL:(PERDEW-BURKE-ERNZERHOF)[PERDEW-BURKE-ERNZERHOF]


 CAPPA:IS1  3;IS2  3;IS3  3; K PTS MONK NET   6; SYMMOPS:K SPACE   8;G SPACE   4

 *******************************************************************************
 MAX NUMBER OF SCF CYCLES      50  CONVERGENCE ON DELTAP        10**-16
 WEIGHT OF F(I) IN F(I+1)      30% CONVERGENCE ON ENERGY        10**- 6
 SHRINK. FACT.(MONKH.)    3  3  3  NUMBER OF K POINTS IN THE IBZ      6
 SHRINKING FACTOR(GILAT NET)    3  NUMBER OF K POINTS(GILAT NET)      6
 *******************************************************************************
 *** K POINTS COORDINATES (OBLIQUE COORDINATES IN UNITS OF IS =  3)
   1-R(  0  0  0)   2-C(  1  0  0)   3-C(  1  1  0)   4-C(  2  1  0)
   5-C(  2  1  1)   6-C(  2  2  1)

 DIRECT LATTICE VECTORS COMPON. (A.U.)     RECIP. LATTICE VECTORS COMPON. (A.U.) 
        X            Y            Z              X            Y            Z
  -10.1236751   10.1236751   12.0245407      0.0000000    0.3103214    0.2612651
   10.1236751  -10.1236751   12.0245407      0.3103214    0.0000000    0.2612651
   10.1236751   10.1236751  -12.0245407      0.3103214    0.3103214    0.0000000

 DISK SPACE FOR EIGENVECTORS (FTN 10)    11000000 REALS

 SYMMETRY ADAPTION OF THE BLOCH FUNCTIONS ENABLED
 TTTTTTTTTTTTTTTTTTTTTTTTTTTTTT gordsh1     TELAPSE      102.92 TCPU        0.05

 MATRIX SIZE: P(G) 1846032, F(G)  923780, P(G) IRR  233409, F(G) IRR  233409
 MAX G-VECTOR INDEX FOR 1- AND 2-ELECTRON INTEGRALS  59

 TTTTTTTTTTTTTTTTTTTTTTTTTTTTTT INPUT       TELAPSE      102.95 TCPU        0.08

 NEIGHBORS OF THE NON-EQUIVALENT ATOMS

 N = NUMBER OF NEIGHBORS AT DISTANCE R
    ATOM  N     R/ANG      R/AU   NEIGHBORS (ATOM LABELS AND CELL INDICES)
   1 H    1     1.0941     2.0676   29 C    0 0 0
   1 H    1     2.0634     3.8992   53 N    0 0 0
   1 H    1     2.1740     4.1082   13 C    0 0 0
   1 H    1     2.5343     4.7892   42 N    0 0 0
   1 H    1     2.5904     4.8951   37 N    0-1 0
   1 H    1     2.6551     5.0175   17 C    0-1 0

   5 H    1     1.0914     2.0625   34 C    0 0 0
   5 H    1     2.1621     4.0857   21 C    0 0 0
   5 H    1     2.1676     4.0961   25 C    0 0 0
   5 H    1     2.5356     4.7916    9 H    0 0 0
   5 H    1     2.8352     5.3578   57 CL   0-1 0
   5 H    1     2.8459     5.3780    4 H    0 0 0

   9 H    1     1.0959     2.0709   25 C    0 0 0
   9 H    1     2.0769     3.9248   53 N    0 0 0
   9 H    1     2.1847     4.1285   34 C    0 0 0
   9 H    1     2.2093     4.1749   54 N    0 0 0
   9 H    1     2.5356     4.7916    5 H    0 0 0
   9 H    1     2.6393     4.9876   10 H    0 0 0

  13 C    1     1.4091     2.6629   21 C    0 0 0
  13 C    1     1.4113     2.6669   29 C    0 0 0
  13 C    1     1.4607     2.7603   17 C    0-1 0
  13 C    1     2.1740     4.1082    1 H    0 0 0
  13 C    1     2.4309     4.5938   53 N    0 0 0
  13 C    1     2.4319     4.5956   34 C    0 0 0

  17 C    1     1.3586     2.5673   45 N    0 0 0
  17 C    1     1.3624     2.5746   37 N    0 0 0
  17 C    1     1.4607     2.7603   13 C    0 1 0
  17 C    1     2.1957     4.1493   49 N    1 1 1
  17 C    1     2.2055     4.1678   41 N    1 1 1
  17 C    1     2.4547     4.6387   29 C    0 1 0

  21 C    1     1.3930     2.6323   34 C    0 0 0
  21 C    1     1.4091     2.6629   13 C    0 0 0
  21 C    1     1.7303     3.2698   57 CL   0-1 0
  21 C    1     2.1621     4.0857    5 H    0 0 0
  21 C    1     2.3894     4.5153   29 C    0 0 0
  21 C    1     2.3995     4.5344   25 C    0 0 0

  25 C    1     1.0959     2.0709    9 H    0 0 0
  25 C    1     1.3503     2.5518   53 N    0 0 0
  25 C    1     1.3960     2.6381   34 C    0 0 0
  25 C    1     2.1676     4.0961    5 H    0 0 0
  25 C    1     2.3090     4.3635   29 C    0 0 0
  25 C    1     2.3995     4.5344   21 C    0 0 0

  29 C    1     1.0941     2.0676    1 H    0 0 0
  29 C    1     1.3371     2.5267   53 N    0 0 0
  29 C    1     1.4113     2.6669   13 C    0 0 0
  29 C    1     2.3090     4.3635   25 C    0 0 0
  29 C    1     2.3894     4.5153   21 C    0 0 0
  29 C    1     2.4547     4.6387   17 C    0-1 0

  33 C    1     1.0914     2.0625    6 H    0 0 0
  33 C    1     1.3930     2.6323   22 C    0 0 0
  33 C    1     1.3960     2.6381   26 C    0 0 0
  33 C    1     2.1847     4.1285   10 H    0 0 0
  33 C    1     2.4037     4.5423   54 N    0 0 0
  33 C    1     2.4319     4.5956   14 C    0 0 0

  37 N    1     1.3624     2.5746   17 C    0 0 0
  37 N    1     1.3725     2.5937   41 N    1 1 1
  37 N    1     2.0107     3.7997   61 ZN   1 1 0
  37 N    1     2.1776     4.1151   49 N    1 1 1
  37 N    1     2.2043     4.1655   45 N    0 0 0
  37 N    1     2.4545     4.6382   13 C    0 1 0

  41 N    1     1.3132     2.4817   49 N    0 0 0
  41 N    1     1.3725     2.5937   37 N   -1-1-1
  41 N    1     2.1999     4.1571   45 N   -1-1-1
  41 N    1     2.2055     4.1678   17 C   -1-1-1
  41 N    1     2.5343     4.7892    2 H    0 0 0
  41 N    1     2.8607     5.4059   61 ZN   0 0-1

  45 N    1     1.3586     2.5673   17 C    0 0 0
  45 N    1     1.3813     2.6103   49 N    1 1 1
  45 N    1     2.0441     3.8628   62 ZN   0 0 0
  45 N    1     2.1999     4.1571   41 N    1 1 1
  45 N    1     2.2043     4.1655   37 N    0 0 0
  45 N    1     2.5651     4.8473   13 C    0 1 0

  49 N    1     1.3132     2.4817   41 N    0 0 0
  49 N    1     1.3813     2.6103   45 N   -1-1-1
  49 N    1     2.1776     4.1151   37 N   -1-1-1
  49 N    1     2.1957     4.1493   17 C   -1-1-1
  49 N    1     2.7494     5.1956   58 CL  -1-1-1
  49 N    1     2.8419     5.3704   62 ZN  -1-1-1

  53 N    1     1.3371     2.5267   29 C    0 0 0
  53 N    1     1.3503     2.5518   25 C    0 0 0
  53 N    1     2.0634     3.8992    1 H    0 0 0
  53 N    1     2.0769     3.9248    9 H    0 0 0
  53 N    1     2.2093     4.1749   10 H    0 0 0
  53 N    1     2.4037     4.5423   34 C    0 0 0

  57 CL   1     1.7303     3.2698   21 C    0 1 0
  57 CL   1     2.6913     5.0858   34 C    0 1 0
  57 CL   1     2.7364     5.1710   13 C    0 1 0
  57 CL   1     2.7494     5.1956   50 N    0 0-1
  57 CL   1     2.8352     5.3578    5 H    0 1 0
  57 CL   1     3.0842     5.8284    8 H    0 0 0

  61 ZN   4     2.0107     3.7997   37 N   -1-1 0   38 N   -1 0 1   39 N    0 0 1
                                    40 N   -1 0 0
  61 ZN   4     2.7337     5.1660    1 H   -1 0 0    2 H    0 0 1    3 H   -1-1 0
                                     4 H   -1 0 1
  61 ZN   4     2.8607     5.4059   41 N    0 0 1   42 N   -1 0 0   43 N   -1 0 1
                                    44 N   -1-1 0
  61 ZN   4     3.1512     5.9549   17 C   -1-1 0   18 C   -1 0 1   19 C    0 0 1
                                    20 C   -1 0 0
  61 ZN   4     3.3255     6.2843   29 C   -1 0 0   30 C    0 0 1   31 C   -1-1 0
                                    32 C   -1 0 1
  61 ZN   4     3.6116     6.8250   13 C   -1 0 0   14 C    0 0 1   15 C   -1-1 0
                                    16 C   -1 0 1

  62 ZN   4     2.0441     3.8628   45 N    0 0 0   46 N    0 0 0   47 N    1 1 0
                                    48 N    1 1 0
  62 ZN   4     2.8419     5.3704   49 N    1 1 1   50 N    0 0-1   51 N    0 1 0
                                    52 N    1 0 0
  62 ZN   4     3.2198     6.0846   17 C    0 0 0   18 C    0 0 0   19 C    1 1 0
                                    20 C    1 1 0
  62 ZN   4     3.2897     6.2167   57 CL   0 0 0   58 CL   0 0 0   59 CL   1 1 0
                                    60 CL   1 1 0
  62 ZN   4     3.9241     7.4156   13 C    0 1 0   14 C    1 0 0   15 C    0 0-1
                                    16 C    1 1 1
  62 ZN   4     4.0381     7.6309   41 N    1 1 1   42 N    0 0-1   43 N    0 1 0
                                    44 N    1 0 0


 SYMMETRY ALLOWED INTERNAL DEGREE(S) OF FREEDOM:  45
 TTTTTTTTTTTTTTTTTTTTTTTTTTTTTT SYMM        TELAPSE      103.99 TCPU        1.12
 TTTTTTTTTTTTTTTTTTTTTTTTTTTTTT INT_SCREEN  TELAPSE      104.00 TCPU        1.12
 INFORMATION **** EXCBUF **** EXCH. BIPO BUFFER: WORDS USED =           0

 DFT PARAMETERS

     ATOM       ELECTRONS   NET CHARGE   R(ANGSTROM)
   1   1  H       1.0000      0.0000     1.11000000
  13   6  C       6.0000      0.0000     0.77000000
  37   7  N       7.0000      0.0000     0.74000000
  57  17  CL     17.0000      0.0000     0.99000000
  61  30  ZN     30.0000      0.0000     1.37000000

 SIZE OF GRID=     456428
 TTTTTTTTTTTTTTTTTTTTTTTTTTTTTT MAKE_GRID2  TELAPSE      104.93 TCPU        2.06
 BECKE WEIGHT FUNCTION
 RADSAFE =     2.00
 TOLERANCES - DENSITY:10**- 6; POTENTIAL:10**- 9; GRID WGT:10**-14

 RADIAL INTEGRATION  - INTERVALS (POINTS,UPPER LIMIT):            1( 75,  4.0*R)

 ANGULAR INTEGRATION - INTERVALS (ACCURACY LEVEL [N. POINTS] UPPER LIMIT):
  1(  4[  86]   0.2)  2(  8[ 194]   0.5)  3( 12[ 350]   0.9)  4( 16[ 974]   3.5)
  5( 12[ 350]9999.0)
 TTTTTTTTTTTTTTTTTTTTTTTTTTTTTT INT_CALC    TELAPSE      104.98 TCPU        2.10
 EEEEEEEEEE INT_CALC TERMINATION  DATE 03 12 2023 TIME 11:30:48.2

 *******************************************************************************
 Z:\home\sanoj\Downloads\tmp_p\newconn.mol                                       
 CRYSTAL - SCF - TYPE OF CALCULATION :  RESTRICTED CLOSED SHELL
 *******************************************************************************

 CAPPA:IS1  3;IS2  3;IS3  3; K PTS MONK NET   6; SYMMOPS:K SPACE   8;G SPACE   4

 TTTTTTTTTTTTTTTTTTTTTTTTTTTTTT SDIK        TELAPSE      105.20 TCPU        2.33

 AAAAAAAAAAAAAAAAAAAAAAAAAAAAAAAAAAAAAAAAAAAAAAAAAAAAAAAAAAAAAAAAAAAAAAAAAAAAAAA
         ATOMIC WAVEFUNCTION(S)


 NUCLEAR CHARGE  1.0  SYMMETRY SPECIES            S
 N. ELECTRONS    1.0  NUMBER OF PRIMITIVE GTOS    4
                      NUMBER OF CONTRACTED GTOS   2
                      NUMBER OF CLOSED SHELLS     0
                      OPEN SHELL OCCUPATION       1

  ZNUC SCFIT  TOTAL HF ENERGY   KINETIC ENERGY   VIRIAL THEOREM ACCURACY
   1.0   1   -4.946643675E-01  4.917913167E-01 -2.005842012E+00  9.4E-17

 NUCLEAR CHARGE  6.0  SYMMETRY SPECIES            S    P
 N. ELECTRONS    6.0  NUMBER OF PRIMITIVE GTOS    7    4
                      NUMBER OF CONTRACTED GTOS   3    2
                      NUMBER OF CLOSED SHELLS     2    0
                      OPEN SHELL OCCUPATION       0    2

  ZNUC SCFIT  TOTAL HF ENERGY   KINETIC ENERGY   VIRIAL THEOREM ACCURACY
   6.0   6   -3.750912652E+01  3.905246519E+01 -1.960480378E+00  3.7E-06

 NUCLEAR CHARGE  7.0  SYMMETRY SPECIES            S    P
 N. ELECTRONS    7.0  NUMBER OF PRIMITIVE GTOS    7    4
                      NUMBER OF CONTRACTED GTOS   3    2
                      NUMBER OF CLOSED SHELLS     2    0
                      OPEN SHELL OCCUPATION       0    3

  ZNUC SCFIT  TOTAL HF ENERGY   KINETIC ENERGY   VIRIAL THEOREM ACCURACY
   7.0   9   -5.432196661E+01  5.425066284E+01 -2.001314339E+00  1.2E-06

 NUCLEAR CHARGE 17.0  SYMMETRY SPECIES            S    P
 N. ELECTRONS   17.0  NUMBER OF PRIMITIVE GTOS   10    7
                      NUMBER OF CONTRACTED GTOS   4    3
                      NUMBER OF CLOSED SHELLS     3    1
                      OPEN SHELL OCCUPATION       0    5

  ZNUC SCFIT  TOTAL HF ENERGY   KINETIC ENERGY   VIRIAL THEOREM ACCURACY
  17.0   9   -4.593005957E+02  4.593991532E+02 -1.999785464E+00  2.3E-06

 NUCLEAR CHARGE 30.0  SYMMETRY SPECIES            S    P    D
 N. ELECTRONS   30.0  NUMBER OF PRIMITIVE GTOS   14    9    5
                      NUMBER OF CONTRACTED GTOS   5    3    2
                      NUMBER OF CLOSED SHELLS     4    2    1
                      OPEN SHELL OCCUPATION       0    0    0

  ZNUC SCFIT  TOTAL HF ENERGY   KINETIC ENERGY   VIRIAL THEOREM ACCURACY
  30.0  10   -1.777404290E+03  1.777325716E+03 -2.000044209E+00  2.5E-06

 AAAAAAAAAAAAAAAAAAAAAAAAAAAAAAAAAAAAAAAAAAAAAAAAAAAAAAAAAAAAAAAAAAAAAAAAAAAAAAA

 TOTAL ATOMIC CHARGES:
   1.0000000   1.0000000   1.0000000   1.0000000   1.0000000   1.0000000
   1.0000000   1.0000000   1.0000000   1.0000000   1.0000000   1.0000000
   6.0000000   6.0000000   6.0000000   6.0000000   6.0000000   6.0000000
   6.0000000   6.0000000   6.0000000   6.0000000   6.0000000   6.0000000
   6.0000000   6.0000000   6.0000000   6.0000000   6.0000000   6.0000000
   6.0000000   6.0000000   6.0000000   6.0000000   6.0000000   6.0000000
   7.0000000   7.0000000   7.0000000   7.0000000   7.0000000   7.0000000
   7.0000000   7.0000000   7.0000000   7.0000000   7.0000000   7.0000000
   7.0000000   7.0000000   7.0000000   7.0000000   7.0000000   7.0000000
   7.0000000   7.0000000  17.0000000  17.0000000  17.0000000  17.0000000
  30.0000000  30.0000000
 TTTTTTTTTTTTTTTTTTTTTTTTTTTTTT MOQGAD      TELAPSE      108.07 TCPU        5.17
 TTTTTTTTTTTTTTTTTTTTTTTTTTTTTT SHELLXN     TELAPSE      187.59 TCPU       81.14
 TTTTTTTTTTTTTTTTTTTTTTTTTTTTTT MONMO3      TELAPSE      192.05 TCPU       85.59
 NUMERICALLY INTEGRATED DENSITY    424.0000972710
 TTTTTTTTTTTTTTTTTTTTTTTTTTTTTT NUMDFT      TELAPSE      194.50 TCPU       88.03
 CYC   0 ETOT(AU) -7.413701517023E+03 DETOT -7.41E+03 tst  0.00E+00 PX  1.00E+00
 TTTTTTTTTTTTTTTTTTTTTTTTTTTTTT DIIS        TELAPSE      194.58 TCPU       88.12
 TTTTTTTTTTTTTTTTTTTTTTTTTTTTTT FDIK        TELAPSE      228.24 TCPU      117.95
 INSULATING STATE
 TOP OF VALENCE BANDS -    BAND    212; K    4; EIG -1.3342559E-01 AU
 TOP OF VALENCE BANDS -    BAND    212; K    1; EIG -1.3366892E-01 AU
 BOTTOM OF VIRTUAL BANDS - BAND    213; K    1; EIG -9.9184024E-02 AU
 INDIRECT ENERGY BAND GAP:   0.9318 eV
 TTTTTTTTTTTTTTTTTTTTTTTTTTTTTT PDIG        TELAPSE      228.82 TCPU      118.53
 TOTAL ATOMIC CHARGES:
   1.3037451   1.3037451   1.3037451   1.3037451   1.1254653   1.1254653
   1.1254653   1.1254653   1.2113361   1.2113361   1.2113361   1.2113361
   6.1762043   6.1762043   6.1762043   6.1762043   5.4750477   5.4750477
   5.4750477   5.4750477   5.1978389   5.1978389   5.1978389   5.1978389
   5.6946357   5.6946357   5.6946357   5.6946357   5.8028498   5.8028498
   5.8028498   5.8028498   6.1927178   6.1927178   6.1927178   6.1927178
   7.3928223   7.3928223   7.3928223   7.3928223   7.1895972   7.1895972
   7.1895972   7.1895972   7.4212675   7.4212675   7.4212675   7.4212675
   7.1581286   7.1581286   7.1581286   7.1581286   7.4902788   7.4902788
   7.4902788   7.4902788  17.2605520  17.2605520  17.2605520  17.2605520
  27.6970840  27.9329671
 TTTTTTTTTTTTTTTTTTTTTTTTTTTTTT MOQGAD      TELAPSE      228.86 TCPU      118.58
 TTTTTTTTTTTTTTTTTTTTTTTTTTTTTT SHELLXN     TELAPSE      318.41 TCPU      205.67
 TTTTTTTTTTTTTTTTTTTTTTTTTTTTTT MONMO3      TELAPSE      326.64 TCPU      213.87
 NUMERICALLY INTEGRATED DENSITY    424.0000346628
 TTTTTTTTTTTTTTTTTTTTTTTTTTTTTT NUMDFT      TELAPSE      333.64 TCPU      220.85
 CYC   1 ETOT(AU) -7.408830851527E+03 DETOT  4.87E+00 tst  0.00E+00 PX  1.00E+00
 TTTTTTTTTTTTTTTTTTTTTTTTTTTTTT DIIS        TELAPSE      334.07 TCPU      221.28
 DIIS TEST: 0.12219E+02 AT SCF   CYCLE   1 - MIX   30 %
 TTTTTTTTTTTTTTTTTTTTTTTTTTTTTT FDIK        TELAPSE      346.90 TCPU      231.99
 INSULATING STATE
 TOP OF VALENCE BANDS -    BAND    212; K    4; EIG -1.2312859E-01 AU
 TOP OF VALENCE BANDS -    BAND    212; K    1; EIG -1.2647037E-01 AU
 BOTTOM OF VIRTUAL BANDS - BAND    213; K    5; EIG -1.2148591E-01 AU
 INDIRECT ENERGY BAND GAP:   0.0447 eV
 BOTTOM OF VIRTUAL BANDS - BAND    213; K    1; EIG -1.1647968E-01 AU
 TTTTTTTTTTTTTTTTTTTTTTTTTTTTTT PDIG        TELAPSE      347.47 TCPU      232.56
 TOTAL ATOMIC CHARGES:
   1.2915898   1.2915898   1.2915898   1.2915898   1.0967066   1.0967066
   1.0967066   1.0967066   1.1591742   1.1591742   1.1591742   1.1591742
   6.3298410   6.3298410   6.3298410   6.3298410   6.3178303   6.3178303
   6.3178303   6.3178303   6.1267420   6.1267420   6.1267420   6.1267420
   5.9380094   5.9380094   5.9380094   5.9380094   6.3009648   6.3009648
   6.3009648   6.3009648   5.8795150   5.8795150   5.8795150   5.8795150
   7.0840672   7.0840672   7.0840672   7.0840672   6.8834990   6.8834990
   6.8834990   6.8834990   7.0194470   7.0194470   7.0194470   7.0194470
   6.8624374   6.8624374   6.8624374   6.8624374   5.6518813   5.6518813
   5.6518813   5.6518813  17.1752182  17.1752182  17.1752182  17.1752182
  29.9299900  29.6023168
 TTTTTTTTTTTTTTTTTTTTTTTTTTTTTT MOQGAD      TELAPSE      347.52 TCPU      232.60
 TTTTTTTTTTTTTTTTTTTTTTTTTTTTTT SHELLXN     TELAPSE      437.59 TCPU      319.92
 TTTTTTTTTTTTTTTTTTTTTTTTTTTTTT MONMO3      TELAPSE      445.60 TCPU      327.89
 NUMERICALLY INTEGRATED DENSITY    424.0000245916
 TTTTTTTTTTTTTTTTTTTTTTTTTTTTTT NUMDFT      TELAPSE      452.56 TCPU      334.81
 CYC   2 ETOT(AU) -7.405895562096E+03 DETOT  2.94E+00 tst  7.35E-02 PX  8.62E-01
 TTTTTTTTTTTTTTTTTTTTTTTTTTTTTT DIIS        TELAPSE      453.61 TCPU      335.86
 DIIS TEST: 0.34016E+02 AT SCF   CYCLE   2 - DIIS ACTIVE - HISTORY:     2 CYCLES
 TTTTTTTTTTTTTTTTTTTTTTTTTTTTTT FDIK        TELAPSE      465.82 TCPU      345.88
 INSULATING STATE
 TOP OF VALENCE BANDS -    BAND    212; K    1; EIG -2.4057847E-01 AU
 BOTTOM OF VIRTUAL BANDS - BAND    213; K    6; EIG -1.2971657E-01 AU
 INDIRECT ENERGY BAND GAP:   3.0167 eV
 BOTTOM OF VIRTUAL BANDS - BAND    213; K    1; EIG -1.2898209E-01 AU
 TTTTTTTTTTTTTTTTTTTTTTTTTTTTTT PDIG        TELAPSE      466.39 TCPU      346.45
 TOTAL ATOMIC CHARGES:
   1.2093680   1.2093680   1.2093680   1.2093680   1.0585840   1.0585840
   1.0585840   1.0585840   1.1217546   1.1217546   1.1217546   1.1217546
   5.8899152   5.8899152   5.8899152   5.8899152   5.9234328   5.9234328
   5.9234328   5.9234328   5.4644553   5.4644553   5.4644553   5.4644553
   6.1290402   6.1290402   6.1290402   6.1290402   5.9543442   5.9543442
   5.9543442   5.9543442   5.9413501   5.9413501   5.9413501   5.9413501
   6.8937883   6.8937883   6.8937883   6.8937883   7.0775423   7.0775423
   7.0775423   7.0775423   6.9172157   6.9172157   6.9172157   6.9172157
   7.0657260   7.0657260   7.0657260   7.0657260   7.5234479   7.5234479
   7.5234479   7.5234479  17.1327305  17.1327305  17.1327305  17.1327305
  29.4764216  29.3127984
 TTTTTTTTTTTTTTTTTTTTTTTTTTTTTT MOQGAD      TELAPSE      466.45 TCPU      346.50
 TTTTTTTTTTTTTTTTTTTTTTTTTTTTTT SHELLXN     TELAPSE      556.64 TCPU      433.89
 TTTTTTTTTTTTTTTTTTTTTTTTTTTTTT MONMO3      TELAPSE      564.62 TCPU      441.84
 NUMERICALLY INTEGRATED DENSITY    424.0000304422
 TTTTTTTTTTTTTTTTTTTTTTTTTTTTTT NUMDFT      TELAPSE      571.56 TCPU      448.76
 CYC   3 ETOT(AU) -7.409692496129E+03 DETOT -3.80E+00 tst  7.57E-01 PX  4.56E-01
 TTTTTTTTTTTTTTTTTTTTTTTTTTTTTT DIIS        TELAPSE      571.72 TCPU      448.91
 DIIS TEST: 0.70101E+01 AT SCF   CYCLE   3 - DIIS ACTIVE - HISTORY:     3 CYCLES
 TTTTTTTTTTTTTTTTTTTTTTTTTTTTTT FDIK        TELAPSE      585.01 TCPU      459.93
 INSULATING STATE
 TOP OF VALENCE BANDS -    BAND    212; K    4; EIG -2.1266717E-01 AU
 TOP OF VALENCE BANDS -    BAND    212; K    1; EIG -2.1306342E-01 AU
 BOTTOM OF VIRTUAL BANDS - BAND    213; K    6; EIG -1.2210466E-01 AU
 INDIRECT ENERGY BAND GAP:   2.4643 eV
 BOTTOM OF VIRTUAL BANDS - BAND    213; K    1; EIG -1.1733887E-01 AU
 TTTTTTTTTTTTTTTTTTTTTTTTTTTTTT PDIG        TELAPSE      585.58 TCPU      460.49
 TOTAL ATOMIC CHARGES:
   1.2296682   1.2296682   1.2296682   1.2296682   1.0734492   1.0734492
   1.0734492   1.0734492   1.1659310   1.1659310   1.1659310   1.1659310
   6.2513101   6.2513101   6.2513101   6.2513101   5.7340324   5.7340324
   5.7340324   5.7340324   5.5781017   5.5781017   5.5781017   5.5781017
   5.6883734   5.6883734   5.6883734   5.6883734   5.9679521   5.9679521
   5.9679521   5.9679521   6.1584131   6.1584131   6.1584131   6.1584131
   7.2306261   7.2306261   7.2306261   7.2306261   7.0499179   7.0499179
   7.0499179   7.0499179   7.2556398   7.2556398   7.2556398   7.2556398
   7.0611941   7.0611941   7.0611941   7.0611941   6.9522179   6.9522179
   6.9522179   6.9522179  17.2213389  17.2213389  17.2213389  17.2213389
  28.7512846  28.7760519
 TTTTTTTTTTTTTTTTTTTTTTTTTTTTTT MOQGAD      TELAPSE      585.63 TCPU      460.54
 TTTTTTTTTTTTTTTTTTTTTTTTTTTTTT SHELLXN     TELAPSE      675.28 TCPU      547.64
 TTTTTTTTTTTTTTTTTTTTTTTTTTTTTT MONMO3      TELAPSE      683.82 TCPU      556.15
 NUMERICALLY INTEGRATED DENSITY    424.0000310189
 TTTTTTTTTTTTTTTTTTTTTTTTTTTTTT NUMDFT      TELAPSE      690.75 TCPU      563.07
 CYC   4 ETOT(AU) -7.410638214692E+03 DETOT -9.46E-01 tst  6.59E-03 PX  4.19E-01
 TTTTTTTTTTTTTTTTTTTTTTTTTTTTTT DIIS        TELAPSE      690.91 TCPU      563.22
 DIIS TEST: 0.11372E+01 AT SCF   CYCLE   4 - DIIS ACTIVE - HISTORY:     4 CYCLES
 TTTTTTTTTTTTTTTTTTTTTTTTTTTTTT FDIK        TELAPSE      703.20 TCPU      573.38
 INSULATING STATE
 TOP OF VALENCE BANDS -    BAND    212; K    4; EIG -2.2834436E-01 AU
 TOP OF VALENCE BANDS -    BAND    212; K    1; EIG -2.2853173E-01 AU
 BOTTOM OF VIRTUAL BANDS - BAND    213; K    6; EIG -1.2510119E-01 AU
 INDIRECT ENERGY BAND GAP:   2.8094 eV
 BOTTOM OF VIRTUAL BANDS - BAND    213; K    1; EIG -1.1960047E-01 AU
 TTTTTTTTTTTTTTTTTTTTTTTTTTTTTT PDIG        TELAPSE      703.77 TCPU      573.95
 TOTAL ATOMIC CHARGES:
   1.2227376   1.2227376   1.2227376   1.2227376   1.0786748   1.0786748
   1.0786748   1.0786748   1.1551280   1.1551280   1.1551280   1.1551280
   6.1494921   6.1494921   6.1494921   6.1494921   5.8153769   5.8153769
   5.8153769   5.8153769   5.5262307   5.5262307   5.5262307   5.5262307
   5.9128883   5.9128883   5.9128883   5.9128883   6.0445043   6.0445043
   6.0445043   6.0445043   6.0349512   6.0349512   6.0349512   6.0349512
   7.2092491   7.2092491   7.2092491   7.2092491   7.1352097   7.1352097
   7.1352097   7.1352097   7.0993356   7.0993356   7.0993356   7.0993356
   7.0258544   7.0258544   7.0258544   7.0258544   6.9855419   6.9855419
   6.9855419   6.9855419  17.1965588  17.1965588  17.1965588  17.1965588
  28.8323776  28.8006883
 TTTTTTTTTTTTTTTTTTTTTTTTTTTTTT MOQGAD      TELAPSE      703.82 TCPU      574.00
 TTTTTTTTTTTTTTTTTTTTTTTTTTTTTT SHELLXN     TELAPSE      794.43 TCPU      661.28
 TTTTTTTTTTTTTTTTTTTTTTTTTTTTTT MONMO3      TELAPSE      802.15 TCPU      668.96
 NUMERICALLY INTEGRATED DENSITY    424.0000312949
 TTTTTTTTTTTTTTTTTTTTTTTTTTTTTT NUMDFT      TELAPSE      809.12 TCPU      675.89
 CYC   5 ETOT(AU) -7.410782798757E+03 DETOT -1.45E-01 tst  7.97E-04 PX  1.56E-01
 TTTTTTTTTTTTTTTTTTTTTTTTTTTTTT DIIS        TELAPSE      809.28 TCPU      676.05
 DIIS TEST: 0.20704E+00 AT SCF   CYCLE   5 - DIIS ACTIVE - HISTORY:     5 CYCLES
 TTTTTTTTTTTTTTTTTTTTTTTTTTTTTT FDIK        TELAPSE      820.70 TCPU      685.04
 INSULATING STATE
 TOP OF VALENCE BANDS -    BAND    212; K    4; EIG -2.3056961E-01 AU
 TOP OF VALENCE BANDS -    BAND    212; K    1; EIG -2.3098030E-01 AU
 BOTTOM OF VIRTUAL BANDS - BAND    213; K    6; EIG -1.2407067E-01 AU
 INDIRECT ENERGY BAND GAP:   2.8980 eV
 BOTTOM OF VIRTUAL BANDS - BAND    213; K    1; EIG -1.2020484E-01 AU
 TTTTTTTTTTTTTTTTTTTTTTTTTTTTTT PDIG        TELAPSE      821.27 TCPU      685.61
 TOTAL ATOMIC CHARGES:
   1.2212445   1.2212445   1.2212445   1.2212445   1.0713540   1.0713540
   1.0713540   1.0713540   1.1561149   1.1561149   1.1561149   1.1561149
   6.1498479   6.1498479   6.1498479   6.1498479   5.8064194   5.8064194
   5.8064194   5.8064194   5.5710716   5.5710716   5.5710716   5.5710716
   5.8486802   5.8486802   5.8486802   5.8486802   5.9802910   5.9802910
   5.9802910   5.9802910   6.0688669   6.0688669   6.0688669   6.0688669
   7.1169837   7.1169837   7.1169837   7.1169837   7.0313137   7.0313137
   7.0313137   7.0313137   7.2055601   7.2055601   7.2055601   7.2055601
   7.0969713   7.0969713   7.0969713   7.0969713   7.0499236   7.0499236
   7.0499236   7.0499236  17.2018232  17.2018232  17.2018232  17.2018232
  28.8502333  28.8439022
 TTTTTTTTTTTTTTTTTTTTTTTTTTTTTT MOQGAD      TELAPSE      821.32 TCPU      685.66
 TTTTTTTTTTTTTTTTTTTTTTTTTTTTTT SHELLXN     TELAPSE      911.09 TCPU      772.78
 TTTTTTTTTTTTTTTTTTTTTTTTTTTTTT MONMO3      TELAPSE      919.43 TCPU      781.10
 NUMERICALLY INTEGRATED DENSITY    424.0000313842
 TTTTTTTTTTTTTTTTTTTTTTTTTTTTTT NUMDFT      TELAPSE      926.43 TCPU      788.06
 CYC   6 ETOT(AU) -7.410797992866E+03 DETOT -1.52E-02 tst  1.74E-04 PX  3.54E-02
 TTTTTTTTTTTTTTTTTTTTTTTTTTTTTT DIIS        TELAPSE      926.63 TCPU      788.26
 DIIS TEST: 0.99218E-01 AT SCF   CYCLE   6 - DIIS ACTIVE - HISTORY:     6 CYCLES
 TTTTTTTTTTTTTTTTTTTTTTTTTTTTTT FDIK        TELAPSE      936.79 TCPU      796.92
 INSULATING STATE
 TOP OF VALENCE BANDS -    BAND    212; K    3; EIG -2.3211842E-01 AU
 TOP OF VALENCE BANDS -    BAND    212; K    1; EIG -2.3247319E-01 AU
 BOTTOM OF VIRTUAL BANDS - BAND    213; K    6; EIG -1.2396329E-01 AU
 INDIRECT ENERGY BAND GAP:   2.9431 eV
 BOTTOM OF VIRTUAL BANDS - BAND    213; K    1; EIG -1.1899834E-01 AU
 TTTTTTTTTTTTTTTTTTTTTTTTTTTTTT PDIG        TELAPSE      937.36 TCPU      797.49
 TOTAL ATOMIC CHARGES:
   1.2206521   1.2206521   1.2206521   1.2206521   1.0691157   1.0691157
   1.0691157   1.0691157   1.1550804   1.1550804   1.1550804   1.1550804
   6.1515859   6.1515859   6.1515859   6.1515859   5.7997272   5.7997272
   5.7997272   5.7997272   5.5677036   5.5677036   5.5677036   5.5677036
   5.8232304   5.8232304   5.8232304   5.8232304   5.9941259   5.9941259
   5.9941259   5.9941259   6.0803336   6.0803336   6.0803336   6.0803336
   7.1797625   7.1797625   7.1797625   7.1797625   7.0811570   7.0811570
   7.0811570   7.0811570   7.1450576   7.1450576   7.1450576   7.1450576
   7.0392915   7.0392915   7.0392915   7.0392915   7.0679845   7.0679845
   7.0679845   7.0679845  17.1941832  17.1941832  17.1941832  17.1941832
  28.8686333  28.8554021
 TTTTTTTTTTTTTTTTTTTTTTTTTTTTTT MOQGAD      TELAPSE      937.41 TCPU      797.54
 TTTTTTTTTTTTTTTTTTTTTTTTTTTTTT SHELLXN     TELAPSE     1025.21 TCPU      884.58
 TTTTTTTTTTTTTTTTTTTTTTTTTTTTTT MONMO3      TELAPSE     1035.24 TCPU      894.58
 NUMERICALLY INTEGRATED DENSITY    424.0000311307
 TTTTTTTTTTTTTTTTTTTTTTTTTTTTTT NUMDFT      TELAPSE     1042.16 TCPU      901.48
 CYC   7 ETOT(AU) -7.410809593236E+03 DETOT -1.16E-02 tst  6.88E-05 PX  1.94E-02
 TTTTTTTTTTTTTTTTTTTTTTTTTTTTTT DIIS        TELAPSE     1069.78 TCPU      928.99
 DIIS TEST: 0.18519E-01 AT SCF   CYCLE   7 - DIIS ACTIVE - HISTORY:     7 CYCLES
 TTTTTTTTTTTTTTTTTTTTTTTTTTTTTT FDIK        TELAPSE     1088.47 TCPU      942.77
 INSULATING STATE
 TOP OF VALENCE BANDS -    BAND    212; K    3; EIG -2.3075019E-01 AU
 TOP OF VALENCE BANDS -    BAND    212; K    1; EIG -2.3109031E-01 AU
 BOTTOM OF VIRTUAL BANDS - BAND    213; K    6; EIG -1.2382352E-01 AU
 INDIRECT ENERGY BAND GAP:   2.9096 eV
 BOTTOM OF VIRTUAL BANDS - BAND    213; K    1; EIG -1.1923548E-01 AU
 TTTTTTTTTTTTTTTTTTTTTTTTTTTTTT PDIG        TELAPSE     1089.04 TCPU      943.33
 TOTAL ATOMIC CHARGES:
   1.2182834   1.2182834   1.2182834   1.2182834   1.0698138   1.0698138
   1.0698138   1.0698138   1.1544666   1.1544666   1.1544666   1.1544666
   6.1487395   6.1487395   6.1487395   6.1487395   5.7991088   5.7991088
   5.7991088   5.7991088   5.5501135   5.5501135   5.5501135   5.5501135
   5.8598886   5.8598886   5.8598886   5.8598886   6.0048892   6.0048892
   6.0048892   6.0048892   6.0683058   6.0683058   6.0683058   6.0683058
   7.1589003   7.1589003   7.1589003   7.1589003   7.0729216   7.0729216
   7.0729216   7.0729216   7.1574960   7.1574960   7.1574960   7.1574960
   7.0614368   7.0614368   7.0614368   7.0614368   7.0429288   7.0429288
   7.0429288   7.0429288  17.2021692  17.2021692  17.2021692  17.2021692
  28.8690263  28.8531256
 TTTTTTTTTTTTTTTTTTTTTTTTTTTTTT MOQGAD      TELAPSE     1089.09 TCPU      943.38
 TTTTTTTTTTTTTTTTTTTTTTTTTTTTTT SHELLXN     TELAPSE     1177.90 TCPU     1029.54
 TTTTTTTTTTTTTTTTTTTTTTTTTTTTTT MONMO3      TELAPSE     1205.79 TCPU     1057.30
 NUMERICALLY INTEGRATED DENSITY    424.0000312235
 TTTTTTTTTTTTTTTTTTTTTTTTTTTTTT NUMDFT      TELAPSE     1212.83 TCPU     1064.32
 CYC   8 ETOT(AU) -7.410812268233E+03 DETOT -2.67E-03 tst  6.13E-06 PX  9.33E-03
 TTTTTTTTTTTTTTTTTTTTTTTTTTTTTT DIIS        TELAPSE     1213.24 TCPU     1064.72
 DIIS TEST: 0.11263E-02 AT SCF   CYCLE   8 - DIIS ACTIVE - HISTORY:     8 CYCLES
 TTTTTTTTTTTTTTTTTTTTTTTTTTTTTT FDIK        TELAPSE     1225.20 TCPU     1074.51
 INSULATING STATE
 TOP OF VALENCE BANDS -    BAND    212; K    3; EIG -2.3175217E-01 AU
 TOP OF VALENCE BANDS -    BAND    212; K    1; EIG -2.3207378E-01 AU
 BOTTOM OF VIRTUAL BANDS - BAND    213; K    6; EIG -1.2425554E-01 AU
 INDIRECT ENERGY BAND GAP:   2.9251 eV
 BOTTOM OF VIRTUAL BANDS - BAND    213; K    1; EIG -1.1960377E-01 AU
 TTTTTTTTTTTTTTTTTTTTTTTTTTTTTT PDIG        TELAPSE     1225.77 TCPU     1075.08
 TOTAL ATOMIC CHARGES:
   1.2182045   1.2182045   1.2182045   1.2182045   1.0703646   1.0703646
   1.0703646   1.0703646   1.1541121   1.1541121   1.1541121   1.1541121
   6.1491218   6.1491218   6.1491218   6.1491218   5.8004619   5.8004619
   5.8004619   5.8004619   5.5572151   5.5572151   5.5572151   5.5572151
   5.8545360   5.8545360   5.8545360   5.8545360   5.9972635   5.9972635
   5.9972635   5.9972635   6.0657242   6.0657242   6.0657242   6.0657242
   7.1647401   7.1647401   7.1647401   7.1647401   7.0733216   7.0733216
   7.0733216   7.0733216   7.1600873   7.1600873   7.1600873   7.1600873
   7.0540399   7.0540399   7.0540399   7.0540399   7.0535250   7.0535250
   7.0535250   7.0535250  17.1975111  17.1975111  17.1975111  17.1975111
  28.8685437  28.8505415
 TTTTTTTTTTTTTTTTTTTTTTTTTTTTTT MOQGAD      TELAPSE     1225.82 TCPU     1075.12
 TTTTTTTTTTTTTTTTTTTTTTTTTTTTTT SHELLXN     TELAPSE     1315.46 TCPU     1162.40
 TTTTTTTTTTTTTTTTTTTTTTTTTTTTTT MONMO3      TELAPSE     1323.51 TCPU     1170.43
 NUMERICALLY INTEGRATED DENSITY    424.0000312001
 TTTTTTTTTTTTTTTTTTTTTTTTTTTTTT NUMDFT      TELAPSE     1330.51 TCPU     1177.41
 CYC   9 ETOT(AU) -7.410812389457E+03 DETOT -1.21E-04 tst  7.84E-07 PX  3.05E-03
 TTTTTTTTTTTTTTTTTTTTTTTTTTTTTT DIIS        TELAPSE     1330.82 TCPU     1177.72
 DIIS TEST: 0.42113E-03 AT SCF   CYCLE   9 - DIIS ACTIVE - HISTORY:     9 CYCLES
 TTTTTTTTTTTTTTTTTTTTTTTTTTTTTT FDIK        TELAPSE     1340.03 TCPU     1186.51
 INSULATING STATE
 TOP OF VALENCE BANDS -    BAND    212; K    3; EIG -2.3161404E-01 AU
 TOP OF VALENCE BANDS -    BAND    212; K    1; EIG -2.3195675E-01 AU
 BOTTOM OF VIRTUAL BANDS - BAND    213; K    6; EIG -1.2399632E-01 AU
 INDIRECT ENERGY BAND GAP:   2.9284 eV
 BOTTOM OF VIRTUAL BANDS - BAND    213; K    1; EIG -1.1936543E-01 AU
 TTTTTTTTTTTTTTTTTTTTTTTTTTTTTT PDIG        TELAPSE     1340.60 TCPU     1187.07
 TOTAL ATOMIC CHARGES:
   1.2182096   1.2182096   1.2182096   1.2182096   1.0700194   1.0700194
   1.0700194   1.0700194   1.1539841   1.1539841   1.1539841   1.1539841
   6.1476612   6.1476612   6.1476612   6.1476612   5.8000184   5.8000184
   5.8000184   5.8000184   5.5555018   5.5555018   5.5555018   5.5555018
   5.8536882   5.8536882   5.8536882   5.8536882   6.0009608   6.0009608
   6.0009608   6.0009608   6.0699288   6.0699288   6.0699288   6.0699288
   7.1605921   7.1605921   7.1605921   7.1605921   7.0741092   7.0741092
   7.0741092   7.0741092   7.1551365   7.1551365   7.1551365   7.1551365
   7.0595845   7.0595845   7.0595845   7.0595845   7.0510850   7.0510850
   7.0510850   7.0510850  17.1992061  17.1992061  17.1992061  17.1992061
  28.8688171  28.8524401
 TTTTTTTTTTTTTTTTTTTTTTTTTTTTTT MOQGAD      TELAPSE     1340.65 TCPU     1187.12
 TTTTTTTTTTTTTTTTTTTTTTTTTTTTTT SHELLXN     TELAPSE     1428.35 TCPU     1274.28
 TTTTTTTTTTTTTTTTTTTTTTTTTTTTTT MONMO3      TELAPSE     1436.88 TCPU     1282.79
 NUMERICALLY INTEGRATED DENSITY    424.0000312265
 TTTTTTTTTTTTTTTTTTTTTTTTTTTTTT NUMDFT      TELAPSE     1443.86 TCPU     1289.76
 CYC  10 ETOT(AU) -7.410812440991E+03 DETOT -5.15E-05 tst  4.46E-07 PX  1.42E-03
 TTTTTTTTTTTTTTTTTTTTTTTTTTTTTT DIIS        TELAPSE     1444.09 TCPU     1289.98
 DIIS TEST: 0.10658E-03 AT SCF   CYCLE  10 - DIIS ACTIVE - HISTORY:    10 CYCLES
 TTTTTTTTTTTTTTTTTTTTTTTTTTTTTT FDIK        TELAPSE     1456.73 TCPU     1300.35
 INSULATING STATE
 TOP OF VALENCE BANDS -    BAND    212; K    3; EIG -2.3160610E-01 AU
 TOP OF VALENCE BANDS -    BAND    212; K    1; EIG -2.3194423E-01 AU
 BOTTOM OF VIRTUAL BANDS - BAND    213; K    6; EIG -1.2403838E-01 AU
 INDIRECT ENERGY BAND GAP:   2.9271 eV
 BOTTOM OF VIRTUAL BANDS - BAND    213; K    1; EIG -1.1940747E-01 AU
 TTTTTTTTTTTTTTTTTTTTTTTTTTTTTT PDIG        TELAPSE     1457.30 TCPU     1300.92
 TOTAL ATOMIC CHARGES:
   1.2182313   1.2182313   1.2182313   1.2182313   1.0699034   1.0699034
   1.0699034   1.0699034   1.1539666   1.1539666   1.1539666   1.1539666
   6.1484653   6.1484653   6.1484653   6.1484653   5.7997120   5.7997120
   5.7997120   5.7997120   5.5541784   5.5541784   5.5541784   5.5541784
   5.8544688   5.8544688   5.8544688   5.8544688   6.0010284   6.0010284
   6.0010284   6.0010284   6.0687350   6.0687350   6.0687350   6.0687350
   7.1621838   7.1621838   7.1621838   7.1621838   7.0727879   7.0727879
   7.0727879   7.0727879   7.1580540   7.1580540   7.1580540   7.1580540
   7.0568809   7.0568809   7.0568809   7.0568809   7.0512742   7.0512742
   7.0512742   7.0512742  17.1998465  17.1998465  17.1998465  17.1998465
  28.8689054  28.8522289
 TTTTTTTTTTTTTTTTTTTTTTTTTTTTTT MOQGAD      TELAPSE     1457.35 TCPU     1300.97
 TTTTTTTTTTTTTTTTTTTTTTTTTTTTTT SHELLXN     TELAPSE     1548.47 TCPU     1388.27
 TTTTTTTTTTTTTTTTTTTTTTTTTTTTTT MONMO3      TELAPSE     1556.96 TCPU     1396.74
 NUMERICALLY INTEGRATED DENSITY    424.0000311935
 TTTTTTTTTTTTTTTTTTTTTTTTTTTTTT NUMDFT      TELAPSE     1563.94 TCPU     1403.71
 CYC  11 ETOT(AU) -7.410812454251E+03 DETOT -1.33E-05 tst  1.05E-07 PX  7.19E-04
 TTTTTTTTTTTTTTTTTTTTTTTTTTTTTT DIIS        TELAPSE     1568.59 TCPU     1408.33
 DIIS TEST: 0.18859E-04 AT SCF   CYCLE  11 - DIIS ACTIVE - HISTORY:    11 CYCLES
 TTTTTTTTTTTTTTTTTTTTTTTTTTTTTT FDIK        TELAPSE     1582.57 TCPU     1418.22
 INSULATING STATE
 TOP OF VALENCE BANDS -    BAND    212; K    3; EIG -2.3156301E-01 AU
 TOP OF VALENCE BANDS -    BAND    212; K    1; EIG -2.3190020E-01 AU
 BOTTOM OF VIRTUAL BANDS - BAND    213; K    6; EIG -1.2404665E-01 AU
 INDIRECT ENERGY BAND GAP:   2.9257 eV
 BOTTOM OF VIRTUAL BANDS - BAND    213; K    1; EIG -1.1941483E-01 AU
 TTTTTTTTTTTTTTTTTTTTTTTTTTTTTT PDIG        TELAPSE     1583.14 TCPU     1418.78
 TOTAL ATOMIC CHARGES:
   1.2182958   1.2182958   1.2182958   1.2182958   1.0699765   1.0699765
   1.0699765   1.0699765   1.1540176   1.1540176   1.1540176   1.1540176
   6.1483815   6.1483815   6.1483815   6.1483815   5.7998842   5.7998842
   5.7998842   5.7998842   5.5553865   5.5553865   5.5553865   5.5553865
   5.8547311   5.8547311   5.8547311   5.8547311   5.9999657   5.9999657
   5.9999657   5.9999657   6.0684960   6.0684960   6.0684960   6.0684960
   7.1617394   7.1617394   7.1617394   7.1617394   7.0738060   7.0738060
   7.0738060   7.0738060   7.1569413   7.1569413   7.1569413   7.1569413
   7.0577250   7.0577250   7.0577250   7.0577250   7.0511073   7.0511073
   7.0511073   7.0511073  17.1993222  17.1993222  17.1993222  17.1993222
  28.8688691  28.8520265
 TTTTTTTTTTTTTTTTTTTTTTTTTTTTTT MOQGAD      TELAPSE     1583.19 TCPU     1418.83
 TTTTTTTTTTTTTTTTTTTTTTTTTTTTTT SHELLXN     TELAPSE     1677.76 TCPU     1506.18
 TTTTTTTTTTTTTTTTTTTTTTTTTTTTTT MONMO3      TELAPSE     1685.33 TCPU     1513.71
 NUMERICALLY INTEGRATED DENSITY    424.0000312127
 TTTTTTTTTTTTTTTTTTTTTTTTTTTTTT NUMDFT      TELAPSE     1692.32 TCPU     1520.67
 CYC  12 ETOT(AU) -7.410812456537E+03 DETOT -2.29E-06 tst  1.90E-08 PX  3.20E-04
 TTTTTTTTTTTTTTTTTTTTTTTTTTTTTT DIIS        TELAPSE     1692.49 TCPU     1520.83
 DIIS TEST: 0.57025E-05 AT SCF   CYCLE  12 - DIIS ACTIVE - HISTORY:    12 CYCLES
 TTTTTTTTTTTTTTTTTTTTTTTTTTTTTT FDIK        TELAPSE     1702.98 TCPU     1529.86
 INSULATING STATE
 TOP OF VALENCE BANDS -    BAND    212; K    3; EIG -2.3158087E-01 AU
 TOP OF VALENCE BANDS -    BAND    212; K    1; EIG -2.3191751E-01 AU
 BOTTOM OF VIRTUAL BANDS - BAND    213; K    6; EIG -1.2404307E-01 AU
 INDIRECT ENERGY BAND GAP:   2.9263 eV
 BOTTOM OF VIRTUAL BANDS - BAND    213; K    1; EIG -1.1941107E-01 AU
 TTTTTTTTTTTTTTTTTTTTTTTTTTTTTT PDIG        TELAPSE     1703.55 TCPU     1530.44
 TOTAL ATOMIC CHARGES:
   1.2182307   1.2182307   1.2182307   1.2182307   1.0700136   1.0700136
   1.0700136   1.0700136   1.1540312   1.1540312   1.1540312   1.1540312
   6.1482900   6.1482900   6.1482900   6.1482900   5.7998862   5.7998862
   5.7998862   5.7998862   5.5549338   5.5549338   5.5549338   5.5549338
   5.8544139   5.8544139   5.8544139   5.8544139   6.0005434   6.0005434
   6.0005434   6.0005434   6.0686330   6.0686330   6.0686330   6.0686330
   7.1619453   7.1619453   7.1619453   7.1619453   7.0733101   7.0733101
   7.0733101   7.0733101   7.1572797   7.1572797   7.1572797   7.1572797
   7.0577192   7.0577192   7.0577192   7.0577192   7.0512368   7.0512368
   7.0512368   7.0512368  17.1992944  17.1992944  17.1992944  17.1992944
[...]
 TTTTTTTTTTTTTTTTTTTTTTTTTTTTTT MOQGAD      TELAPSE   378601.27 TCPU   375232.87
 TTTTTTTTTTTTTTTTTTTTTTTTTTTTTT CP_MONMON   TELAPSE   378618.58 TCPU   375250.13
 DIIS TEST: 0.30802E-01 AT CPHF  CYCLE   7 - DIIS ACTIVE - HISTORY:     7 CYCLES
 CYCLE   7   ALPHA  504.388305  EPSILON    2.285790  DELTA    2.0735E-01
 TTTTTTTTTTTTTTTTTTTTTTTTTTTTTT MOQGAD      TELAPSE   379435.17 TCPU   376061.80
 TTTTTTTTTTTTTTTTTTTTTTTTTTTTTT CP_MONMON   TELAPSE   379452.59 TCPU   376079.17
 DIIS TEST: 0.41461E-01 AT CPHF  CYCLE   8 - DIIS ACTIVE - HISTORY:     8 CYCLES
 CYCLE   8   ALPHA  504.411712  EPSILON    2.285850  DELTA    2.3407E-02
 TTTTTTTTTTTTTTTTTTTTTTTTTTTTTT MOQGAD      TELAPSE   380265.59 TCPU   376885.10
 TTTTTTTTTTTTTTTTTTTTTTTTTTTTTT CP_MONMON   TELAPSE   380282.93 TCPU   376902.40
 DIIS TEST: 0.35982E-01 AT CPHF  CYCLE   9 - DIIS ACTIVE - HISTORY:     9 CYCLES
 CYCLE   9   ALPHA  504.409482  EPSILON    2.285844  DELTA   -2.2300E-03
 TTTTTTTTTTTTTTTTTTTTTTTTTTTTTT MOQGAD      TELAPSE   381095.78 TCPU   377707.41
 TTTTTTTTTTTTTTTTTTTTTTTTTTTTTT CP_MONMON   TELAPSE   381113.12 TCPU   377724.69
 DIIS TEST: 0.77207E-02 AT CPHF  CYCLE  10 - DIIS ACTIVE - HISTORY:    10 CYCLES
 CYCLE  10   ALPHA  504.399877  EPSILON    2.285819  DELTA   -9.6044E-03
 TTTTTTTTTTTTTTTTTTTTTTTTTTTTTT MOQGAD      TELAPSE   381929.57 TCPU   378533.39
 TTTTTTTTTTTTTTTTTTTTTTTTTTTTTT CP_MONMON   TELAPSE   381946.94 TCPU   378550.69
 DIIS TEST: 0.28765E-02 AT CPHF  CYCLE  11 - DIIS ACTIVE - HISTORY:    11 CYCLES
 CYCLE  11   ALPHA  504.403211  EPSILON    2.285828  DELTA    3.3340E-03
 TTTTTTTTTTTTTTTTTTTTTTTTTTTTTT MOQGAD      TELAPSE   382773.51 TCPU   379369.42
 TTTTTTTTTTTTTTTTTTTTTTTTTTTTTT CP_MONMON   TELAPSE   382790.84 TCPU   379386.69
 DIIS TEST: 0.69244E-02 AT CPHF  CYCLE  12 - DIIS ACTIVE - HISTORY:    12 CYCLES
 CYCLE  12   ALPHA  504.401255  EPSILON    2.285823  DELTA   -1.9569E-03
 TTTTTTTTTTTTTTTTTTTTTTTTTTTTTT MOQGAD      TELAPSE   383602.41 TCPU   380191.98
 TTTTTTTTTTTTTTTTTTTTTTTTTTTTTT CP_MONMON   TELAPSE   383619.72 TCPU   380209.21
 DIIS TEST: 0.18203E-02 AT CPHF  CYCLE  13 - DIIS ACTIVE - HISTORY:    13 CYCLES
 CYCLE  13   ALPHA  504.397495  EPSILON    2.285813  DELTA   -3.7598E-03
 TTTTTTTTTTTTTTTTTTTTTTTTTTTTTT MOQGAD      TELAPSE   384431.26 TCPU   381016.33
 TTTTTTTTTTTTTTTTTTTTTTTTTTTTTT CP_MONMON   TELAPSE   384448.66 TCPU   381033.70
 DIIS TEST: 0.41318E-03 AT CPHF  CYCLE  14 - DIIS ACTIVE - HISTORY:    14 CYCLES
 CYCLE  14   ALPHA  504.397708  EPSILON    2.285814  DELTA    2.1345E-04
 TTTTTTTTTTTTTTTTTTTTTTTTTTTTTT CP_SC       TELAPSE   384488.13 TCPU   381068.20

 *******************************************************************************

 POLARIZABILITY (ALPHA), DIELECTRIC (EPSILON) AND FIRST-ORDER ELECTRIC
 SUSCEPTIBILITY (CHI(1)) TENSORS (INDEPENDENT COMPONENTS)

  FR.(eV) COMP.   ALPHA(Re,Im)           EPSILON(Re,Im)                CHI(1)
  1.435   XX    1053.4260       0.0000       3.6854       0.0000       2.6854
  1.435   ZZ     504.3977       0.0000       2.2858       0.0000       1.2858

 DIELECTRIC TENSOR

 TENSOR IN PRINCIPAL AXES SYSTEM
 AA  3.685400E+00 BB  3.685400E+00 CC  2.285814E+00

 REFRACTIVE INDICES 
 AA  1.511891E+00 BB  1.919740E+00 CC  1.919740E+00

 OPTICALLY ANISOTROPIC - UNIAXIAL CRYSTAL

 BIREFRINGENCE =  0.4078 (NEGATIVE) - OBLATE OPTICAL ELLIPSOID

 EPSILON=N**2=1+CHI(1)=1+ALPHA*4*PI/V,   4*PI/V=   0.00255 BOHR**(-3)
 ALPHA IN BOHR**3; EPSILON AND CHI(1) ARE DIMENSIONLESS.
 *******************************************************************************

 DYNAMIC FIELD: RUN 10/ 10 - RADIATION WAVELENGTH: 1064.0000 NM

 *******************************************************************************

 ELECTRIC FIELD APPLIED ALONG CARTESIAN DIRECTION X

 *******************************************************************************
 THE NUMBER OF SYMMETRY OPERATORS HAS BEEN REDUCED FROM  4 TO  1

 NEW GRID IN RECIPROCAL SPACE
 *******************************************************************************
 POINTS IN THE IBZ                  14 SHRINKING FACTORS               3  3  3
 *******************************************************************************
 *** K POINTS COORDINATES (OBLIQUE COORDINATES IN UNITS OF SHRINK FAC. )
   1-R(  0  0  0)   2-C(  1  0  0)   3-C(  0  1  2)   4-C(  2  0  1)
   5-C(  0  2  0)   6-C(  1  1  0)   7-C(  1  1  1)   8-C(  1  0  1)
   9-C(  0  1  1)  10-C(  2  1  0)  11-C(  0  0  2)  12-C(  2  1  1)
  13-C(  2  1  2)  14-C(  2  2  1)

 GCALCO - MAX INDICES DIRECT LATTICE VECTOR    14    14    16
 NO.OF VECTORS CREATED 6999 STARS  487 RMAX   202.74626 BOHR
 TTTTTTTTTTTTTTTTTTTTTTTTTTTTTT gordsh1     TELAPSE   384488.14 TCPU   381068.21

 MATRIX SIZE: P(G) 1846032, F(G)  923780, P(G) IRR  925486, F(G) IRR  925486
 MAX G-VECTOR INDEX FOR 1- AND 2-ELECTRON INTEGRALS  59

 TTTTTTTTTTTTTTTTTTTTTTTTTTTTTT INPUT       TELAPSE   384488.47 TCPU   381068.54
 TTTTTTTTTTTTTTTTTTTTTTTTTTTTTT SYMM        TELAPSE   384488.47 TCPU   381068.54

 ***** NEW REFERENCE GEOMETRY *****
 TTTTTTTTTTTTTTTTTTTTTTTTTTTTTT INT_SCREEN  TELAPSE   384488.48 TCPU   381068.56
 INFORMATION **** EXCBUF **** EXCH. BIPO BUFFER: WORDS USED =           0

 DFT PARAMETERS

     ATOM       ELECTRONS   NET CHARGE   R(ANGSTROM)
   1   1  H       1.0000      0.0000     1.11000000
  13   6  C       6.0000      0.0000     0.77000000
  37   7  N       7.0000      0.0000     0.74000000
  57  17  CL     17.0000      0.0000     0.99000000
  61  30  ZN     30.0000      0.0000     1.37000000

 SIZE OF GRID=    1825486
 TTTTTTTTTTTTTTTTTTTTTTTTTTTTTT MAKE_GRID2  TELAPSE   384490.89 TCPU   381070.96
 BECKE WEIGHT FUNCTION
 RADSAFE =     2.00
 TOLERANCES - DENSITY:10**- 6; POTENTIAL:10**- 9; GRID WGT:10**-14

 RADIAL INTEGRATION  - INTERVALS (POINTS,UPPER LIMIT):            1( 75,  4.0*R)

 ANGULAR INTEGRATION - INTERVALS (ACCURACY LEVEL [N. POINTS] UPPER LIMIT):
  1(  4[  86]   0.2)  2(  8[ 194]   0.5)  3( 12[ 350]   0.9)  4( 16[ 974]   3.5)
  5( 12[ 350]9999.0)
 TTTTTTTTTTTTTTTTTTTTTTTTTTTTTT INT_CALC    TELAPSE   384491.01 TCPU   381071.07
 CYCLE   0   ALPHA 1407.871061  EPSILON    4.588954  DELTA    1.4079E+03
 TTTTTTTTTTTTTTTTTTTTTTTTTTTTTT MOQGAD      TELAPSE   386082.44 TCPU   382656.94
 TTTTTTTTTTTTTTTTTTTTTTTTTTTTTT CP_MONMON   TELAPSE   386115.31 TCPU   382689.72
 DIIS TEST: 0.31847E+03 AT CPHF  CYCLE   1 - MIX    0 %
 CYCLE   1   ALPHA  269.797235  EPSILON    1.687769  DELTA   -1.1381E+03
 TTTTTTTTTTTTTTTTTTTTTTTTTTTTTT MOQGAD      TELAPSE   387716.53 TCPU   384282.18
 TTTTTTTTTTTTTTTTTTTTTTTTTTTTTT CP_MONMON   TELAPSE   387749.44 TCPU   384314.99
 DIIS TEST: 0.24954E+04 AT CPHF  CYCLE   2 - DIIS ACTIVE - HISTORY:     2 CYCLES
 CYCLE   2   ALPHA  966.455068  EPSILON    3.463693  DELTA    6.9666E+02
 TTTTTTTTTTTTTTTTTTTTTTTTTTTTTT MOQGAD      TELAPSE   389377.94 TCPU   385933.53
 TTTTTTTTTTTTTTTTTTTTTTTTTTTTTT CP_MONMON   TELAPSE   389410.89 TCPU   385966.37
 DIIS TEST: 0.60341E+02 AT CPHF  CYCLE   3 - DIIS ACTIVE - HISTORY:     3 CYCLES
 CYCLE   3   ALPHA 1016.375740  EPSILON    3.590951  DELTA    4.9921E+01
 TTTTTTTTTTTTTTTTTTTTTTTTTTTTTT MOQGAD      TELAPSE   391022.14 TCPU   387571.22
 TTTTTTTTTTTTTTTTTTTTTTTTTTTTTT CP_MONMON   TELAPSE   391055.01 TCPU   387604.00
 DIIS TEST: 0.44098E+01 AT CPHF  CYCLE   4 - DIIS ACTIVE - HISTORY:     4 CYCLES
 CYCLE   4   ALPHA 1029.113922  EPSILON    3.623424  DELTA    1.2738E+01
 TTTTTTTTTTTTTTTTTTTTTTTTTTTTTT MOQGAD      TELAPSE   392665.64 TCPU   389209.07
 TTTTTTTTTTTTTTTTTTTTTTTTTTTTTT CP_MONMON   TELAPSE   392698.21 TCPU   389241.50
 DIIS TEST: 0.11765E+01 AT CPHF  CYCLE   5 - DIIS ACTIVE - HISTORY:     5 CYCLES
 CYCLE   5   ALPHA 1032.883941  EPSILON    3.633034  DELTA    3.7700E+00
 TTTTTTTTTTTTTTTTTTTTTTTTTTTTTT MOQGAD      TELAPSE   394324.90 TCPU   390859.54
 TTTTTTTTTTTTTTTTTTTTTTTTTTTTTT CP_MONMON   TELAPSE   394357.80 TCPU   390892.32
 DIIS TEST: 0.89148E-01 AT CPHF  CYCLE   6 - DIIS ACTIVE - HISTORY:     6 CYCLES
 CYCLE   6   ALPHA 1034.328898  EPSILON    3.636718  DELTA    1.4450E+00
 TTTTTTTTTTTTTTTTTTTTTTTTTTTTTT MOQGAD      TELAPSE   395963.47 TCPU   392492.04
 TTTTTTTTTTTTTTTTTTTTTTTTTTTTTT CP_MONMON   TELAPSE   395996.21 TCPU   392524.69
 DIIS TEST: 0.12340E-01 AT CPHF  CYCLE   7 - DIIS ACTIVE - HISTORY:     7 CYCLES
 CYCLE   7   ALPHA 1034.629445  EPSILON    3.637484  DELTA    3.0055E-01
 TTTTTTTTTTTTTTTTTTTTTTTTTTTTTT MOQGAD      TELAPSE   397607.97 TCPU   394124.71
 TTTTTTTTTTTTTTTTTTTTTTTTTTTTTT CP_MONMON   TELAPSE   397640.87 TCPU   394157.48
 DIIS TEST: 0.10155E-02 AT CPHF  CYCLE   8 - DIIS ACTIVE - HISTORY:     8 CYCLES
 CYCLE   8   ALPHA 1034.661420  EPSILON    3.637565  DELTA    3.1975E-02
 TTTTTTTTTTTTTTTTTTTTTTTTTTTTTT MOQGAD      TELAPSE   399271.78 TCPU   395772.76
 TTTTTTTTTTTTTTTTTTTTTTTTTTTTTT CP_MONMON   TELAPSE   399304.38 TCPU   395805.20
 DIIS TEST: 0.14706E-02 AT CPHF  CYCLE   9 - DIIS ACTIVE - HISTORY:     9 CYCLES
 CYCLE   9   ALPHA 1034.663932  EPSILON    3.637572  DELTA    2.5117E-03
 TTTTTTTTTTTTTTTTTTTTTTTTTTTTTT MOQGAD      TELAPSE   400956.82 TCPU   397446.07
 TTTTTTTTTTTTTTTTTTTTTTTTTTTTTT CP_MONMON   TELAPSE   400989.42 TCPU   397478.49
 DIIS TEST: 0.10103E-02 AT CPHF  CYCLE  10 - DIIS ACTIVE - HISTORY:    10 CYCLES
 CYCLE  10   ALPHA 1034.647112  EPSILON    3.637529  DELTA   -1.6820E-02
 TTTTTTTTTTTTTTTTTTTTTTTTTTTTTT MOQGAD      TELAPSE   402594.57 TCPU   399072.91
 TTTTTTTTTTTTTTTTTTTTTTTTTTTTTT CP_MONMON   TELAPSE   402627.34 TCPU   399105.57
 DIIS TEST: 0.23907E-04 AT CPHF  CYCLE  11 - DIIS ACTIVE - HISTORY:    11 CYCLES
 CYCLE  11   ALPHA 1034.627864  EPSILON    3.637480  DELTA   -1.9248E-02
 TTTTTTTTTTTTTTTTTTTTTTTTTTTTTT MOQGAD      TELAPSE   404232.60 TCPU   400699.51
 TTTTTTTTTTTTTTTTTTTTTTTTTTTTTT CP_MONMON   TELAPSE   404265.46 TCPU   400732.27
 DIIS TEST: 0.48306E-05 AT CPHF  CYCLE  12 - DIIS ACTIVE - HISTORY:    12 CYCLES
 CYCLE  12   ALPHA 1034.621955  EPSILON    3.637465  DELTA   -5.9088E-03
 TTTTTTTTTTTTTTTTTTTTTTTTTTTTTT MOQGAD      TELAPSE   405866.44 TCPU   402326.58
 TTTTTTTTTTTTTTTTTTTTTTTTTTTTTT CP_MONMON   TELAPSE   405899.07 TCPU   402359.00
 DIIS TEST: 0.73184E-06 AT CPHF  CYCLE  13 - DIIS ACTIVE - HISTORY:    13 CYCLES
 CYCLE  13   ALPHA 1034.619876  EPSILON    3.637460  DELTA   -2.0787E-03
 TTTTTTTTTTTTTTTTTTTTTTTTTTTTTT MOQGAD      TELAPSE   407503.95 TCPU   403954.16
 TTTTTTTTTTTTTTTTTTTTTTTTTTTTTT CP_MONMON   TELAPSE   407536.83 TCPU   403986.96
 DIIS TEST: 0.47387E-07 AT CPHF  CYCLE  14 - DIIS ACTIVE - HISTORY:    14 CYCLES
 CYCLE  14   ALPHA 1034.619318  EPSILON    3.637458  DELTA   -5.5787E-04
 TTTTTTTTTTTTTTTTTTTTTTTTTTTTTT CP_SC       TELAPSE   407587.85 TCPU   404032.58

 *******************************************************************************

 ELECTRIC FIELD APPLIED ALONG CARTESIAN DIRECTION Z

 *******************************************************************************
 THE NUMBER OF SYMMETRY OPERATORS HAS BEEN REDUCED FROM  4 TO  2

 NEW GRID IN RECIPROCAL SPACE
 *******************************************************************************
 POINTS IN THE IBZ                  10 SHRINKING FACTORS               3  3  3
 *******************************************************************************
 *** K POINTS COORDINATES (OBLIQUE COORDINATES IN UNITS OF SHRINK FAC. )
   1-R(  0  0  0)   2-C(  1  0  0)   3-C(  2  0  1)   4-C(  1  1  0)
   5-C(  1  0  1)   6-C(  2  1  0)   7-C(  0  0  2)   8-C(  2  1  1)
   9-C(  2  1  2)  10-C(  2  2  1)

 GCALCO - MAX INDICES DIRECT LATTICE VECTOR    14    14    16
 NO.OF VECTORS CREATED 6999 STARS  487 RMAX   202.74626 BOHR
 TTTTTTTTTTTTTTTTTTTTTTTTTTTTTT gordsh1     TELAPSE   407587.86 TCPU   404032.59

 MATRIX SIZE: P(G) 1846032, F(G)  923780, P(G) IRR  465194, F(G) IRR  465194
 MAX G-VECTOR INDEX FOR 1- AND 2-ELECTRON INTEGRALS  59

 TTTTTTTTTTTTTTTTTTTTTTTTTTTTTT INPUT       TELAPSE   407587.95 TCPU   404032.68
 TTTTTTTTTTTTTTTTTTTTTTTTTTTTTT SYMM        TELAPSE   407587.95 TCPU   404032.68

 ***** NEW REFERENCE GEOMETRY *****
 TTTTTTTTTTTTTTTTTTTTTTTTTTTTTT INT_SCREEN  TELAPSE   407587.96 TCPU   404032.69
 INFORMATION **** EXCBUF **** EXCH. BIPO BUFFER: WORDS USED =           0

 DFT PARAMETERS

     ATOM       ELECTRONS   NET CHARGE   R(ANGSTROM)
   1   1  H       1.0000      0.0000     1.11000000
  13   6  C       6.0000      0.0000     0.77000000
  37   7  N       7.0000      0.0000     0.74000000
  57  17  CL     17.0000      0.0000     0.99000000
  61  30  ZN     30.0000      0.0000     1.37000000

 SIZE OF GRID=     912856
 TTTTTTTTTTTTTTTTTTTTTTTTTTTTTT MAKE_GRID2  TELAPSE   407589.47 TCPU   404034.19
 BECKE WEIGHT FUNCTION
 RADSAFE =     2.00
 TOLERANCES - DENSITY:10**- 6; POTENTIAL:10**- 9; GRID WGT:10**-14

 RADIAL INTEGRATION  - INTERVALS (POINTS,UPPER LIMIT):            1( 75,  4.0*R)

 ANGULAR INTEGRATION - INTERVALS (ACCURACY LEVEL [N. POINTS] UPPER LIMIT):
  1(  4[  86]   0.2)  2(  8[ 194]   0.5)  3( 12[ 350]   0.9)  4( 16[ 974]   3.5)
  5( 12[ 350]9999.0)
 TTTTTTTTTTTTTTTTTTTTTTTTTTTTTT INT_CALC    TELAPSE   407589.54 TCPU   404034.27
 CYCLE   0   ALPHA  628.047804  EPSILON    2.601023  DELTA    6.2805E+02
 TTTTTTTTTTTTTTTTTTTTTTTTTTTTTT MOQGAD      TELAPSE   408389.86 TCPU   404831.37
 TTTTTTTTTTTTTTTTTTTTTTTTTTTTTT CP_MONMON   TELAPSE   408407.22 TCPU   404848.69
 DIIS TEST: 0.64898E+02 AT CPHF  CYCLE   1 - MIX    0 %
 CYCLE   1   ALPHA  350.356310  EPSILON    1.893131  DELTA   -2.7769E+02
 TTTTTTTTTTTTTTTTTTTTTTTTTTTTTT MOQGAD      TELAPSE   409216.40 TCPU   405652.63
 TTTTTTTTTTTTTTTTTTTTTTTTTTTTTT CP_MONMON   TELAPSE   409233.84 TCPU   405669.99
 DIIS TEST: 0.32301E+03 AT CPHF  CYCLE   2 - DIIS ACTIVE - HISTORY:     2 CYCLES
 CYCLE   2   ALPHA  469.727388  EPSILON    2.197432  DELTA    1.1937E+02
 TTTTTTTTTTTTTTTTTTTTTTTTTTTTTT MOQGAD      TELAPSE   410044.30 TCPU   406474.90
 TTTTTTTTTTTTTTTTTTTTTTTTTTTTTT CP_MONMON   TELAPSE   410061.70 TCPU   406492.24
 DIIS TEST: 0.29050E+02 AT CPHF  CYCLE   3 - DIIS ACTIVE - HISTORY:     3 CYCLES
 CYCLE   3   ALPHA  498.295326  EPSILON    2.270258  DELTA    2.8568E+01
 TTTTTTTTTTTTTTTTTTTTTTTTTTTTTT MOQGAD      TELAPSE   410876.14 TCPU   407298.81
 TTTTTTTTTTTTTTTTTTTTTTTTTTTTTT CP_MONMON   TELAPSE   410893.53 TCPU   407316.09
 DIIS TEST: 0.17924E+01 AT CPHF  CYCLE   4 - DIIS ACTIVE - HISTORY:     4 CYCLES
 CYCLE   4   ALPHA  498.931472  EPSILON    2.271879  DELTA    6.3615E-01
 TTTTTTTTTTTTTTTTTTTTTTTTTTTTTT MOQGAD      TELAPSE   411705.22 TCPU   408120.93
 TTTTTTTTTTTTTTTTTTTTTTTTTTTTTT CP_MONMON   TELAPSE   411722.63 TCPU   408138.30
 DIIS TEST: 0.64121E+00 AT CPHF  CYCLE   5 - DIIS ACTIVE - HISTORY:     5 CYCLES
 CYCLE   5   ALPHA  498.963815  EPSILON    2.271962  DELTA    3.2343E-02
 TTTTTTTTTTTTTTTTTTTTTTTTTTTTTT MOQGAD      TELAPSE   412531.89 TCPU   408941.85
 TTTTTTTTTTTTTTTTTTTTTTTTTTTTTT CP_MONMON   TELAPSE   412549.30 TCPU   408959.12
 DIIS TEST: 0.11950E+01 AT CPHF  CYCLE   6 - DIIS ACTIVE - HISTORY:     6 CYCLES
 CYCLE   6   ALPHA  499.241857  EPSILON    2.272670  DELTA    2.7804E-01
 TTTTTTTTTTTTTTTTTTTTTTTTTTTTTT MOQGAD      TELAPSE   413359.87 TCPU   409764.60
 TTTTTTTTTTTTTTTTTTTTTTTTTTTTTT CP_MONMON   TELAPSE   413377.26 TCPU   409781.95
 DIIS TEST: 0.27703E-01 AT CPHF  CYCLE   7 - DIIS ACTIVE - HISTORY:     7 CYCLES
 CYCLE   7   ALPHA  499.437635  EPSILON    2.273170  DELTA    1.9578E-01
 TTTTTTTTTTTTTTTTTTTTTTTTTTTTTT MOQGAD      TELAPSE   414188.00 TCPU   410584.80
 TTTTTTTTTTTTTTTTTTTTTTTTTTTTTT CP_MONMON   TELAPSE   414205.39 TCPU   410602.15
 DIIS TEST: 0.29055E-01 AT CPHF  CYCLE   8 - DIIS ACTIVE - HISTORY:     8 CYCLES
 CYCLE   8   ALPHA  499.457296  EPSILON    2.273220  DELTA    1.9661E-02
 TTTTTTTTTTTTTTTTTTTTTTTTTTTTTT MOQGAD      TELAPSE   415016.71 TCPU   411406.59
 TTTTTTTTTTTTTTTTTTTTTTTTTTTTTT CP_MONMON   TELAPSE   415034.03 TCPU   411423.81
 DIIS TEST: 0.23143E-01 AT CPHF  CYCLE   9 - DIIS ACTIVE - HISTORY:     9 CYCLES
 CYCLE   9   ALPHA  499.454387  EPSILON    2.273212  DELTA   -2.9097E-03
 TTTTTTTTTTTTTTTTTTTTTTTTTTTTTT MOQGAD      TELAPSE   415847.73 TCPU   412229.19
 TTTTTTTTTTTTTTTTTTTTTTTTTTTTTT CP_MONMON   TELAPSE   415865.05 TCPU   412246.44
 DIIS TEST: 0.49429E-02 AT CPHF  CYCLE  10 - DIIS ACTIVE - HISTORY:    10 CYCLES
 CYCLE  10   ALPHA  499.445123  EPSILON    2.273189  DELTA   -9.2635E-03
 TTTTTTTTTTTTTTTTTTTTTTTTTTTTTT MOQGAD      TELAPSE   416674.84 TCPU   413050.82
 TTTTTTTTTTTTTTTTTTTTTTTTTTTTTT CP_MONMON   TELAPSE   416692.22 TCPU   413068.12
 DIIS TEST: 0.18164E-02 AT CPHF  CYCLE  11 - DIIS ACTIVE - HISTORY:    11 CYCLES
 CYCLE  11   ALPHA  499.447024  EPSILON    2.273194  DELTA    1.9005E-03
 TTTTTTTTTTTTTTTTTTTTTTTTTTTTTT MOQGAD      TELAPSE   417502.63 TCPU   413871.48
 TTTTTTTTTTTTTTTTTTTTTTTTTTTTTT CP_MONMON   TELAPSE   417520.02 TCPU   413888.81
 DIIS TEST: 0.45032E-02 AT CPHF  CYCLE  12 - DIIS ACTIVE - HISTORY:    12 CYCLES
 CYCLE  12   ALPHA  499.445772  EPSILON    2.273190  DELTA   -1.2514E-03
 TTTTTTTTTTTTTTTTTTTTTTTTTTTTTT MOQGAD      TELAPSE   418330.67 TCPU   414695.34
 TTTTTTTTTTTTTTTTTTTTTTTTTTTTTT CP_MONMON   TELAPSE   418348.07 TCPU   414712.65
 DIIS TEST: 0.11245E-02 AT CPHF  CYCLE  13 - DIIS ACTIVE - HISTORY:    13 CYCLES
 CYCLE  13   ALPHA  499.442690  EPSILON    2.273182  DELTA   -3.0828E-03
 TTTTTTTTTTTTTTTTTTTTTTTTTTTTTT MOQGAD      TELAPSE   419160.72 TCPU   415518.55
 TTTTTTTTTTTTTTTTTTTTTTTTTTTTTT CP_MONMON   TELAPSE   419178.13 TCPU   415535.86
 DIIS TEST: 0.23617E-03 AT CPHF  CYCLE  14 - DIIS ACTIVE - HISTORY:    14 CYCLES
 CYCLE  14   ALPHA  499.442801  EPSILON    2.273183  DELTA    1.1093E-04
 TTTTTTTTTTTTTTTTTTTTTTTTTTTTTT CP_SC       TELAPSE   419216.11 TCPU   415566.76

 *******************************************************************************

 POLARIZABILITY (ALPHA), DIELECTRIC (EPSILON) AND FIRST-ORDER ELECTRIC
 SUSCEPTIBILITY (CHI(1)) TENSORS (INDEPENDENT COMPONENTS)

  FR.(eV) COMP.   ALPHA(Re,Im)           EPSILON(Re,Im)                CHI(1)
  1.165   XX    1034.6193       0.0000       3.6375       0.0000       2.6375
  1.165   ZZ     499.4428       0.0000       2.2732       0.0000       1.2732

 DIELECTRIC TENSOR

 TENSOR IN PRINCIPAL AXES SYSTEM
 AA  3.637458E+00 BB  3.637458E+00 CC  2.273183E+00

 REFRACTIVE INDICES 
 AA  1.507708E+00 BB  1.907212E+00 CC  1.907212E+00

 OPTICALLY ANISOTROPIC - UNIAXIAL CRYSTAL

 BIREFRINGENCE =  0.3995 (NEGATIVE) - OBLATE OPTICAL ELLIPSOID

 EPSILON=N**2=1+CHI(1)=1+ALPHA*4*PI/V,   4*PI/V=   0.00255 BOHR**(-3)
 ALPHA IN BOHR**3; EPSILON AND CHI(1) ARE DIMENSIONLESS.
 *******************************************************************************


 GCALCO - MAX INDICES DIRECT LATTICE VECTOR    14    14    16
 NO.OF VECTORS CREATED 6999 STARS  487 RMAX   202.74626 BOHR

 CAPPA:IS1  3;IS2  3;IS3  3; K PTS MONK NET   6; SYMMOPS:K SPACE   8;G SPACE   4

 TTTTTTTTTTTTTTTTTTTTTTTTTTTTTT END         TELAPSE   419216.20 TCPU   415566.77
 EEEEEEEEEE TERMINATION  DATE 08 12 2023 TIME 07:55:59.4
NODE    0 CPU TIME =    415566.772
NODE    1 CPU TIME =    416596.999
NODE    2 CPU TIME =    416326.161
NODE    3 CPU TIME =    416308.576
NODE    4 CPU TIME =    416213.173
NODE    5 CPU TIME =    416564.563
NODE    6 CPU TIME =    416480.558
NODE    7 CPU TIME =    416276.458
NODE    8 CPU TIME =    416150.421
NODE    9 CPU TIME =    416596.611
NODE   10 CPU TIME =    416013.173
NODE   11 CPU TIME =    416181.325
NODE   12 CPU TIME =    415875.995
NODE   13 CPU TIME =    416222.169
NODE   14 CPU TIME =    415564.572
NODE   15 CPU TIME =    415780.970
NODE   16 CPU TIME =    415346.341
NODE   17 CPU TIME =    415792.869
NODE   18 CPU TIME =    415633.502
NODE   19 CPU TIME =    415467.452
NODE   20 CPU TIME =    415387.145
NODE   21 CPU TIME =    415795.528
NODE   22 CPU TIME =    415537.343
NODE   23 CPU TIME =    414777.109
    TOTAL CPU TIME =   9982455.785
trying normal rsh (/usr/bin/rsh)
exec: No such file or directory
trying normal rsh (/usr/bin/rsh)
exec: No such file or directory
trying normal rsh (/usr/bin/rsh)
exec: No such file or directory
trying normal rsh (/usr/bin/rsh)
exec: No such file or directory
