Loading crystal17/1.0.2/intel/19.0
  Loading requirement: intel/19.0 ompi/4.0.1/intel/19.0
          64 PROCESSORS WORKING

         
 *******************************************************************************
 *                                                                             *
 *                               CRYSTAL17                                     *
 *                      public : 1.0.2 - March 1st, 2018                       *
 *                       HTTP://WWW.CRYSTAL.UNITO.IT                           *
 *                                                                             *
 *                              MAIN AUTHORS                                   *
 *                                                                             *
 *  R. DOVESI(1,11), V.R. SAUNDERS(2), C. ROETTI(1,11), R. ORLANDO(1,11),      *
 *  C.M. ZICOVICH-WILSON(1,3), F. PASCALE(4), B. CIVALLERI(1,11),              *
 *  K. DOLL(5), N.M. HARRISON(2,6), I.J. BUSH(7), Ph. D'ARCO(8),               *
 *  M. LLUNELL(9), M. CAUSA'(10), Y. NOEL(8), L. MASCHIO(1,11), A. ERBA(1,11)  *
 *  M. RE'RAT(14), S. CASASSA(1,11)                                            *
 *                                                                             *
 *        CONTRIBUTIONS TO THE CODE HAVE ALSO BEEN GIVEN BY                    *
 *                                                                             *
 *  M. FERRABONE(1,11), M. DE LA PIERRE(1,11), M. FERRERO(1,11),               *
 *  J. BAIMA(1,11), E. ALBANESE(1,11), M.F. PEINTINGER(12), R. BAST(13),       *
 *  B. KIRTMAN(15), V. LACIVITA(1,11), R. DEMICHELIS(1,16)                     *
 *  G. BRANDEBURG(17), S. SALUSTRO(1,11), G. SANSONE(1,11)                     *
 *  M.T. RUGGIERO(18)                                                          *
 *                                                                             *
 * (1) THEORETICAL CHEMISTRY GROUP - UNIVERSITA' DI TORINO - TORINO (ITALY)    *
 * (2) COMPUTATIONAL SCIENCE & ENGINEERING DEPARTMENT - STFC DARESBURY (UK)    *
 * (3) UNIVERSIDAD AUTONOMA DEL ESTADO DE MORELOS - CUERNAVACA (MEXICO)        *
 * (4) UNIVERSITE' DE LORRAINE - NANCY (FRANCE)                                *
 * (5) UNIVERSITAET STUTTGART- STUTTGART (GERMANY)                             *
 * (6) IMPERIAL COLLEGE - LONDON (UK)                                          *
 * (7) OXFORD E-RESEARCH CENTRE - OXFORD (UK)                                  *
 * (8) UPMC - SORBONNE UNIVERSITES - PARIS (FRANCE)                            *
 * (9) UNIVERSIDAD DE BARCELONA - BARCELONA (SPAIN)                            *
 *(10) UNIVERSITA' DI NAPOLI "FEDERICO II" - NAPOLI (ITALY)                    *
 *(11) NIS - NANOSTRUCTURED INTERFACES AND SURFACES - TORINO (ITALY)           *
 *(12) MPI FUER CHEMISCHE ENERGIEKONVERSION - MUELHEIM AN DER RUHR (GERMANY)   *
 *(13) UNIVERSITY OF TROMSO - TROMSO (NORWAY)                                  *
 *(14) UNIVERSITE' DE PAU ET DES PAYS DE L'ADOUR - PAU (FRANCE)                *
 *(15) UNIVERSITY OF CALIFORNIA SANTA BARBARA - SANTA BARBARA (USA)            *
 *(16) CURTIN UNIVERSITY - PERTH (AUSTRALIA)                                   *
 *(17) UNIVERSITY COLLEGE LONDON - LONDON (UK)                                 *
 *(18) CAMBRIDGE UNIVERSITY - CAMBRIDGE (UK)                                   *
 *                                                                             *
 *******************************************************************************
 EEEEEEEEEE STARTING  DATE 17 01 2024 TIME 15:41:30.4
 Z:\home\sanoj\Downloads\tmp_p\newconn.mol                                       

 CRYSTAL CALCULATION
 (INPUT ACCORDING TO THE INTERNATIONAL TABLES FOR X-RAY CRYSTALLOGRAPHY)
 CRYSTAL FAMILY                       :  TETRAGONAL  
 CRYSTAL CLASS  (GROTH - 1921)        :  TETRAGONAL DISPHENOIDAL              

 SPACE GROUP (NONCENTROSYMMETRIC)     :  I -4            

 LATTICE PARAMETERS  (ANGSTROMS AND DEGREES) - CONVENTIONAL CELL
        A           B           C        ALPHA        BETA       GAMMA
     9.95198     9.95198    14.58508    90.00000    90.00000    90.00000


 NUMBER OF IRREDUCIBLE ATOMS IN THE CONVENTIONAL CELL:   17

 INPUT COORDINATES

 ATOM AT. N.              COORDINATES
   1   1     7.421200000000E-01  4.493000000000E-01  1.657500000000E-01
   2   1    -1.106000000000E-02  3.975800000000E-01  1.871700000000E-01
   3   1     6.895000000000E-02  1.592200000000E-01  1.646200000000E-01
   4   6     6.956900000000E-01  2.455100000000E-01  1.237300000000E-01
   5   6     5.490700000000E-01  2.559200000000E-01  1.280200000000E-01
   6   6     7.820500000000E-01  3.486400000000E-01  1.529800000000E-01
   7   6    -3.546000000000E-02  1.887900000000E-01  1.518600000000E-01
   8   6     7.575600000000E-01  1.232900000000E-01  9.962000000000E-02
   9   6     8.199000000000E-02  6.800300000000E-01  1.661400000000E-01
  10   7     4.713000000000E-01  1.761800000000E-01  1.818700000000E-01
  11   7     3.417700000000E-01  2.232100000000E-01  1.743200000000E-01
  12   7     4.699700000000E-01  3.482600000000E-01  8.705000000000E-02
  13   7     3.404000000000E-01  3.265100000000E-01  1.178600000000E-01
  14   7     8.844400000000E-01  9.316000000000E-02  1.162900000000E-01
  15  17     6.633800000000E-01  7.350000000000E-03  3.714000000000E-02
  16  30     0.000000000000E+00  5.000000000000E-01  7.500000000000E-01
  17  30     0.000000000000E+00  0.000000000000E+00  5.000000000000E-01

 *******************************************************************************

 << INFORMATION >>: FROM NOW ON, ALL COORDINATES REFER TO THE PRIMITIVE CELL

 *******************************************************************************

 LATTICE PARAMETERS  (ANGSTROMS AND DEGREES) - PRIMITIVE CELL
       A          B          C        ALPHA      BETA     GAMMA        VOLUME
   10.13421   10.13421   10.13421   121.18608 121.18608  87.95764    722.267597

 COORDINATES OF THE EQUIVALENT ATOMS (FRACTIONAL UNITS)

 N. ATOM EQUIV AT. N.          X                  Y                  Z

   1   1   1    1 H    -3.84950000000E-01 -9.21300000000E-02  1.91420000000E-01
   2   1   2    1 H    -2.83550000000E-01  4.23630000000E-01 -1.91420000000E-01
   3   1   3    1 H     9.21300000000E-02  2.83550000000E-01 -2.92820000000E-01
   4   1   4    1 H    -4.23630000000E-01  3.84950000000E-01  2.92820000000E-01

   5   2   1    1 H    -4.15250000000E-01  1.76110000000E-01  3.86520000000E-01
   6   2   2    1 H    -2.10410000000E-01  1.98230000000E-01 -3.86520000000E-01
   7   2   3    1 H    -1.76110000000E-01  2.10410000000E-01  4.08640000000E-01
   8   2   4    1 H    -1.98230000000E-01  4.15250000000E-01 -4.08640000000E-01

   9   3   1    1 H     3.23840000000E-01  2.33570000000E-01  2.28170000000E-01
  10   3   2    1 H     5.40000000000E-03  9.56700000000E-02 -2.28170000000E-01
  11   3   3    1 H    -2.33570000000E-01 -5.40000000000E-03  9.02700000000E-02
  12   3   4    1 H    -9.56700000000E-02 -3.23840000000E-01 -9.02700000000E-02

  13   4   1    6 C     3.69240000000E-01 -1.80580000000E-01 -5.88000000000E-02
  14   4   2    6 C    -1.21780000000E-01  4.28040000000E-01  5.88000000000E-02
  15   4   3    6 C     1.80580000000E-01  1.21780000000E-01 -4.50180000000E-01
  16   4   4    6 C    -4.28040000000E-01 -3.69240000000E-01  4.50180000000E-01

  17   5   1    6 C     3.83940000000E-01 -3.22910000000E-01 -1.95010000000E-01
  18   5   2    6 C    -1.27900000000E-01 -4.21050000000E-01  1.95010000000E-01
  19   5   3    6 C     3.22910000000E-01  1.27900000000E-01 -2.93150000000E-01
  20   5   4    6 C     4.21050000000E-01 -3.83940000000E-01  2.93150000000E-01

  21   6   1    6 C    -4.98380000000E-01 -6.49700000000E-02  1.30690000000E-01
  22   6   2    6 C    -1.95660000000E-01  3.70930000000E-01 -1.30690000000E-01
  23   6   3    6 C     6.49700000000E-02  1.95660000000E-01 -4.33410000000E-01
  24   6   4    6 C    -3.70930000000E-01  4.98380000000E-01  4.33410000000E-01

  25   7   1    6 C     3.40650000000E-01  1.16400000000E-01  1.53330000000E-01
  26   7   2    6 C    -3.69300000000E-02  1.87320000000E-01 -1.53330000000E-01
  27   7   3    6 C    -1.16400000000E-01  3.69300000000E-02  2.24250000000E-01
  28   7   4    6 C    -1.87320000000E-01 -3.40650000000E-01 -2.24250000000E-01

  29   8   1    6 C     2.22910000000E-01 -1.42820000000E-01 -1.19150000000E-01
  30   8   2    6 C    -2.36700000000E-02  3.42060000000E-01  1.19150000000E-01
  31   8   3    6 C     1.42820000000E-01  2.36700000000E-02  3.65730000000E-01
  32   8   4    6 C    -3.42060000000E-01 -2.22910000000E-01 -3.65730000000E-01

  33   9   1    6 C    -1.53830000000E-01  2.48130000000E-01 -2.37980000000E-01
  34   9   2    6 C     4.86110000000E-01  8.41500000000E-02  2.37980000000E-01
  35   9   3    6 C    -2.48130000000E-01 -4.86110000000E-01 -4.01960000000E-01
  36   9   4    6 C    -8.41500000000E-02  1.53830000000E-01  4.01960000000E-01

  37  10   1    7 N     3.58050000000E-01 -3.46830000000E-01 -3.52520000000E-01
  38  10   2    7 N     5.69000000000E-03 -2.89430000000E-01  3.52520000000E-01
  39  10   3    7 N     3.46830000000E-01 -5.69000000000E-03 -2.95120000000E-01
  40  10   4    7 N     2.89430000000E-01 -3.58050000000E-01  2.95120000000E-01

  41  11   1    7 N     3.97530000000E-01 -4.83910000000E-01 -4.35020000000E-01
  42  11   2    7 N    -4.88900000000E-02 -1.67450000000E-01  4.35020000000E-01
  43  11   3    7 N     4.83910000000E-01  4.88900000000E-02 -1.18560000000E-01
  44  11   4    7 N     1.67450000000E-01 -3.97530000000E-01  1.18560000000E-01

  45  12   1    7 N     4.35310000000E-01 -4.42980000000E-01 -1.81770000000E-01
  46  12   2    7 N    -2.61210000000E-01 -3.82920000000E-01  1.81770000000E-01
  47  12   3    7 N     4.42980000000E-01  2.61210000000E-01 -1.21710000000E-01
  48  12   4    7 N     3.82920000000E-01 -4.35310000000E-01  1.21710000000E-01

  49  13   1    7 N     4.44370000000E-01  4.58260000000E-01 -3.33090000000E-01
  50  13   2    7 N    -2.08650000000E-01 -2.22540000000E-01  3.33090000000E-01
  51  13   3    7 N    -4.58260000000E-01  2.08650000000E-01 -1.38900000000E-02
  52  13   4    7 N     2.22540000000E-01 -4.44370000000E-01  1.38900000000E-02

  53  14   1    7 N     2.09450000000E-01  7.30000000000E-04 -2.24000000000E-02
  54  14   2    7 N     2.31300000000E-02  2.31850000000E-01  2.24000000000E-02
  55  14   3    7 N    -7.30000000000E-04 -2.31300000000E-02  2.08720000000E-01
  56  14   4    7 N    -2.31850000000E-01 -2.09450000000E-01 -2.08720000000E-01

  57  15   1   17 CL    4.44900000000E-02 -2.99480000000E-01 -3.29270000000E-01
  58  15   2   17 CL    2.97900000000E-02  3.73760000000E-01  3.29270000000E-01
  59  15   3   17 CL    2.99480000000E-01 -2.97900000000E-02  3.43970000000E-01
  60  15   4   17 CL   -3.73760000000E-01 -4.44900000000E-02 -3.43970000000E-01

  61  16   1   30 ZN    2.50000000000E-01 -2.50000000000E-01 -5.00000000000E-01

  62  17   1   30 ZN   -5.00000000000E-01 -5.00000000000E-01  0.00000000000E+00

 NUMBER OF SYMMETRY OPERATORS         :    4
 *******************************************************************************
 * GEOMETRY EDITING - INPUT COORDINATES ARE GIVEN IN ANGSTROM         
 *******************************************************************************

 GEOMETRY NOW FULLY CONSISTENT WITH THE GROUP

 GCALCO - MAX INDICES DIRECT LATTICE VECTOR    14    14    16
 NO.OF VECTORS CREATED 6999 STARS  478 RMAX   201.80709 BOHR

 GEOMETRY FOR WAVE FUNCTION - DIMENSIONALITY OF THE SYSTEM    3
 (NON PERIODIC DIRECTION: LATTICE PARAMETER FORMALLY SET TO 500)
 *******************************************************************************
 LATTICE PARAMETERS (ANGSTROMS AND DEGREES) - BOHR = 0.5291772083 ANGSTROM
 PRIMITIVE CELL - CENTRING CODE 6/0 VOLUME=   722.267597 - DENSITY  1.949 g/cm^3
         A              B              C           ALPHA      BETA       GAMMA 
    10.13420548    10.13420548    10.13420548   121.186077 121.186077  87.957645
 *******************************************************************************
 ATOMS IN THE ASYMMETRIC UNIT   17 - ATOMS IN THE UNIT CELL:   62
     ATOM                 X/A                 Y/B                 Z/C    
 *******************************************************************************
      1 T   1 H    -3.849500000000E-01 -9.213000000000E-02  1.914200000000E-01
      2 F   1 H    -2.835500000000E-01  4.236300000000E-01 -1.914200000000E-01
      3 F   1 H     9.213000000000E-02  2.835500000000E-01 -2.928200000000E-01
      4 F   1 H    -4.236300000000E-01  3.849500000000E-01  2.928200000000E-01
      5 T   1 H    -4.152500000000E-01  1.761100000000E-01  3.865200000000E-01
      6 F   1 H    -2.104100000000E-01  1.982300000000E-01 -3.865200000000E-01
      7 F   1 H    -1.761100000000E-01  2.104100000000E-01  4.086400000000E-01
      8 F   1 H    -1.982300000000E-01  4.152500000000E-01 -4.086400000000E-01
      9 T   1 H     3.238400000000E-01  2.335700000000E-01  2.281700000000E-01
     10 F   1 H     5.400000000000E-03  9.567000000000E-02 -2.281700000000E-01
     11 F   1 H    -2.335700000000E-01 -5.400000000000E-03  9.027000000000E-02
     12 F   1 H    -9.567000000000E-02 -3.238400000000E-01 -9.027000000000E-02
     13 T   6 C     3.692400000000E-01 -1.805800000000E-01 -5.880000000000E-02
     14 F   6 C    -1.217800000000E-01  4.280400000000E-01  5.880000000000E-02
     15 F   6 C     1.805800000000E-01  1.217800000000E-01 -4.501800000000E-01
     16 F   6 C    -4.280400000000E-01 -3.692400000000E-01  4.501800000000E-01
     17 T   6 C     3.839400000000E-01 -3.229100000000E-01 -1.950100000000E-01
     18 F   6 C    -1.279000000000E-01 -4.210500000000E-01  1.950100000000E-01
     19 F   6 C     3.229100000000E-01  1.279000000000E-01 -2.931500000000E-01
     20 F   6 C     4.210500000000E-01 -3.839400000000E-01  2.931500000000E-01
     21 T   6 C    -4.983800000000E-01 -6.497000000000E-02  1.306900000000E-01
     22 F   6 C    -1.956600000000E-01  3.709300000000E-01 -1.306900000000E-01
     23 F   6 C     6.497000000000E-02  1.956600000000E-01 -4.334100000000E-01
     24 F   6 C    -3.709300000000E-01  4.983800000000E-01  4.334100000000E-01
     25 T   6 C     3.406500000000E-01  1.164000000000E-01  1.533300000000E-01
     26 F   6 C    -3.693000000000E-02  1.873200000000E-01 -1.533300000000E-01
     27 F   6 C    -1.164000000000E-01  3.693000000000E-02  2.242500000000E-01
     28 F   6 C    -1.873200000000E-01 -3.406500000000E-01 -2.242500000000E-01
     29 T   6 C     2.229100000000E-01 -1.428200000000E-01 -1.191500000000E-01
     30 F   6 C    -2.367000000000E-02  3.420600000000E-01  1.191500000000E-01
     31 F   6 C     1.428200000000E-01  2.367000000000E-02  3.657300000000E-01
     32 F   6 C    -3.420600000000E-01 -2.229100000000E-01 -3.657300000000E-01
     33 T   6 C    -1.538300000000E-01  2.481300000000E-01 -2.379800000000E-01
     34 F   6 C     4.861100000000E-01  8.415000000000E-02  2.379800000000E-01
     35 F   6 C    -2.481300000000E-01 -4.861100000000E-01 -4.019600000000E-01
     36 F   6 C    -8.415000000000E-02  1.538300000000E-01  4.019600000000E-01
     37 T   7 N     3.580500000000E-01 -3.468300000000E-01 -3.525200000000E-01
     38 F   7 N     5.690000000000E-03 -2.894300000000E-01  3.525200000000E-01
     39 F   7 N     3.468300000000E-01 -5.690000000000E-03 -2.951200000000E-01
     40 F   7 N     2.894300000000E-01 -3.580500000000E-01  2.951200000000E-01
     41 T   7 N     3.975300000000E-01 -4.839100000000E-01 -4.350200000000E-01
     42 F   7 N    -4.889000000000E-02 -1.674500000000E-01  4.350200000000E-01
     43 F   7 N     4.839100000000E-01  4.889000000000E-02 -1.185600000000E-01
     44 F   7 N     1.674500000000E-01 -3.975300000000E-01  1.185600000000E-01
     45 T   7 N     4.353100000000E-01 -4.429800000000E-01 -1.817700000000E-01
     46 F   7 N    -2.612100000000E-01 -3.829200000000E-01  1.817700000000E-01
     47 F   7 N     4.429800000000E-01  2.612100000000E-01 -1.217100000000E-01
     48 F   7 N     3.829200000000E-01 -4.353100000000E-01  1.217100000000E-01
     49 T   7 N     4.443700000000E-01  4.582600000000E-01 -3.330900000000E-01
     50 F   7 N    -2.086500000000E-01 -2.225400000000E-01  3.330900000000E-01
     51 F   7 N    -4.582600000000E-01  2.086500000000E-01 -1.389000000000E-02
     52 F   7 N     2.225400000000E-01 -4.443700000000E-01  1.389000000000E-02
     53 T   7 N     2.094500000000E-01  7.299999999999E-04 -2.240000000000E-02
     54 F   7 N     2.313000000000E-02  2.318500000000E-01  2.240000000000E-02
     55 F   7 N    -7.300000000000E-04 -2.313000000000E-02  2.087200000000E-01
     56 F   7 N    -2.318500000000E-01 -2.094500000000E-01 -2.087200000000E-01
     57 T  17 CL    4.449000000000E-02 -2.994800000000E-01 -3.292700000000E-01
     58 F  17 CL    2.979000000000E-02  3.737600000000E-01  3.292700000000E-01
     59 F  17 CL    2.994800000000E-01 -2.979000000000E-02  3.439700000000E-01
     60 F  17 CL   -3.737600000000E-01 -4.449000000000E-02 -3.439700000000E-01
     61 T  30 ZN    2.500000000000E-01 -2.500000000000E-01 -5.000000000000E-01
     62 T  30 ZN   -5.000000000000E-01 -5.000000000000E-01 -6.661338147751E-16

 TRANSFORMATION MATRIX PRIMITIVE-CRYSTALLOGRAPHIC CELL
  0.0000  1.0000  1.0000  1.0000  0.0000  1.0000  1.0000  1.0000  0.0000

 *******************************************************************************
 CRYSTALLOGRAPHIC CELL (VOLUME=       1444.53519378)
         A              B              C           ALPHA      BETA       GAMMA 
     9.95198445     9.95198445    14.58507779    90.000000  90.000000  90.000000

 COORDINATES IN THE CRYSTALLOGRAPHIC CELL
     ATOM                 X/A                 Y/B                 Z/C    
 *******************************************************************************
      1 T   1 H     2.421200000000E-01 -5.070000000000E-02 -3.342500000000E-01
      2 F   1 H    -2.421200000000E-01  5.070000000000E-02 -3.342500000000E-01
      3 F   1 H    -5.070000000000E-02 -2.421200000000E-01  3.342500000000E-01
      4 F   1 H     5.070000000000E-02  2.421200000000E-01  3.342500000000E-01
      5 T   1 H    -1.106000000000E-02  3.975800000000E-01  1.871700000000E-01
      6 F   1 H     1.106000000000E-02 -3.975800000000E-01  1.871700000000E-01
      7 F   1 H     3.975800000000E-01  1.106000000000E-02 -1.871700000000E-01
      8 F   1 H    -3.975800000000E-01 -1.106000000000E-02 -1.871700000000E-01
      9 T   1 H     6.895000000000E-02  1.592200000000E-01  1.646200000000E-01
     10 F   1 H    -6.895000000000E-02 -1.592200000000E-01  1.646200000000E-01
     11 F   1 H     1.592200000000E-01 -6.895000000000E-02 -1.646200000000E-01
     12 F   1 H    -1.592200000000E-01  6.895000000000E-02 -1.646200000000E-01
     13 T   6 C    -3.043100000000E-01  2.455100000000E-01  1.237300000000E-01
     14 F   6 C     3.043100000000E-01 -2.455100000000E-01  1.237300000000E-01
     15 F   6 C     2.455100000000E-01  3.043100000000E-01 -1.237300000000E-01
     16 F   6 C    -2.455100000000E-01 -3.043100000000E-01 -1.237300000000E-01
     17 T   6 C    -4.509300000000E-01  2.559200000000E-01  1.280200000000E-01
     18 F   6 C     4.509300000000E-01 -2.559200000000E-01  1.280200000000E-01
     19 F   6 C     2.559200000000E-01  4.509300000000E-01 -1.280200000000E-01
     20 F   6 C    -2.559200000000E-01 -4.509300000000E-01 -1.280200000000E-01
     21 T   6 C    -2.179500000000E-01  3.486400000000E-01  1.529800000000E-01
     22 F   6 C     2.179500000000E-01 -3.486400000000E-01  1.529800000000E-01
     23 F   6 C     3.486400000000E-01  2.179500000000E-01 -1.529800000000E-01
     24 F   6 C    -3.486400000000E-01 -2.179500000000E-01 -1.529800000000E-01
     25 T   6 C    -3.546000000000E-02  1.887900000000E-01  1.518600000000E-01
     26 F   6 C     3.546000000000E-02 -1.887900000000E-01  1.518600000000E-01
     27 F   6 C     1.887900000000E-01  3.546000000000E-02 -1.518600000000E-01
     28 F   6 C    -1.887900000000E-01 -3.546000000000E-02 -1.518600000000E-01
     29 T   6 C    -2.424400000000E-01  1.232900000000E-01  9.962000000000E-02
     30 F   6 C     2.424400000000E-01 -1.232900000000E-01  9.962000000000E-02
     31 F   6 C     1.232900000000E-01  2.424400000000E-01 -9.962000000000E-02
     32 F   6 C    -1.232900000000E-01 -2.424400000000E-01 -9.962000000000E-02
     33 T   6 C     8.199000000000E-02 -3.199700000000E-01  1.661400000000E-01
     34 F   6 C    -8.199000000000E-02  3.199700000000E-01  1.661400000000E-01
     35 F   6 C    -3.199700000000E-01 -8.199000000000E-02 -1.661400000000E-01
     36 F   6 C     3.199700000000E-01  8.199000000000E-02 -1.661400000000E-01
     37 T   7 N    -2.870000000000E-02 -3.238200000000E-01 -3.181300000000E-01
     38 F   7 N     2.870000000000E-02  3.238200000000E-01 -3.181300000000E-01
     39 F   7 N    -3.238200000000E-01  2.870000000000E-02  3.181300000000E-01
     40 F   7 N     3.238200000000E-01 -2.870000000000E-02  3.181300000000E-01
     41 T   7 N     3.417700000000E-01  2.232100000000E-01  1.743200000000E-01
     42 F   7 N    -3.417700000000E-01 -2.232100000000E-01  1.743200000000E-01
     43 F   7 N     2.232100000000E-01 -3.417700000000E-01 -1.743200000000E-01
     44 F   7 N    -2.232100000000E-01  3.417700000000E-01 -1.743200000000E-01
     45 T   7 N     4.699700000000E-01  3.482600000000E-01  8.705000000000E-02
     46 F   7 N    -4.699700000000E-01 -3.482600000000E-01  8.705000000000E-02
     47 F   7 N     3.482600000000E-01 -4.699700000000E-01 -8.705000000000E-02
     48 F   7 N    -3.482600000000E-01  4.699700000000E-01 -8.705000000000E-02
     49 T   7 N     3.404000000000E-01  3.265100000000E-01  1.178600000000E-01
     50 F   7 N    -3.404000000000E-01 -3.265100000000E-01  1.178600000000E-01
     51 F   7 N     3.265100000000E-01 -3.404000000000E-01 -1.178600000000E-01
     52 F   7 N    -3.265100000000E-01  3.404000000000E-01 -1.178600000000E-01
     53 T   7 N    -1.155600000000E-01  9.316000000000E-02  1.162900000000E-01
     54 F   7 N     1.155600000000E-01 -9.316000000000E-02  1.162900000000E-01
     55 F   7 N     9.316000000000E-02  1.155600000000E-01 -1.162900000000E-01
     56 F   7 N    -9.316000000000E-02 -1.155600000000E-01 -1.162900000000E-01
     57 T  17 CL   -3.366200000000E-01  7.350000000000E-03  3.714000000000E-02
     58 F  17 CL    3.366200000000E-01 -7.350000000000E-03  3.714000000000E-02
     59 F  17 CL    7.350000000000E-03  3.366200000000E-01 -3.714000000000E-02
     60 F  17 CL   -7.350000000000E-03 -3.366200000000E-01 -3.714000000000E-02
     61 T  30 ZN   -5.000000000000E-01 -4.722714139150E-17  2.500000000000E-01
     62 T  30 ZN    5.000000000000E-01  5.000000000000E-01  4.440892098501E-16

 T = ATOM BELONGING TO THE ASYMMETRIC UNIT

 ****    4 SYMMOPS - TRANSLATORS IN FRACTIONAL UNITS
 **** MATRICES AND TRANSLATORS IN THE CRYSTALLOGRAPHIC REFERENCE FRAME
   V INV                    ROTATION MATRICES                   TRANSLATORS
   1   1  1.00  0.00  0.00  0.00  1.00  0.00  0.00  0.00  1.00  0.00  0.00  0.00
   2   2  0.00  1.00 -1.00  1.00  0.00 -1.00  0.00  0.00 -1.00  0.00  0.00  0.00
   3   4 -0.00 -1.00  0.00 -0.00 -1.00  1.00  1.00 -1.00  0.00  0.00  0.00  0.00
   4   3 -1.00 -0.00  1.00 -1.00 -0.00  0.00 -1.00  1.00  0.00  0.00  0.00  0.00

 DIRECT LATTICE VECTORS CARTESIAN COMPONENTS (ANGSTROM)
          X                    Y                    Z
  -0.497599222355E+01   0.497599222355E+01   0.729253889735E+01
   0.497599222355E+01  -0.497599222355E+01   0.729253889735E+01
   0.497599222355E+01   0.497599222355E+01  -0.729253889735E+01


 CARTESIAN COORDINATES - PRIMITIVE CELL
 *******************************************************************************
 *      ATOM          X(ANGSTROM)         Y(ANGSTROM)         Z(ANGSTROM)
 *******************************************************************************
    1     1 H     2.409574474332E+00 -5.045656114680E-01 -4.875062252878E+00
    2     1 H    -2.409574474332E+00  5.045656114680E-01 -4.875062252878E+00
    3     1 H    -5.045656114680E-01 -2.409574474332E+00  4.875062252878E+00
    4     1 H     5.045656114680E-01  2.409574474332E+00  4.875062252878E+00
    5     1 H    -1.100689479849E-01  3.956709976478E+00  2.729889010834E+00
    6     1 H     1.100689479849E-01 -3.956709976478E+00  2.729889010834E+00
    7     1 H     3.956709976478E+00  1.100689479849E-01 -2.729889010834E+00
    8     1 H    -3.956709976478E+00 -1.100689479849E-01 -2.729889010834E+00
    9     1 H     6.861893276275E-01  1.584554963667E+00  2.400995506564E+00
   10     1 H    -6.861893276275E-01 -1.584554963667E+00  2.400995506564E+00
   11     1 H     1.584554963667E+00 -6.861893276275E-01 -2.400995506564E+00
   12     1 H    -1.584554963667E+00  6.861893276275E-01 -2.400995506564E+00
   13     6 C    -3.028488387097E+00  2.443311701608E+00  1.804611675538E+00
   14     6 C     3.028488387097E+00 -2.443311701608E+00  1.804611675538E+00
   15     6 C     2.443311701608E+00  3.028488387097E+00 -1.804611675538E+00
   16     6 C    -2.443311701608E+00 -3.028488387097E+00 -1.804611675538E+00
   17     6 C    -4.487648346731E+00  2.546911859702E+00  1.867181659277E+00
   18     6 C     4.487648346731E+00 -2.546911859702E+00  1.867181659277E+00
   19     6 C     2.546911859702E+00  4.487648346731E+00 -1.867181659277E+00
   20     6 C    -2.546911859702E+00 -4.487648346731E+00 -1.867181659277E+00
   21     6 C    -2.169035010245E+00  3.469659857637E+00  2.231225201033E+00
   22     6 C     2.169035010245E+00 -3.469659857637E+00  2.231225201033E+00
   23     6 C     3.469659857637E+00  2.169035010245E+00 -2.231225201033E+00
   24     6 C    -3.469659857637E+00 -2.169035010245E+00 -2.231225201033E+00
   25     6 C    -3.528973684942E-01  1.878835143768E+00  2.214889913903E+00
   26     6 C     3.528973684942E-01 -1.878835143768E+00  2.214889913903E+00
   27     6 C     1.878835143768E+00  3.528973684942E-01 -2.214889913903E+00
   28     6 C    -1.878835143768E+00 -3.528973684942E-01 -2.214889913903E+00
   29     6 C    -2.412759109355E+00  1.226980162483E+00  1.452965449908E+00
   30     6 C     2.412759109355E+00 -1.226980162483E+00  1.452965449908E+00
   31     6 C     1.226980162483E+00  2.412759109355E+00 -1.452965449908E+00
   32     6 C    -1.226980162483E+00 -2.412759109355E+00 -1.452965449908E+00
   33     6 C     8.159632048177E-01 -3.184336463539E+00  2.423164824811E+00
   34     6 C    -8.159632048177E-01  3.184336463539E+00  2.423164824811E+00
   35     6 C    -3.184336463539E+00 -8.159632048177E-01 -2.423164824811E+00
   36     6 C     3.184336463539E+00  8.159632048177E-01 -2.423164824811E+00
   37     7 N    -2.856219536318E-01 -3.222651603660E+00 -4.639950798828E+00
   38     7 N     2.856219536318E-01  3.222651603660E+00 -4.639950798828E+00
   39     7 N    -3.222651603660E+00  2.856219536318E-01  4.639950798828E+00
   40     7 N     3.222651603660E+00 -2.856219536318E-01  4.639950798828E+00
   41     7 N     3.401289724485E+00  2.221382448437E+00  2.542470761172E+00
   42     7 N    -3.401289724485E+00 -2.221382448437E+00  2.542470761172E+00
   43     7 N     2.221382448437E+00 -3.401289724485E+00 -2.542470761172E+00
   44     7 N    -2.221382448437E+00  3.401289724485E+00 -2.542470761172E+00
   45     7 N     4.677134130604E+00  3.465878103547E+00  1.269631022029E+00
   46     7 N    -4.677134130604E+00 -3.465878103547E+00  1.269631022029E+00
   47     7 N     3.465878103547E+00 -4.677134130604E+00 -1.269631022029E+00
   48     7 N    -3.465878103547E+00  4.677134130604E+00 -1.269631022029E+00
   49     7 N     3.387655505793E+00  3.249422441823E+00  1.718997268883E+00
   50     7 N    -3.387655505793E+00 -3.249422441823E+00  1.718997268883E+00
   51     7 N     3.249422441823E+00 -3.387655505793E+00 -1.718997268883E+00
   52     7 N    -3.249422441823E+00  3.387655505793E+00 -1.718997268883E+00
   53     7 N    -1.150051322707E+00  9.271268710918E-01  1.696098696746E+00
   54     7 N     1.150051322707E+00 -9.271268710918E-01  1.696098696746E+00
   55     7 N     9.271268710918E-01  1.150051322707E+00 -1.696098696746E+00
   56     7 N    -9.271268710918E-01 -1.150051322707E+00 -1.696098696746E+00
   57    17 CL   -3.350037004583E+00  7.314708568619E-02  5.416897892952E-01
   58    17 CL    3.350037004583E+00 -7.314708568619E-02  5.416897892952E-01
   59    17 CL    7.314708568619E-02  3.350037004583E+00 -5.416897892952E-01
   60    17 CL   -7.314708568619E-02 -3.350037004583E+00 -5.416897892952E-01
   61    30 ZN    4.975992223550E+00 -4.700037766092E-16 -1.093880834603E+01
   62    30 ZN   -4.975992223550E+00 -4.975992223550E+00  1.458507779470E+01

 *******************************************************************************
 STARTING BASIS SET HANDLING 
 *******************************************************************************

 Loading internal basis set: POB-DZVPP           

 Please cite in your publication:
 Peintinger, M. F., Oliveira, D. V. and Bredow, T. (2013), Generally applicable 
 solid-state Gaussian basis sets, in preparation                                
                                                                                
                    

 *******************************************************************************
 LOCAL ATOMIC FUNCTIONS BASIS SET
 *******************************************************************************
   ATOM   X(AU)   Y(AU)   Z(AU)  N. TYPE  EXPONENT  S COEF   P COEF   D/F/G COEF
 *******************************************************************************
   1 H    4.553  -0.953  -9.213
                                  1 S  
                                         2.263E+01 1.441E-02 0.000E+00 0.000E+00
                                         3.236E+00 1.072E-01 0.000E+00 0.000E+00
                                         7.304E-01 3.846E-01 0.000E+00 0.000E+00
                                  2 S  
                                         1.417E-01 1.000E+00 0.000E+00 0.000E+00
                           3-     5 P  
                                         3.944E-01 0.000E+00 1.000E+00 0.000E+00
                           6-     8 P  
                                         1.006E-01 0.000E+00 1.000E+00 0.000E+00
   2 H   -4.553   0.953  -9.213
   3 H   -0.953  -4.553   9.213
   4 H    0.953   4.553   9.213
   5 H   -0.208   7.477   5.159
   6 H    0.208  -7.477   5.159
   7 H    7.477   0.208  -5.159
   8 H   -7.477  -0.208  -5.159
   9 H    1.297   2.994   4.537
  10 H   -1.297  -2.994   4.537
  11 H    2.994  -1.297  -4.537
  12 H   -2.994   1.297  -4.537
  13 C   -5.723   4.617   3.410
                                 97 S  
                                         1.238E+03 5.457E-03 0.000E+00 0.000E+00
                                         1.863E+02 4.064E-02 0.000E+00 0.000E+00
                                         4.225E+01 1.803E-01 0.000E+00 0.000E+00
                                         1.168E+01 4.632E-01 0.000E+00 0.000E+00
                                         3.593E+00 4.409E-01 0.000E+00 0.000E+00
                                 98 S  
                                         5.281E+00 1.000E+00 0.000E+00 0.000E+00
                                 99 S  
                                         4.447E-01 1.000E+00 0.000E+00 0.000E+00
                         100-   102 P  
                                         9.468E+00 0.000E+00 3.839E-02 0.000E+00
                                         2.010E+00 0.000E+00 2.112E-01 0.000E+00
                                         5.477E-01 0.000E+00 5.133E-01 0.000E+00
                         103-   105 P  
                                         1.604E-01 0.000E+00 1.000E+00 0.000E+00
                         106-   110 D  
                                         6.070E-01 0.000E+00 0.000E+00 1.000E+00
                         111-   115 D  
                                         2.939E-01 0.000E+00 0.000E+00 1.000E+00
  14 C    5.723  -4.617   3.410
  15 C    4.617   5.723  -3.410
  16 C   -4.617  -5.723  -3.410
  17 C   -8.480   4.813   3.528
  18 C    8.480  -4.813   3.528
  19 C    4.813   8.480  -3.528
  20 C   -4.813  -8.480  -3.528
  21 C   -4.099   6.557   4.216
  22 C    4.099  -6.557   4.216
  23 C    6.557   4.099  -4.216
  24 C   -6.557  -4.099  -4.216
  25 C   -0.667   3.550   4.186
  26 C    0.667  -3.550   4.186
  27 C    3.550   0.667  -4.186
  28 C   -3.550  -0.667  -4.186
  29 C   -4.559   2.319   2.746
  30 C    4.559  -2.319   2.746
  31 C    2.319   4.559  -2.746
  32 C   -2.319  -4.559  -2.746
  33 C    1.542  -6.018   4.579
  34 C   -1.542   6.018   4.579
  35 C   -6.018  -1.542  -4.579
  36 C    6.018   1.542  -4.579
  37 N   -0.540  -6.090  -8.768
                                553 S  
                                         1.713E+03-5.393E-03 0.000E+00 0.000E+00
                                         2.576E+02-4.022E-02 0.000E+00 0.000E+00
                                         5.846E+01-1.793E-01 0.000E+00 0.000E+00
                                         1.620E+01-4.638E-01 0.000E+00 0.000E+00
                                         5.005E+00-4.417E-01 0.000E+00 0.000E+00
                                554 S  
                                         6.217E-01 1.000E+00 0.000E+00 0.000E+00
                                555 S  
                                         2.921E-01 1.000E+00 0.000E+00 0.000E+00
                         556-   558 P  
                                         1.357E+01 0.000E+00-4.007E-02 0.000E+00
                                         2.926E+00 0.000E+00-2.181E-01 0.000E+00
                                         7.993E-01 0.000E+00-5.129E-01 0.000E+00
                         559-   561 P  
                                         2.244E-01 0.000E+00 1.000E+00 0.000E+00
                         562-   566 D  
                                         3.118E-01 0.000E+00 0.000E+00 1.000E+00
  38 N    0.540   6.090  -8.768
  39 N   -6.090   0.540   8.768
  40 N    6.090  -0.540   8.768
  41 N    6.428   4.198   4.805
  42 N   -6.428  -4.198   4.805
  43 N    4.198  -6.428  -4.805
  44 N   -4.198   6.428  -4.805
  45 N    8.839   6.550   2.399
  46 N   -8.839  -6.550   2.399
  47 N    6.550  -8.839  -2.399
  48 N   -6.550   8.839  -2.399
  49 N    6.402   6.141   3.248
  50 N   -6.402  -6.141   3.248
  51 N    6.141  -6.402  -3.248
  52 N   -6.141   6.402  -3.248
  53 N   -2.173   1.752   3.205
  54 N    2.173  -1.752   3.205
  55 N    1.752   2.173  -3.205
  56 N   -1.752  -2.173  -3.205
  57 CL  -6.331   0.138   1.024
                                833 S  
                                         1.045E+04 1.971E-03 0.000E+00 0.000E+00
                                         1.572E+03 1.475E-02 0.000E+00 0.000E+00
                                         3.571E+02 6.668E-02 0.000E+00 0.000E+00
                                         1.003E+02 1.723E-01 0.000E+00 0.000E+00
                                         3.081E+01 1.588E-01 0.000E+00 0.000E+00
                                834 S  
                                         5.192E+01-1.001E-01 0.000E+00 0.000E+00
                                         5.705E+00 6.084E-01 0.000E+00 0.000E+00
                                         2.351E+00 5.435E-01 0.000E+00 0.000E+00
                                835 S  
                                         4.886E-01 1.000E+00 0.000E+00 0.000E+00
                                836 S  
                                         1.984E-01 1.000E+00 0.000E+00 0.000E+00
                         837-   839 P  
                                         3.077E+02 0.000E+00-8.780E-03 0.000E+00
                                         7.210E+01 0.000E+00-6.356E-02 0.000E+00
                                         2.253E+01 0.000E+00-2.402E-01 0.000E+00
                                         7.899E+00 0.000E+00-4.780E-01 0.000E+00
                                         2.877E+00 0.000E+00-3.852E-01 0.000E+00
                         840-   842 P  
                                         9.483E-01 0.000E+00 1.000E+00 0.000E+00
                         843-   845 P  
                                         2.521E-01 0.000E+00 1.000E+00 0.000E+00
                         846-   850 D  
                                         9.722E-01 0.000E+00 0.000E+00 1.000E+00
                         851-   855 D  
                                         2.060E-01 0.000E+00 0.000E+00 1.000E+00
  58 CL   6.331  -0.138   1.024
  59 CL   0.138   6.331  -1.024
  60 CL  -0.138  -6.331  -1.024
  61 ZN   9.403  -0.000 -20.671
                                925 S  
                                         8.200E+04 1.421E-03 0.000E+00 0.000E+00
                                         1.231E+04 1.089E-02 0.000E+00 0.000E+00
                                         2.801E+03 5.406E-02 0.000E+00 0.000E+00
                                         7.910E+02 1.885E-01 0.000E+00 0.000E+00
                                         2.576E+02 3.835E-01 0.000E+00 0.000E+00
                                         8.881E+01 2.972E-01 0.000E+00 0.000E+00
                                926 S  
                                         1.719E+02-1.105E-01 0.000E+00 0.000E+00
                                         2.030E+01 6.461E-01 0.000E+00 0.000E+00
                                         8.346E+00 4.422E-01 0.000E+00 0.000E+00
                                927 S  
                                         1.485E+01-2.271E-01 0.000E+00 0.000E+00
                                         2.450E+00 7.243E-01 0.000E+00 0.000E+00
                                         9.985E-01 4.484E-01 0.000E+00 0.000E+00
                                928 S  
                                         1.493E+00 1.000E+00 0.000E+00 0.000E+00
                                929 S  
                                         1.830E-01 1.000E+00 0.000E+00 0.000E+00
                         930-   932 P  
                                         1.072E+03 0.000E+00 9.277E-03 0.000E+00
                                         2.527E+02 0.000E+00 6.954E-02 0.000E+00
                                         8.010E+01 0.000E+00 2.716E-01 0.000E+00
                                         2.890E+01 0.000E+00 5.340E-01 0.000E+00
                                         1.077E+01 0.000E+00 3.450E-01 0.000E+00
                         933-   935 P  
                                         5.645E+00 0.000E+00 3.413E-01 0.000E+00
                                         2.168E+00 0.000E+00 5.639E-01 0.000E+00
                                         8.054E-01 0.000E+00 2.368E-01 0.000E+00
                         936-   938 P  
                                         2.721E-01 0.000E+00 1.000E+00 0.000E+00
                         939-   943 D  
                                         5.609E+01 0.000E+00 0.000E+00 2.959E-02
                                         1.575E+01 0.000E+00 0.000E+00 1.587E-01
                                         5.312E+00 0.000E+00 0.000E+00 3.798E-01
                                         1.774E+00 0.000E+00 0.000E+00 4.690E-01
                         944-   948 D  
                                         5.073E-01 0.000E+00 0.000E+00 1.000E+00
                         949-   955 F  
                                         2.814E+00 0.000E+00 0.000E+00 1.000E+00
                         956-   962 F  
                                         1.300E+00 0.000E+00 0.000E+00 1.000E+00
  62 ZN  -9.403  -9.403  27.562

 *******************************************************************************
 FINISHED BASIS SET HANDLING 
 *******************************************************************************

 INFORMATION **** SET_MPP **** PCRYSTAL CALCULATION
 INFORMATION **** READM2 **** NEW DEFAULT: FOCK/KS MATRIX MIXING SET TO 30 %
 INFORMATION **** READM2 **** NEW DEFAULT: FULL DIRECT SCF MODE
 INFORMATION **** READM2 **** NEW DEFAULT: COULOMB BIPOLAR BUFFER SET TO 32 Mb
 INFORMATION **** READM2 **** NEW DEFAULT: EXCHANGE BIPOLAR BUFFER SET TO 32 Mb

 *******************************************************************************
 NEW DEFAULT: DFT INTEGRATION GRID INCREASED TO XLGRID
 NEW DEFAULT: DIIS ACCELERATOR ACTIVE
 USE KEYWORD NODIIS TO TURN IT OFF
 *******************************************************************************

 INFORMATION **** DFTD3_INPUT **** PERFORM DISPERSION CORRECTION DFT-D3(BJ) IN THE BECKE-JOHNSON DAMPING SCHEME

 PLEASE CITE:
 (1) DFT-D3 Reference
  S. Grimme, J. Antony, S. Ehrlich, and H. Krieg, J. Chem. Phys. 132 (2010), 154104
 (2) BJ-Damping Reference
  S. Grimme, S. Ehrlich, and L. Goerigk, J. Comput. Chem. 32 (2011), 1456-1465
 (3) General DFT-D Review
  S. Grimme, A. Hansen, J. G. Brandenburg, and C. Bannwarth,
  Chem. Rev. 116 (2016), 5105-5154

 INFORMATION **** TOLINTEG **** COULOMB AND EXCHANGE SERIES TOLERANCES MODIFIED
 INFORMATION **** BIPOSIZE **** COULOMB BIPOLAR BUFFER SET TO   100000000
 INFORMATION **** MAXCYCLE **** MAX NUMBER OF SCF CYCLES SET TO          50
 *******************************************************************************
 N. OF ATOMS PER CELL        62  COULOMB OVERLAP TOL         (T1) 10**  -12
 NUMBER OF SHELLS           396  COULOMB PENETRATION TOL     (T2) 10**  -12
 NUMBER OF AO              1000  EXCHANGE OVERLAP TOL        (T3) 10**   20
 N. OF ELECTRONS PER CELL   424  EXCHANGE PSEUDO OVP (F(G))  (T4) 10**   20
 CORE ELECTRONS PER CELL    164  EXCHANGE PSEUDO OVP (P(G))  (T5) 10**   20
 N. OF SYMMETRY OPERATORS     4  POLE ORDER IN MONO ZONE                  4
 *******************************************************************************
 TYPE OF CALCULATION :  RESTRICTED CLOSED SHELL
 KOHN-SHAM HAMILTONIAN

 (EXCHANGE)[CORRELATION] FUNCTIONAL:(PERDEW-BURKE-ERNZERHOF)[PERDEW-BURKE-ERNZERHOF]


 CAPPA:IS1  3;IS2  3;IS3  3; K PTS MONK NET   6; SYMMOPS:K SPACE   8;G SPACE   4

 *******************************************************************************
 MAX NUMBER OF SCF CYCLES      50  CONVERGENCE ON DELTAP        10**-16
 WEIGHT OF F(I) IN F(I+1)      30% CONVERGENCE ON ENERGY        10**- 6
 SHRINK. FACT.(MONKH.)    3  3  3  NUMBER OF K POINTS IN THE IBZ      6
 SHRINKING FACTOR(GILAT NET)    3  NUMBER OF K POINTS(GILAT NET)      6
 *******************************************************************************
 *** K POINTS COORDINATES (OBLIQUE COORDINATES IN UNITS OF IS =  3)
   1-R(  0  0  0)   2-C(  1  0  0)   3-C(  1  1  0)   4-C(  2  1  0)
   5-C(  2  1  1)   6-C(  2  2  1)

 DIRECT LATTICE VECTORS COMPON. (A.U.)     RECIP. LATTICE VECTORS COMPON. (A.U.) 
        X            Y            Z              X            Y            Z
   -9.4032625    9.4032625   13.7809013      0.0000000    0.3340960    0.2279671
    9.4032625   -9.4032625   13.7809013      0.3340960    0.0000000    0.2279671
    9.4032625    9.4032625  -13.7809013      0.3340960    0.3340960    0.0000000

 DISK SPACE FOR EIGENVECTORS (FTN 10)    11000000 REALS

 SYMMETRY ADAPTION OF THE BLOCH FUNCTIONS ENABLED
 TTTTTTTTTTTTTTTTTTTTTTTTTTTTTT gordsh1     TELAPSE        6.66 TCPU        0.08

 MATRIX SIZE: P(G) 1866180, F(G)  933878, P(G) IRR  235913, F(G) IRR  235913
 MAX G-VECTOR INDEX FOR 1- AND 2-ELECTRON INTEGRALS 201

 TTTTTTTTTTTTTTTTTTTTTTTTTTTTTT INPUT       TELAPSE        6.88 TCPU        0.30

 NEIGHBORS OF THE NON-EQUIVALENT ATOMS

 N = NUMBER OF NEIGHBORS AT DISTANCE R
    ATOM  N     R/ANG      R/AU   NEIGHBORS (ATOM LABELS AND CELL INDICES)
   1 H    1     1.0937     2.0668   21 C   -1 0 0
   1 H    1     2.1685     4.0979   13 C   -1 0 0
   1 H    1     2.1727     4.1059   34 C   -1 0 0
   1 H    1     2.4780     4.6827   50 N    0 0 1
   1 H    1     2.5291     4.7792    5 H   -1 0 0
   1 H    1     2.6143     4.9403   11 H    0 0 0

   5 H    1     1.0904     2.0605   34 C    0 0 0
   5 H    1     2.0504     3.8747    6 H    1 0 1
   5 H    1     2.1545     4.0714   25 C    0 0 0
   5 H    1     2.1738     4.1078   21 C    0 0 0
   5 H    2     2.3369     4.4161    7 H    1 0 0    8 H    1 1 1
   5 H    1     2.5238     4.7692    9 H    0 0 0

   9 H    1     1.0959     2.0709   25 C    0 0 0
   9 H    1     2.0739     3.9190   53 N    0 0 0
   9 H    1     2.1946     4.1472   34 C    0 0 0
   9 H    1     2.5238     4.7692    5 H    0 0 0
   9 H    1     2.6143     4.9403    4 H    0 0 0
   9 H    1     2.6496     5.0071   54 N    0 0 0

  13 C    1     1.4050     2.6551   21 C    0 0 0
  13 C    1     1.4079     2.6606   29 C    0 0 0
  13 C    1     1.4642     2.7669   17 C    0 0 0
  13 C    1     2.1685     4.0979    1 H    1 0 0
  13 C    1     2.4139     4.5616   34 C    0 0 0
  13 C    1     2.4164     4.5664   53 N    0 0 0

  17 C    1     1.3495     2.5503   45 N    0-1-1
  17 C    1     1.3585     2.5673   37 N    1 0 0
  17 C    1     1.4642     2.7669   13 C    0 0 0
  17 C    1     2.1950     4.1480   41 N    0-1-1
  17 C    1     2.1973     4.1523   49 N    0-1-1
  17 C    1     2.4938     4.7126   29 C    0 0 0

  21 C    1     1.0937     2.0668    1 H    1 0 0
  21 C    1     1.3961     2.6382   34 C    0 0 0
  21 C    1     1.4050     2.6551   13 C    0 0 0
  21 C    1     2.1738     4.1078    5 H    0 0 0
  21 C    1     2.3864     4.5096   29 C    0 0 0
  21 C    1     2.4144     4.5626   25 C    0 0 0

  25 C    1     1.0959     2.0709    9 H    0 0 0
  25 C    1     1.3455     2.5426   53 N    0 0 0
  25 C    1     1.4008     2.6471   34 C    0 0 0
  25 C    1     2.1545     4.0714    5 H    0 0 0
  25 C    1     2.2910     4.3293   29 C    0 0 0
  25 C    1     2.4144     4.5626   21 C    0 0 0

  29 C    1     1.3204     2.4952   53 N    0 0 0
  29 C    1     1.4079     2.6606   13 C    0 0 0
  29 C    1     1.7436     3.2950   57 CL   0 0 0
  29 C    1     2.2910     4.3293   25 C    0 0 0
  29 C    1     2.3864     4.5096   21 C    0 0 0
  29 C    1     2.4938     4.7126   17 C    0 0 0

  33 C    1     1.0904     2.0605    6 H    0 0 0
  33 C    1     1.3961     2.6382   22 C    0 0 0
  33 C    1     1.4008     2.6471   26 C    0 0 0
  33 C    1     2.1727     4.1059    2 H    0 1 0
  33 C    1     2.1946     4.1472   10 H    0 0 0
  33 C    1     2.3948     4.5256   54 N    0 0 0

  37 N    1     1.3585     2.5673   17 C   -1 0 0
  37 N    1     1.3758     2.5999   41 N   -1-1-1
  37 N    1     2.0355     3.8465   61 ZN   0 0-1
  37 N    1     2.1925     4.1432   49 N   -1-1-1
  37 N    1     2.2013     4.1598   45 N   -1-1-1
  37 N    1     2.4864     4.6985   13 C   -1 0 0

  41 N    1     1.3173     2.4893   49 N    0 0 0
  41 N    1     1.3758     2.5999   37 N    1 1 1
  41 N    1     2.1901     4.1387   45 N    0 0 0
  41 N    1     2.1950     4.1480   17 C    0 1 1
  41 N    1     2.7924     5.2768    9 H    0 0 0
  41 N    1     2.9381     5.5523   61 ZN   1 1 0

  45 N    1     1.3495     2.5503   17 C    0 1 1
  45 N    1     1.3826     2.6127   49 N    0 0 0
  45 N    1     1.9954     3.7708   62 ZN   0 0 2
  45 N    1     2.1901     4.1387   41 N    0 0 0
  45 N    1     2.2013     4.1598   37 N    1 1 1
  45 N    1     2.5255     4.7724   13 C    0 1 1

  49 N    1     1.3173     2.4893   41 N    0 0 0
  49 N    1     1.3826     2.6127   45 N    0 0 0
  49 N    1     2.1925     4.1432   37 N    1 1 1
  49 N    1     2.1973     4.1523   17 C    0 1 1
  49 N    1     2.4780     4.6827    2 H    1 1 1
  49 N    1     2.9084     5.4961   62 ZN   0 0 2

  53 N    1     1.3204     2.4952   29 C    0 0 0
  53 N    1     1.3455     2.5426   25 C    0 0 0
  53 N    1     2.0739     3.9190    9 H    0 0 0
  53 N    1     2.3948     4.5256   34 C    0 0 0
  53 N    1     2.4164     4.5664   13 C    0 0 0
  53 N    1     2.6271     4.9646   57 CL   0 0 0

  57 CL   1     1.7436     3.2950   29 C    0 0 0
  57 CL   1     2.6271     4.9646   53 N    0 0 0
  57 CL   1     2.7048     5.1114   13 C    0 0 0
  57 CL   1     3.0283     5.7227   17 C    0 0 0
  57 CL   1     3.0448     5.7538   42 N    0 0 0
  57 CL   1     3.0965     5.8516   38 N    0 0-1

  61 ZN   4     2.0355     3.8465   37 N    0 0 1   38 N   -1 0 0   39 N   -1 0 1
                                    40 N   -1-1 0
  61 ZN   4     2.9381     5.5523   41 N   -1-1 0   42 N   -1 0 1   43 N    0 0 1
                                    44 N   -1 0 0
  61 ZN   4     3.1449     5.9430   17 C   -1 0 1   18 C   -1-1 0   19 C   -1 0 0
                                    20 C    0 0 1
  61 ZN   4     3.5054     6.6242   57 CL  -1 0 1   58 CL  -1-1 0   59 CL  -1 0 0
                                    60 CL   0 0 1
  61 ZN   4     3.5897     6.7836   29 C   -1 0 1   30 C   -1-1 0   31 C   -1 0 0
                                    32 C    0 0 1
  61 ZN   4     3.6269     6.8538   13 C   -1 0 1   14 C   -1-1 0   15 C   -1 0 0
                                    16 C    0 0 1

  62 ZN   4     1.9954     3.7708   45 N    0 0-2   46 N    1 1 0   47 N    1 0-1
                                    48 N    0 1-1
  62 ZN   4     2.9084     5.4961   49 N    0 0-2   50 N    1 1 0   51 N    1 0-1
                                    52 N    0 1-1
  62 ZN   4     3.1025     5.8628   17 C    0 1-1   18 C    1 0-1   19 C    0 0-2
                                    20 C    1 1 0
  62 ZN   4     3.4503     6.5202    1 H    1 1-1    2 H    1 1-1    3 H    0 0-1
                                     4 H    0 0-1
  62 ZN   4     3.6693     6.9340   13 C    0 1-1   14 C    1 0-1   15 C    0 0-2
                                    16 C    1 1 0
  62 ZN   4     3.8893     7.3497   21 C    0 1-1   22 C    1 0-1   23 C    0 0-2
                                    24 C    1 1 0


 SYMMETRY ALLOWED INTERNAL DEGREE(S) OF FREEDOM:  45
 TTTTTTTTTTTTTTTTTTTTTTTTTTTTTT SYMM        TELAPSE        6.91 TCPU        0.32
 TTTTTTTTTTTTTTTTTTTTTTTTTTTTTT INT_SCREEN  TELAPSE        6.92 TCPU        0.33
 INFORMATION **** EXCBUF **** EXCH. BIPO BUFFER: WORDS USED =           0

 DFT PARAMETERS

     ATOM       ELECTRONS   NET CHARGE   R(ANGSTROM)
   1   1  H       1.0000      0.0000     1.11000000
  13   6  C       6.0000      0.0000     0.77000000
  37   7  N       7.0000      0.0000     0.74000000
  57  17  CL     17.0000      0.0000     0.99000000
  61  30  ZN     30.0000      0.0000     1.37000000

 SIZE OF GRID=     455831
 TTTTTTTTTTTTTTTTTTTTTTTTTTTTTT MAKE_GRID2  TELAPSE        7.71 TCPU        1.11
 BECKE WEIGHT FUNCTION
 RADSAFE =     2.00
 TOLERANCES - DENSITY:10**- 6; POTENTIAL:10**- 9; GRID WGT:10**-14

 RADIAL INTEGRATION  - INTERVALS (POINTS,UPPER LIMIT):            1( 75,  4.0*R)

 ANGULAR INTEGRATION - INTERVALS (ACCURACY LEVEL [N. POINTS] UPPER LIMIT):
  1(  4[  86]   0.2)  2(  8[ 194]   0.5)  3( 12[ 350]   0.9)  4( 16[ 974]   3.5)
  5( 12[ 350]9999.0)
 TTTTTTTTTTTTTTTTTTTTTTTTTTTTTT INT_CALC    TELAPSE        7.75 TCPU        1.15
 EEEEEEEEEE INT_CALC TERMINATION  DATE 17 01 2024 TIME 15:41:38.1

 *******************************************************************************
 Z:\home\sanoj\Downloads\tmp_p\newconn.mol                                       
 CRYSTAL - SCF - TYPE OF CALCULATION :  RESTRICTED CLOSED SHELL
 *******************************************************************************

 CAPPA:IS1  3;IS2  3;IS3  3; K PTS MONK NET   6; SYMMOPS:K SPACE   8;G SPACE   4

 TTTTTTTTTTTTTTTTTTTTTTTTTTTTTT SDIK        TELAPSE        7.92 TCPU        1.32

 AAAAAAAAAAAAAAAAAAAAAAAAAAAAAAAAAAAAAAAAAAAAAAAAAAAAAAAAAAAAAAAAAAAAAAAAAAAAAAA
         ATOMIC WAVEFUNCTION(S)


 NUCLEAR CHARGE  1.0  SYMMETRY SPECIES            S
 N. ELECTRONS    1.0  NUMBER OF PRIMITIVE GTOS    4
                      NUMBER OF CONTRACTED GTOS   2
                      NUMBER OF CLOSED SHELLS     0
                      OPEN SHELL OCCUPATION       1

  ZNUC SCFIT  TOTAL HF ENERGY   KINETIC ENERGY   VIRIAL THEOREM ACCURACY
   1.0   1   -4.946643675E-01  4.917913167E-01 -2.005842012E+00  9.4E-17

 NUCLEAR CHARGE  6.0  SYMMETRY SPECIES            S    P
 N. ELECTRONS    6.0  NUMBER OF PRIMITIVE GTOS    7    4
                      NUMBER OF CONTRACTED GTOS   3    2
                      NUMBER OF CLOSED SHELLS     2    0
                      OPEN SHELL OCCUPATION       0    2

  ZNUC SCFIT  TOTAL HF ENERGY   KINETIC ENERGY   VIRIAL THEOREM ACCURACY
   6.0   6   -3.750912652E+01  3.905246519E+01 -1.960480378E+00  3.7E-06

 NUCLEAR CHARGE  7.0  SYMMETRY SPECIES            S    P
 N. ELECTRONS    7.0  NUMBER OF PRIMITIVE GTOS    7    4
                      NUMBER OF CONTRACTED GTOS   3    2
                      NUMBER OF CLOSED SHELLS     2    0
                      OPEN SHELL OCCUPATION       0    3

  ZNUC SCFIT  TOTAL HF ENERGY   KINETIC ENERGY   VIRIAL THEOREM ACCURACY
   7.0   9   -5.432196661E+01  5.425066284E+01 -2.001314339E+00  1.2E-06

 NUCLEAR CHARGE 17.0  SYMMETRY SPECIES            S    P
 N. ELECTRONS   17.0  NUMBER OF PRIMITIVE GTOS   10    7
                      NUMBER OF CONTRACTED GTOS   4    3
                      NUMBER OF CLOSED SHELLS     3    1
                      OPEN SHELL OCCUPATION       0    5

  ZNUC SCFIT  TOTAL HF ENERGY   KINETIC ENERGY   VIRIAL THEOREM ACCURACY
  17.0   9   -4.593005957E+02  4.593991532E+02 -1.999785464E+00  2.3E-06

 NUCLEAR CHARGE 30.0  SYMMETRY SPECIES            S    P    D
 N. ELECTRONS   30.0  NUMBER OF PRIMITIVE GTOS   14    9    5
                      NUMBER OF CONTRACTED GTOS   5    3    2
                      NUMBER OF CLOSED SHELLS     4    2    1
                      OPEN SHELL OCCUPATION       0    0    0

  ZNUC SCFIT  TOTAL HF ENERGY   KINETIC ENERGY   VIRIAL THEOREM ACCURACY
  30.0  10   -1.777404290E+03  1.777325716E+03 -2.000044209E+00  2.5E-06

 AAAAAAAAAAAAAAAAAAAAAAAAAAAAAAAAAAAAAAAAAAAAAAAAAAAAAAAAAAAAAAAAAAAAAAAAAAAAAAA

 TOTAL ATOMIC CHARGES:
   1.0000000   1.0000000   1.0000000   1.0000000   1.0000000   1.0000000
   1.0000000   1.0000000   1.0000000   1.0000000   1.0000000   1.0000000
   6.0000000   6.0000000   6.0000000   6.0000000   6.0000000   6.0000000
   6.0000000   6.0000000   6.0000000   6.0000000   6.0000000   6.0000000
   6.0000000   6.0000000   6.0000000   6.0000000   6.0000000   6.0000000
   6.0000000   6.0000000   6.0000000   6.0000000   6.0000000   6.0000000
   7.0000000   7.0000000   7.0000000   7.0000000   7.0000000   7.0000000
   7.0000000   7.0000000   7.0000000   7.0000000   7.0000000   7.0000000
   7.0000000   7.0000000   7.0000000   7.0000000   7.0000000   7.0000000
   7.0000000   7.0000000  17.0000000  17.0000000  17.0000000  17.0000000
  30.0000000  30.0000000
 TTTTTTTTTTTTTTTTTTTTTTTTTTTTTT MOQGAD      TELAPSE       10.65 TCPU        4.04
 TTTTTTTTTTTTTTTTTTTTTTTTTTTTTT SHELLXN     TELAPSE       52.10 TCPU       30.85
 TTTTTTTTTTTTTTTTTTTTTTTTTTTTTT MONMO3      TELAPSE       52.51 TCPU       31.25
 NUMERICALLY INTEGRATED DENSITY    423.9999278265
 TTTTTTTTTTTTTTTTTTTTTTTTTTTTTT NUMDFT      TELAPSE       53.15 TCPU       31.90
 CYC   0 ETOT(AU) -7.413741232912E+03 DETOT -7.41E+03 tst  0.00E+00 PX  1.00E+00
 TTTTTTTTTTTTTTTTTTTTTTTTTTTTTT DIIS        TELAPSE       53.21 TCPU       31.95
 TTTTTTTTTTTTTTTTTTTTTTTTTTTTTT FDIK        TELAPSE       76.81 TCPU       45.05
 INSULATING STATE
 TOP OF VALENCE BANDS -    BAND    212; K    3; EIG -1.2641495E-01 AU
 TOP OF VALENCE BANDS -    BAND    212; K    1; EIG -1.2839677E-01 AU
 BOTTOM OF VIRTUAL BANDS - BAND    213; K    1; EIG -1.0602597E-01 AU
 INDIRECT ENERGY BAND GAP:   0.5548 eV
 TTTTTTTTTTTTTTTTTTTTTTTTTTTTTT PDIG        TELAPSE       77.27 TCPU       45.51
 TOTAL ATOMIC CHARGES:
   1.2513990   1.2513990   1.2513990   1.2513990   1.1830488   1.1830488
   1.1830488   1.1830488   1.2697434   1.2697434   1.2697434   1.2697434
   6.1892183   6.1892183   6.1892183   6.1892183   5.4805431   5.4805431
   5.4805431   5.4805431   6.0629266   6.0629266   6.0629266   6.0629266
   5.6743164   5.6743164   5.6743164   5.6743164   5.0349671   5.0349671
   5.0349671   5.0349671   5.9491595   5.9491595   5.9491595   5.9491595
   7.4058314   7.4058314   7.4058314   7.4058314   7.1763000   7.1763000
   7.1763000   7.1763000   7.3675475   7.3675475   7.3675475   7.3675475
   7.1828220   7.1828220   7.1828220   7.1828220   7.5449320   7.5449320
   7.5449320   7.5449320  17.2852229  17.2852229  17.2852229  17.2852229
  27.8880842  27.8800040
 TTTTTTTTTTTTTTTTTTTTTTTTTTTTTT MOQGAD      TELAPSE       77.30 TCPU       45.53
 TTTTTTTTTTTTTTTTTTTTTTTTTTTTTT SHELLXN     TELAPSE      111.57 TCPU       77.55
 TTTTTTTTTTTTTTTTTTTTTTTTTTTTTT MONMO3      TELAPSE      114.69 TCPU       80.67
 NUMERICALLY INTEGRATED DENSITY    423.9999760474
 TTTTTTTTTTTTTTTTTTTTTTTTTTTTTT NUMDFT      TELAPSE      116.72 TCPU       82.69
 CYC   1 ETOT(AU) -7.408850439561E+03 DETOT  4.89E+00 tst  0.00E+00 PX  1.00E+00
 TTTTTTTTTTTTTTTTTTTTTTTTTTTTTT DIIS        TELAPSE      116.82 TCPU       82.79
 DIIS TEST: 0.11538E+02 AT SCF   CYCLE   1 - MIX   30 %
 TTTTTTTTTTTTTTTTTTTTTTTTTTTTTT FDIK        TELAPSE      127.04 TCPU       90.86
 INSULATING STATE
 TOP OF VALENCE BANDS -    BAND    212; K    1; EIG -1.5274859E-01 AU
 BOTTOM OF VIRTUAL BANDS - BAND    213; K    1; EIG -1.2302391E-01 AU
 DIRECT ENERGY BAND GAP:   0.8088 eV
 TTTTTTTTTTTTTTTTTTTTTTTTTTTTTT PDIG        TELAPSE      127.50 TCPU       91.32
 TOTAL ATOMIC CHARGES:
   1.1959722   1.1959722   1.1959722   1.1959722   1.1319822   1.1319822
   1.1319822   1.1319822   1.2369086   1.2369086   1.2369086   1.2369086
   6.4068409   6.4068409   6.4068409   6.4068409   6.3098310   6.3098310
   6.3098310   6.3098310   6.1688041   6.1688041   6.1688041   6.1688041
   6.0057805   6.0057805   6.0057805   6.0057805   6.2972103   6.2972103
   6.2972103   6.2972103   5.6789349   5.6789349   5.6789349   5.6789349
   6.9745601   6.9745601   6.9745601   6.9745601   6.7986674   6.7986674
   6.7986674   6.7986674   6.9204507   6.9204507   6.9204507   6.9204507
   6.8163331   6.8163331   6.8163331   6.8163331   5.9953005   5.9953005
   5.9953005   5.9953005  17.1980057  17.1980057  17.1980057  17.1980057
  29.7455500  29.7121213
 TTTTTTTTTTTTTTTTTTTTTTTTTTTTTT MOQGAD      TELAPSE      127.52 TCPU       91.34
 TTTTTTTTTTTTTTTTTTTTTTTTTTTTTT SHELLXN     TELAPSE      163.93 TCPU      123.28
 TTTTTTTTTTTTTTTTTTTTTTTTTTTTTT MONMO3      TELAPSE      164.76 TCPU      124.12
 NUMERICALLY INTEGRATED DENSITY    423.9999879545
 TTTTTTTTTTTTTTTTTTTTTTTTTTTTTT NUMDFT      TELAPSE      166.70 TCPU      126.04
 CYC   2 ETOT(AU) -7.407104118072E+03 DETOT  1.75E+00 tst  5.51E-02 PX  7.12E-01
 TTTTTTTTTTTTTTTTTTTTTTTTTTTTTT DIIS        TELAPSE      166.80 TCPU      126.14
 DIIS TEST: 0.22705E+02 AT SCF   CYCLE   2 - DIIS ACTIVE - HISTORY:     2 CYCLES
 TTTTTTTTTTTTTTTTTTTTTTTTTTTTTT FDIK        TELAPSE      174.19 TCPU      131.31
 INSULATING STATE
 TOP OF VALENCE BANDS -    BAND    212; K    5; EIG -2.3138250E-01 AU
 TOP OF VALENCE BANDS -    BAND    212; K    1; EIG -2.3703102E-01 AU
 BOTTOM OF VIRTUAL BANDS - BAND    213; K    1; EIG -1.1821130E-01 AU
 INDIRECT ENERGY BAND GAP:   3.0795 eV
 TTTTTTTTTTTTTTTTTTTTTTTTTTTTTT PDIG        TELAPSE      174.67 TCPU      131.78
 TOTAL ATOMIC CHARGES:
   1.1858618   1.1858618   1.1858618   1.1858618   1.0991745   1.0991745
   1.0991745   1.0991745   1.1677644   1.1677644   1.1677644   1.1677644
   5.9168586   5.9168586   5.9168586   5.9168586   5.7985144   5.7985144
   5.7985144   5.7985144   6.0142256   6.0142256   6.0142256   6.0142256
   6.0880791   6.0880791   6.0880791   6.0880791   5.4837958   5.4837958
   5.4837958   5.4837958   5.9205045   5.9205045   5.9205045   5.9205045
   6.9415896   6.9415896   6.9415896   6.9415896   7.1267061   7.1267061
   7.1267061   7.1267061   6.9801547   6.9801547   6.9801547   6.9801547
   7.1765915   7.1765915   7.1765915   7.1765915   7.3980341   7.3980341
   7.3980341   7.3980341  17.0909467  17.0909467  17.0909467  17.0909467
  29.2013383  29.2434556
 TTTTTTTTTTTTTTTTTTTTTTTTTTTTTT MOQGAD      TELAPSE      174.69 TCPU      131.80
 TTTTTTTTTTTTTTTTTTTTTTTTTTTTTT SHELLXN     TELAPSE      209.22 TCPU      163.82
 TTTTTTTTTTTTTTTTTTTTTTTTTTTTTT MONMO3      TELAPSE      209.83 TCPU      164.43
 NUMERICALLY INTEGRATED DENSITY    423.9999818819
 TTTTTTTTTTTTTTTTTTTTTTTTTTTTTT NUMDFT      TELAPSE      211.78 TCPU      166.36
 CYC   3 ETOT(AU) -7.410198483040E+03 DETOT -3.09E+00 tst  1.36E-02 PX  5.02E-01
 TTTTTTTTTTTTTTTTTTTTTTTTTTTTTT DIIS        TELAPSE      211.88 TCPU      166.46
 DIIS TEST: 0.39758E+01 AT SCF   CYCLE   3 - DIIS ACTIVE - HISTORY:     3 CYCLES
 TTTTTTTTTTTTTTTTTTTTTTTTTTTTTT FDIK        TELAPSE      224.27 TCPU      171.36
 INSULATING STATE
 TOP OF VALENCE BANDS -    BAND    212; K    1; EIG -2.2599516E-01 AU
 BOTTOM OF VIRTUAL BANDS - BAND    213; K    6; EIG -1.1759674E-01 AU
 INDIRECT ENERGY BAND GAP:   2.9497 eV
 BOTTOM OF VIRTUAL BANDS - BAND    213; K    1; EIG -1.1700906E-01 AU
 TTTTTTTTTTTTTTTTTTTTTTTTTTTTTT PDIG        TELAPSE      224.73 TCPU      171.82
 TOTAL ATOMIC CHARGES:
   1.1583157   1.1583157   1.1583157   1.1583157   1.1250366   1.1250366
   1.1250366   1.1250366   1.2161761   1.2161761   1.2161761   1.2161761
   6.3011647   6.3011647   6.3011647   6.3011647   5.7920152   5.7920152
   5.7920152   5.7920152   6.1710855   6.1710855   6.1710855   6.1710855
   5.7655893   5.7655893   5.7655893   5.7655893   5.4752559   5.4752559
   5.4752559   5.4752559   5.9454644   5.9454644   5.9454644   5.9454644
   7.2450307   7.2450307   7.2450307   7.2450307   7.0228590   7.0228590
   7.0228590   7.0228590   7.1747913   7.1747913   7.1747913   7.1747913
   7.0305527   7.0305527   7.0305527   7.0305527   6.9771991   6.9771991
   6.9771991   6.9771991  17.2017888  17.2017888  17.2017888  17.2017888
  28.7903793  28.8003205
 TTTTTTTTTTTTTTTTTTTTTTTTTTTTTT MOQGAD      TELAPSE      224.75 TCPU      171.84
 TTTTTTTTTTTTTTTTTTTTTTTTTTTTTT SHELLXN     TELAPSE      259.04 TCPU      203.84
 TTTTTTTTTTTTTTTTTTTTTTTTTTTTTT MONMO3      TELAPSE      259.88 TCPU      204.67
 NUMERICALLY INTEGRATED DENSITY    423.9999846693
 TTTTTTTTTTTTTTTTTTTTTTTTTTTTTT NUMDFT      TELAPSE      261.86 TCPU      206.64
 CYC   4 ETOT(AU) -7.410646200421E+03 DETOT -4.48E-01 tst  4.41E-03 PX  2.38E-01
 TTTTTTTTTTTTTTTTTTTTTTTTTTTTTT DIIS        TELAPSE      261.97 TCPU      206.76
 DIIS TEST: 0.93575E+00 AT SCF   CYCLE   4 - DIIS ACTIVE - HISTORY:     4 CYCLES
 TTTTTTTTTTTTTTTTTTTTTTTTTTTTTT FDIK        TELAPSE      269.41 TCPU      212.27
 INSULATING STATE
 TOP OF VALENCE BANDS -    BAND    212; K    5; EIG -2.4547742E-01 AU
 TOP OF VALENCE BANDS -    BAND    212; K    1; EIG -2.4735597E-01 AU
 BOTTOM OF VIRTUAL BANDS - BAND    213; K    6; EIG -1.2113622E-01 AU
 INDIRECT ENERGY BAND GAP:   3.3835 eV
 BOTTOM OF VIRTUAL BANDS - BAND    213; K    1; EIG -1.1939384E-01 AU
 TTTTTTTTTTTTTTTTTTTTTTTTTTTTTT PDIG        TELAPSE      269.87 TCPU      212.73
 TOTAL ATOMIC CHARGES:
   1.1714617   1.1714617   1.1714617   1.1714617   1.1149171   1.1149171
   1.1149171   1.1149171   1.2048487   1.2048487   1.2048487   1.2048487
   6.2006480   6.2006480   6.2006480   6.2006480   5.8115799   5.8115799
   5.8115799   5.8115799   6.0919023   6.0919023   6.0919023   6.0919023
   5.8968004   5.8968004   5.8968004   5.8968004   5.5874394   5.5874394
   5.5874394   5.5874394   5.8618377   5.8618377   5.8618377   5.8618377
   7.1162251   7.1162251   7.1162251   7.1162251   7.0549801   7.0549801
   7.0549801   7.0549801   7.1082385   7.1082385   7.1082385   7.1082385
   7.1030800   7.1030800   7.1030800   7.1030800   7.0652047   7.0652047
   7.0652047   7.0652047  17.1884219  17.1884219  17.1884219  17.1884219
  28.8409748  28.8486829
 TTTTTTTTTTTTTTTTTTTTTTTTTTTTTT MOQGAD      TELAPSE      269.89 TCPU      212.75
 TTTTTTTTTTTTTTTTTTTTTTTTTTTTTT SHELLXN     TELAPSE      304.30 TCPU      244.75
 TTTTTTTTTTTTTTTTTTTTTTTTTTTTTT MONMO3      TELAPSE      305.10 TCPU      245.55
 NUMERICALLY INTEGRATED DENSITY    423.9999828276
 TTTTTTTTTTTTTTTTTTTTTTTTTTTTTT NUMDFT      TELAPSE      307.05 TCPU      247.49
 CYC   5 ETOT(AU) -7.410782522277E+03 DETOT -1.36E-01 tst  6.44E-04 PX  1.16E-01
 TTTTTTTTTTTTTTTTTTTTTTTTTTTTTT DIIS        TELAPSE      307.17 TCPU      247.60
 DIIS TEST: 0.89435E-01 AT SCF   CYCLE   5 - DIIS ACTIVE - HISTORY:     5 CYCLES
 TTTTTTTTTTTTTTTTTTTTTTTTTTTTTT FDIK        TELAPSE      313.81 TCPU      252.05
 INSULATING STATE
 TOP OF VALENCE BANDS -    BAND    212; K    1; EIG -2.4253124E-01 AU
 BOTTOM OF VIRTUAL BANDS - BAND    213; K    6; EIG -1.1950253E-01 AU
 INDIRECT ENERGY BAND GAP:   3.3478 eV
 BOTTOM OF VIRTUAL BANDS - BAND    213; K    1; EIG -1.1885323E-01 AU
 TTTTTTTTTTTTTTTTTTTTTTTTTTTTTT PDIG        TELAPSE      314.27 TCPU      252.51
 TOTAL ATOMIC CHARGES:
   1.1714584   1.1714584   1.1714584   1.1714584   1.1102268   1.1102268
   1.1102268   1.1102268   1.2046011   1.2046011   1.2046011   1.2046011
   6.1847861   6.1847861   6.1847861   6.1847861   5.8173627   5.8173627
   5.8173627   5.8173627   6.1325366   6.1325366   6.1325366   6.1325366
   5.8874028   5.8874028   5.8874028   5.8874028   5.5005314   5.5005314
   5.5005314   5.5005314   5.9356581   5.9356581   5.9356581   5.9356581
   7.1435977   7.1435977   7.1435977   7.1435977   7.0468255   7.0468255
   7.0468255   7.0468255   7.1119022   7.1119022   7.1119022   7.1119022
   7.0686397   7.0686397   7.0686397   7.0686397   7.0579928   7.0579928
   7.0579928   7.0579928  17.1853045  17.1853045  17.1853045  17.1853045
  28.8748829  28.8898107
 TTTTTTTTTTTTTTTTTTTTTTTTTTTTTT MOQGAD      TELAPSE      314.29 TCPU      252.53
 TTTTTTTTTTTTTTTTTTTTTTTTTTTTTT SHELLXN     TELAPSE      348.63 TCPU      284.54
 TTTTTTTTTTTTTTTTTTTTTTTTTTTTTT MONMO3      TELAPSE      349.40 TCPU      285.31
 NUMERICALLY INTEGRATED DENSITY    423.9999830382
 TTTTTTTTTTTTTTTTTTTTTTTTTTTTTT NUMDFT      TELAPSE      351.37 TCPU      287.27
 CYC   6 ETOT(AU) -7.410791213829E+03 DETOT -8.69E-03 tst  1.08E-04 PX  2.61E-02
 TTTTTTTTTTTTTTTTTTTTTTTTTTTTTT DIIS        TELAPSE      351.49 TCPU      287.39
 DIIS TEST: 0.33096E-01 AT SCF   CYCLE   6 - DIIS ACTIVE - HISTORY:     6 CYCLES
 TTTTTTTTTTTTTTTTTTTTTTTTTTTTTT FDIK        TELAPSE      357.98 TCPU      291.57
 INSULATING STATE
 TOP OF VALENCE BANDS -    BAND    212; K    5; EIG -2.4213363E-01 AU
 TOP OF VALENCE BANDS -    BAND    212; K    1; EIG -2.4434298E-01 AU
 BOTTOM OF VIRTUAL BANDS - BAND    213; K    6; EIG -1.1962676E-01 AU
 INDIRECT ENERGY BAND GAP:   3.3336 eV
 BOTTOM OF VIRTUAL BANDS - BAND    213; K    1; EIG -1.1854586E-01 AU
 TTTTTTTTTTTTTTTTTTTTTTTTTTTTTT PDIG        TELAPSE      358.45 TCPU      292.03
 TOTAL ATOMIC CHARGES:
   1.1698033   1.1698033   1.1698033   1.1698033   1.1109168   1.1109168
   1.1109168   1.1109168   1.2039232   1.2039232   1.2039232   1.2039232
   6.1945503   6.1945503   6.1945503   6.1945503   5.8214018   5.8214018
   5.8214018   5.8214018   6.1144290   6.1144290   6.1144290   6.1144290
   5.8749396   5.8749396   5.8749396   5.8749396   5.5361420   5.5361420
   5.5361420   5.5361420   5.9030365   5.9030365   5.9030365   5.9030365
   7.1401270   7.1401270   7.1401270   7.1401270   7.0465845   7.0465845
   7.0465845   7.0465845   7.1080912   7.1080912   7.1080912   7.1080912
   7.0766158   7.0766158   7.0766158   7.0766158   7.0836009   7.0836009
   7.0836009   7.0836009  17.1725823  17.1725823  17.1725823  17.1725823
  28.8808641  28.8921592
 TTTTTTTTTTTTTTTTTTTTTTTTTTTTTT MOQGAD      TELAPSE      358.47 TCPU      292.05
 TTTTTTTTTTTTTTTTTTTTTTTTTTTTTT SHELLXN     TELAPSE      392.79 TCPU      324.03
 TTTTTTTTTTTTTTTTTTTTTTTTTTTTTT MONMO3      TELAPSE      393.68 TCPU      324.91
 NUMERICALLY INTEGRATED DENSITY    423.9999831340
 TTTTTTTTTTTTTTTTTTTTTTTTTTTTTT NUMDFT      TELAPSE      395.62 TCPU      326.85
 CYC   7 ETOT(AU) -7.410795031096E+03 DETOT -3.82E-03 tst  2.23E-05 PX  1.14E-02
 TTTTTTTTTTTTTTTTTTTTTTTTTTTTTT DIIS        TELAPSE      395.75 TCPU      326.97
 DIIS TEST: 0.56626E-02 AT SCF   CYCLE   7 - DIIS ACTIVE - HISTORY:     7 CYCLES
 TTTTTTTTTTTTTTTTTTTTTTTTTTTTTT FDIK        TELAPSE      400.40 TCPU      331.44
 INSULATING STATE
 TOP OF VALENCE BANDS -    BAND    212; K    5; EIG -2.4240847E-01 AU
 TOP OF VALENCE BANDS -    BAND    212; K    1; EIG -2.4267540E-01 AU
 BOTTOM OF VIRTUAL BANDS - BAND    213; K    6; EIG -1.1936981E-01 AU
 INDIRECT ENERGY BAND GAP:   3.3481 eV
 BOTTOM OF VIRTUAL BANDS - BAND    213; K    1; EIG -1.1818089E-01 AU
 TTTTTTTTTTTTTTTTTTTTTTTTTTTTTT PDIG        TELAPSE      400.87 TCPU      331.90
 TOTAL ATOMIC CHARGES:
   1.1695603   1.1695603   1.1695603   1.1695603   1.1115197   1.1115197
   1.1115197   1.1115197   1.2028786   1.2028786   1.2028786   1.2028786
   6.1868216   6.1868216   6.1868216   6.1868216   5.8145219   5.8145219
   5.8145219   5.8145219   6.1173001   6.1173001   6.1173001   6.1173001
   5.8903309   5.8903309   5.8903309   5.8903309   5.5352411   5.5352411
   5.5352411   5.5352411   5.9102075   5.9102075   5.9102075   5.9102075
   7.1251705   7.1251705   7.1251705   7.1251705   7.0493679   7.0493679
   7.0493679   7.0493679   7.1116959   7.1116959   7.1116959   7.1116959
   7.0887009   7.0887009   7.0887009   7.0887009   7.0622361   7.0622361
   7.0622361   7.0622361  17.1812943  17.1812943  17.1812943  17.1812943
  28.8792401  28.8933710
 TTTTTTTTTTTTTTTTTTTTTTTTTTTTTT MOQGAD      TELAPSE      400.89 TCPU      331.92
 TTTTTTTTTTTTTTTTTTTTTTTTTTTTTT SHELLXN     TELAPSE      437.22 TCPU      363.85
 TTTTTTTTTTTTTTTTTTTTTTTTTTTTTT MONMO3      TELAPSE      438.12 TCPU      364.74
 NUMERICALLY INTEGRATED DENSITY    423.9999832269
 TTTTTTTTTTTTTTTTTTTTTTTTTTTTTT NUMDFT      TELAPSE      440.06 TCPU      366.67
 CYC   8 ETOT(AU) -7.410795474078E+03 DETOT -4.43E-04 tst  2.77E-06 PX  6.03E-03
 TTTTTTTTTTTTTTTTTTTTTTTTTTTTTT DIIS        TELAPSE      440.32 TCPU      366.93
 DIIS TEST: 0.25745E-02 AT SCF   CYCLE   8 - DIIS ACTIVE - HISTORY:     8 CYCLES
 TTTTTTTTTTTTTTTTTTTTTTTTTTTTTT FDIK        TELAPSE      444.61 TCPU      371.07
 INSULATING STATE
 TOP OF VALENCE BANDS -    BAND    212; K    5; EIG -2.4274736E-01 AU
 TOP OF VALENCE BANDS -    BAND    212; K    1; EIG -2.4376133E-01 AU
 BOTTOM OF VIRTUAL BANDS - BAND    213; K    6; EIG -1.1964030E-01 AU
 INDIRECT ENERGY BAND GAP:   3.3499 eV
 BOTTOM OF VIRTUAL BANDS - BAND    213; K    1; EIG -1.1854095E-01 AU
 TTTTTTTTTTTTTTTTTTTTTTTTTTTTTT PDIG        TELAPSE      445.07 TCPU      371.53
 TOTAL ATOMIC CHARGES:
   1.1692185   1.1692185   1.1692185   1.1692185   1.1113182   1.1113182
   1.1113182   1.1113182   1.2027518   1.2027518   1.2027518   1.2027518
   6.1891015   6.1891015   6.1891015   6.1891015   5.8140814   5.8140814
   5.8140814   5.8140814   6.1155641   6.1155641   6.1155641   6.1155641
   5.8875918   5.8875918   5.8875918   5.8875918   5.5312478   5.5312478
   5.5312478   5.5312478   5.9089461   5.9089461   5.9089461   5.9089461
   7.1399899   7.1399899   7.1399899   7.1399899   7.0522664   7.0522664
   7.0522664   7.0522664   7.1072110   7.1072110   7.1072110   7.1072110
   7.0743465   7.0743465   7.0743465   7.0743465   7.0713969   7.0713969
   7.0713969   7.0713969  17.1816512  17.1816512  17.1816512  17.1816512
  28.8804540  28.8928130
 TTTTTTTTTTTTTTTTTTTTTTTTTTTTTT MOQGAD      TELAPSE      445.09 TCPU      371.55
 TTTTTTTTTTTTTTTTTTTTTTTTTTTTTT SHELLXN     TELAPSE      479.44 TCPU      403.53
 TTTTTTTTTTTTTTTTTTTTTTTTTTTTTT MONMO3      TELAPSE      480.33 TCPU      404.42
 NUMERICALLY INTEGRATED DENSITY    423.9999832195
 TTTTTTTTTTTTTTTTTTTTTTTTTTTTTT NUMDFT      TELAPSE      482.27 TCPU      406.34
 CYC   9 ETOT(AU) -7.410795710730E+03 DETOT -2.37E-04 tst  2.54E-06 PX  3.78E-03
 TTTTTTTTTTTTTTTTTTTTTTTTTTTTTT DIIS        TELAPSE      482.39 TCPU      406.47
 DIIS TEST: 0.97285E-03 AT SCF   CYCLE   9 - DIIS ACTIVE - HISTORY:     9 CYCLES
 TTTTTTTTTTTTTTTTTTTTTTTTTTTTTT FDIK        TELAPSE      489.14 TCPU      411.09
 INSULATING STATE
 TOP OF VALENCE BANDS -    BAND    212; K    5; EIG -2.4260964E-01 AU
 TOP OF VALENCE BANDS -    BAND    212; K    1; EIG -2.4387603E-01 AU
 BOTTOM OF VIRTUAL BANDS - BAND    213; K    6; EIG -1.1963706E-01 AU
 INDIRECT ENERGY BAND GAP:   3.3463 eV
 BOTTOM OF VIRTUAL BANDS - BAND    213; K    1; EIG -1.1855623E-01 AU
 TTTTTTTTTTTTTTTTTTTTTTTTTTTTTT PDIG        TELAPSE      489.60 TCPU      411.55
 TOTAL ATOMIC CHARGES:
   1.1690624   1.1690624   1.1690624   1.1690624   1.1112133   1.1112133
   1.1112133   1.1112133   1.2030594   1.2030594   1.2030594   1.2030594
   6.1906508   6.1906508   6.1906508   6.1906508   5.8160095   5.8160095
   5.8160095   5.8160095   6.1171251   6.1171251   6.1171251   6.1171251
   5.8842843   5.8842843   5.8842843   5.8842843   5.5300837   5.5300837
   5.5300837   5.5300837   5.9089870   5.9089870   5.9089870   5.9089870
   7.1332932   7.1332932   7.1332932   7.1332932   7.0461385   7.0461385
   7.0461385   7.0461385   7.1119111   7.1119111   7.1119111   7.1119111
   7.0813384   7.0813384   7.0813384   7.0813384   7.0738766   7.0738766
   7.0738766   7.0738766  17.1796716  17.1796716  17.1796716  17.1796716
  28.8803751  28.8928058
 TTTTTTTTTTTTTTTTTTTTTTTTTTTTTT MOQGAD      TELAPSE      489.62 TCPU      411.57
 TTTTTTTTTTTTTTTTTTTTTTTTTTTTTT SHELLXN     TELAPSE      523.96 TCPU      443.58
 TTTTTTTTTTTTTTTTTTTTTTTTTTTTTT MONMO3      TELAPSE      524.79 TCPU      444.42
 NUMERICALLY INTEGRATED DENSITY    423.9999830987
 TTTTTTTTTTTTTTTTTTTTTTTTTTTTTT NUMDFT      TELAPSE      526.73 TCPU      446.35
 CYC  10 ETOT(AU) -7.410795835999E+03 DETOT -1.25E-04 tst  8.51E-07 PX  1.92E-03
 TTTTTTTTTTTTTTTTTTTTTTTTTTTTTT DIIS        TELAPSE      526.86 TCPU      446.48
 DIIS TEST: 0.18467E-03 AT SCF   CYCLE  10 - DIIS ACTIVE - HISTORY:    10 CYCLES
 TTTTTTTTTTTTTTTTTTTTTTTTTTTTTT FDIK        TELAPSE      533.38 TCPU      450.83
 INSULATING STATE
 TOP OF VALENCE BANDS -    BAND    212; K    5; EIG -2.4258122E-01 AU
 TOP OF VALENCE BANDS -    BAND    212; K    1; EIG -2.4366839E-01 AU
 BOTTOM OF VIRTUAL BANDS - BAND    213; K    6; EIG -1.1959785E-01 AU
 INDIRECT ENERGY BAND GAP:   3.3465 eV
 BOTTOM OF VIRTUAL BANDS - BAND    213; K    1; EIG -1.1850307E-01 AU
 TTTTTTTTTTTTTTTTTTTTTTTTTTTTTT PDIG        TELAPSE      533.84 TCPU      451.29
 TOTAL ATOMIC CHARGES:
   1.1690937   1.1690937   1.1690937   1.1690937   1.1110146   1.1110146
   1.1110146   1.1110146   1.2030784   1.2030784   1.2030784   1.2030784
   6.1890240   6.1890240   6.1890240   6.1890240   5.8162811   5.8162811
   5.8162811   5.8162811   6.1173601   6.1173601   6.1173601   6.1173601
   5.8851056   5.8851056   5.8851056   5.8851056   5.5321374   5.5321374
   5.5321374   5.5321374   5.9096138   5.9096138   5.9096138   5.9096138
   7.1334756   7.1334756   7.1334756   7.1334756   7.0500760   7.0500760
   7.0500760   7.0500760   7.1086001   7.1086001   7.1086001   7.1086001
   7.0812890   7.0812890   7.0812890   7.0812890   7.0715445   7.0715445
   7.0715445   7.0715445  17.1793687  17.1793687  17.1793687  17.1793687
  28.8797458  28.8920032
 TTTTTTTTTTTTTTTTTTTTTTTTTTTTTT MOQGAD      TELAPSE      533.86 TCPU      451.30
 TTTTTTTTTTTTTTTTTTTTTTTTTTTTTT SHELLXN     TELAPSE      568.30 TCPU      483.29
 TTTTTTTTTTTTTTTTTTTTTTTTTTTTTT MONMO3      TELAPSE      569.14 TCPU      484.12
 NUMERICALLY INTEGRATED DENSITY    423.9999831394
 TTTTTTTTTTTTTTTTTTTTTTTTTTTTTT NUMDFT      TELAPSE      571.13 TCPU      486.10
 CYC  11 ETOT(AU) -7.410795858527E+03 DETOT -2.25E-05 tst  8.60E-08 PX  1.04E-03
 TTTTTTTTTTTTTTTTTTTTTTTTTTTTTT DIIS        TELAPSE      571.25 TCPU      486.22
 DIIS TEST: 0.35309E-04 AT SCF   CYCLE  11 - DIIS ACTIVE - HISTORY:    11 CYCLES
 TTTTTTTTTTTTTTTTTTTTTTTTTTTTTT FDIK        TELAPSE      577.75 TCPU      490.47
 INSULATING STATE
 TOP OF VALENCE BANDS -    BAND    212; K    5; EIG -2.4258244E-01 AU
 TOP OF VALENCE BANDS -    BAND    212; K    1; EIG -2.4365369E-01 AU
 BOTTOM OF VIRTUAL BANDS - BAND    213; K    6; EIG -1.1959476E-01 AU
 INDIRECT ENERGY BAND GAP:   3.3467 eV
 BOTTOM OF VIRTUAL BANDS - BAND    213; K    1; EIG -1.1849089E-01 AU
 TTTTTTTTTTTTTTTTTTTTTTTTTTTTTT PDIG        TELAPSE      578.22 TCPU      490.94
 TOTAL ATOMIC CHARGES:
   1.1692545   1.1692545   1.1692545   1.1692545   1.1110214   1.1110214
   1.1110214   1.1110214   1.2030077   1.2030077   1.2030077   1.2030077
   6.1890658   6.1890658   6.1890658   6.1890658   5.8156233   5.8156233
   5.8156233   5.8156233   6.1166494   6.1166494   6.1166494   6.1166494
   5.8860365   5.8860365   5.8860365   5.8860365   5.5316083   5.5316083
   5.5316083   5.5316083   5.9093938   5.9093938   5.9093938   5.9093938
   7.1344665   7.1344665   7.1344665   7.1344665   7.0485716   7.0485716
   7.0485716   7.0485716   7.1106311   7.1106311   7.1106311   7.1106311
   7.0801931   7.0801931   7.0801931   7.0801931   7.0714729   7.0714729
   7.0714729   7.0714729  17.1800495  17.1800495  17.1800495  17.1800495
  28.8795372  28.8922811
 TTTTTTTTTTTTTTTTTTTTTTTTTTTTTT MOQGAD      TELAPSE      578.24 TCPU      490.95
 TTTTTTTTTTTTTTTTTTTTTTTTTTTTTT SHELLXN     TELAPSE      612.61 TCPU      523.00
 TTTTTTTTTTTTTTTTTTTTTTTTTTTTTT MONMO3      TELAPSE      613.43 TCPU      523.83
 NUMERICALLY INTEGRATED DENSITY    423.9999831637
 TTTTTTTTTTTTTTTTTTTTTTTTTTTTTT NUMDFT      TELAPSE      615.38 TCPU      525.76
 CYC  12 ETOT(AU) -7.410795862947E+03 DETOT -4.42E-06 tst  4.43E-08 PX  4.25E-04
 TTTTTTTTTTTTTTTTTTTTTTTTTTTTTT DIIS        TELAPSE      615.49 TCPU      525.88
 DIIS TEST: 0.10615E-04 AT SCF   CYCLE  12 - DIIS ACTIVE - HISTORY:    12 CYCLES
 TTTTTTTTTTTTTTTTTTTTTTTTTTTTTT FDIK        TELAPSE      622.58 TCPU      530.80
 INSULATING STATE
 TOP OF VALENCE BANDS -    BAND    212; K    5; EIG -2.4259028E-01 AU
 TOP OF VALENCE BANDS -    BAND    212; K    1; EIG -2.4367691E-01 AU
 BOTTOM OF VIRTUAL BANDS - BAND    213; K    6; EIG -1.1958571E-01 AU
 INDIRECT ENERGY BAND GAP:   3.3471 eV
 BOTTOM OF VIRTUAL BANDS - BAND    213; K    1; EIG -1.1848908E-01 AU
 TTTTTTTTTTTTTTTTTTTTTTTTTTTTTT PDIG        TELAPSE      623.04 TCPU      531.26
 TOTAL ATOMIC CHARGES:
   1.1691706   1.1691706   1.1691706   1.1691706   1.1110935   1.1110935
   1.1110935   1.1110935   1.2030378   1.2030378   1.2030378   1.2030378
   6.1895708   6.1895708   6.1895708   6.1895708   5.8157776   5.8157776
   5.8157776   5.8157776   6.1169355   6.1169355   6.1169355   6.1169355
   5.8854762   5.8854762   5.8854762   5.8854762   5.5313814   5.5313814
   5.5313814   5.5313814   5.9093693   5.9093693   5.9093693   5.9093693
   7.1339651   7.1339651   7.1339651   7.1339651   7.0489643   7.0489643
   7.0489643   7.0489643   7.1097250   7.1097250   7.1097250   7.1097250
   7.0806703   7.0806703   7.0806703   7.0806703   7.0717582   7.0717582
   7.0717582   7.0717582  17.1800080  17.1800080  17.1800080  17.1800080
  28.8799155  28.8924694
 TTTTTTTTTTTTTTTTTTTTTTTTTTTTTT MOQGAD      TELAPSE      623.06 TCPU      531.28
 TTTTTTTTTTTTTTTTTTTTTTTTTTTTTT SHELLXN     TELAPSE      657.46 TCPU      563.31
 TTTTTTTTTTTTTTTTTTTTTTTTTTTTTT MONMO3      TELAPSE      658.29 TCPU      564.14
 NUMERICALLY INTEGRATED DENSITY    423.9999831516
 TTTTTTTTTTTTTTTTTTTTTTTTTTTTTT NUMDFT      TELAPSE      660.27 TCPU      566.10
 CYC  13 ETOT(AU) -7.410795864511E+03 DETOT -1.56E-06 tst  6.24E-09 PX  2.16E-04
 TTTTTTTTTTTTTTTTTTTTTTTTTTTTTT DIIS        TELAPSE      660.40 TCPU      566.23
 DIIS TEST: 0.11324E-05 AT SCF   CYCLE  13 - DIIS ACTIVE - HISTORY:    13 CYCLES
 TTTTTTTTTTTTTTTTTTTTTTTTTTTTTT FDIK        TELAPSE      665.67 TCPU      571.32
 INSULATING STATE
 TOP OF VALENCE BANDS -    BAND    212; K    5; EIG -2.4258762E-01 AU
 TOP OF VALENCE BANDS -    BAND    212; K    1; EIG -2.4367529E-01 AU
 BOTTOM OF VIRTUAL BANDS - BAND    213; K    6; EIG -1.1959541E-01 AU
 INDIRECT ENERGY BAND GAP:   3.3468 eV
 BOTTOM OF VIRTUAL BANDS - BAND    213; K    1; EIG -1.1849626E-01 AU
 TTTTTTTTTTTTTTTTTTTTTTTTTTTTTT PDIG        TELAPSE      666.13 TCPU      571.78
 TOTAL ATOMIC CHARGES:
   1.1691737   1.1691737   1.1691737   1.1691737   1.1110834   1.1110834
   1.1110834   1.1110834   1.2030306   1.2030306   1.2030306   1.2030306
   6.1892991   6.1892991   6.1892991   6.1892991   5.8157402   5.8157402
[...]
 DIIS TEST: 0.13616E+02 AT CPHF  CYCLE  14 - DIIS ACTIVE - HISTORY:    14 CYCLES
 CYCLE  14   ALPHA  569.125123  EPSILON    2.467313  DELTA    3.0614E-03
 TTTTTTTTTTTTTTTTTTTTTTTTTTTTTT MOQGAD      TELAPSE   121102.98 TCPU   119969.68
 TTTTTTTTTTTTTTTTTTTTTTTTTTTTTT CP_MONMON   TELAPSE   121108.08 TCPU   119974.75
 DIIS TEST: 0.14139E+02 AT CPHF  CYCLE  15 - DIIS ACTIVE - HISTORY:    15 CYCLES
 CYCLE  15   ALPHA  569.191431  EPSILON    2.467484  DELTA    6.6308E-02
 TTTTTTTTTTTTTTTTTTTTTTTTTTTTTT MOQGAD      TELAPSE   121347.31 TCPU   120212.40
 TTTTTTTTTTTTTTTTTTTTTTTTTTTTTT CP_MONMON   TELAPSE   121352.41 TCPU   120217.48
 DIIS TEST: 0.71058E+01 AT CPHF  CYCLE  16 - DIIS ACTIVE - HISTORY:    16 CYCLES
 CYCLE  16   ALPHA  569.212237  EPSILON    2.467538  DELTA    2.0806E-02
 TTTTTTTTTTTTTTTTTTTTTTTTTTTTTT MOQGAD      TELAPSE   121593.64 TCPU   120455.00
 TTTTTTTTTTTTTTTTTTTTTTTTTTTTTT CP_MONMON   TELAPSE   121598.73 TCPU   120460.07
 DIIS TEST: 0.28501E+01 AT CPHF  CYCLE  17 - DIIS ACTIVE - HISTORY:    17 CYCLES
 CYCLE  17   ALPHA  569.174096  EPSILON    2.467440  DELTA   -3.8141E-02
 TTTTTTTTTTTTTTTTTTTTTTTTTTTTTT MOQGAD      TELAPSE   121838.46 TCPU   120698.06
 TTTTTTTTTTTTTTTTTTTTTTTTTTTTTT CP_MONMON   TELAPSE   121843.55 TCPU   120703.14
 DIIS TEST: 0.11648E+01 AT CPHF  CYCLE  18 - DIIS ACTIVE - HISTORY:    18 CYCLES
 CYCLE  18   ALPHA  569.107726  EPSILON    2.467269  DELTA   -6.6370E-02
 TTTTTTTTTTTTTTTTTTTTTTTTTTTTTT MOQGAD      TELAPSE   122083.42 TCPU   120941.26
 TTTTTTTTTTTTTTTTTTTTTTTTTTTTTT CP_MONMON   TELAPSE   122088.52 TCPU   120946.34
 DIIS TEST: 0.28059E+00 AT CPHF  CYCLE  19 - DIIS ACTIVE - HISTORY:    19 CYCLES
 CYCLE  19   ALPHA  569.068452  EPSILON    2.467167  DELTA   -3.9273E-02
 TTTTTTTTTTTTTTTTTTTTTTTTTTTTTT MOQGAD      TELAPSE   122327.83 TCPU   121183.92
 TTTTTTTTTTTTTTTTTTTTTTTTTTTTTT CP_MONMON   TELAPSE   122332.93 TCPU   121189.00
 DIIS TEST: 0.19072E-01 AT CPHF  CYCLE  20 - DIIS ACTIVE - HISTORY:    20 CYCLES
 CYCLE  20   ALPHA  569.095149  EPSILON    2.467236  DELTA    2.6697E-02
 TTTTTTTTTTTTTTTTTTTTTTTTTTTTTT MOQGAD      TELAPSE   122572.14 TCPU   121426.44
 TTTTTTTTTTTTTTTTTTTTTTTTTTTTTT CP_MONMON   TELAPSE   122577.24 TCPU   121431.52
 DIIS TEST: 0.19071E-01 AT CPHF  CYCLE  21 - DIIS ACTIVE - HISTORY:    21 CYCLES
 CYCLE  21   ALPHA  569.116144  EPSILON    2.467290  DELTA    2.0994E-02
 TTTTTTTTTTTTTTTTTTTTTTTTTTTTTT MOQGAD      TELAPSE   122816.46 TCPU   121668.99
 TTTTTTTTTTTTTTTTTTTTTTTTTTTTTT CP_MONMON   TELAPSE   122821.55 TCPU   121674.07
 DIIS TEST: 0.76991E-02 AT CPHF  CYCLE  22 - DIIS ACTIVE - HISTORY:    22 CYCLES
 CYCLE  22   ALPHA  569.112966  EPSILON    2.467282  DELTA   -3.1774E-03
 TTTTTTTTTTTTTTTTTTTTTTTTTTTTTT MOQGAD      TELAPSE   123060.71 TCPU   121911.53
 TTTTTTTTTTTTTTTTTTTTTTTTTTTTTT CP_MONMON   TELAPSE   123065.82 TCPU   121916.62
 DIIS TEST: 0.94406E-02 AT CPHF  CYCLE  23 - DIIS ACTIVE - HISTORY:    23 CYCLES
 CYCLE  23   ALPHA  569.100801  EPSILON    2.467251  DELTA   -1.2165E-02
 TTTTTTTTTTTTTTTTTTTTTTTTTTTTTT MOQGAD      TELAPSE   123305.01 TCPU   122154.14
 TTTTTTTTTTTTTTTTTTTTTTTTTTTTTT CP_MONMON   TELAPSE   123310.12 TCPU   122159.23
 DIIS TEST: 0.15098E-01 AT CPHF  CYCLE  24 - DIIS ACTIVE - HISTORY:    24 CYCLES
 CYCLE  24   ALPHA  569.096793  EPSILON    2.467240  DELTA   -4.0086E-03
 TTTTTTTTTTTTTTTTTTTTTTTTTTTTTT MOQGAD      TELAPSE   123549.90 TCPU   122397.30
 TTTTTTTTTTTTTTTTTTTTTTTTTTTTTT CP_MONMON   TELAPSE   123555.01 TCPU   122402.39
 DIIS TEST: 0.15455E-01 AT CPHF  CYCLE  25 - DIIS ACTIVE - HISTORY:    25 CYCLES
 CYCLE  25   ALPHA  569.100172  EPSILON    2.467249  DELTA    3.3790E-03
 TTTTTTTTTTTTTTTTTTTTTTTTTTTTTT MOQGAD      TELAPSE   123795.10 TCPU   122640.66
 TTTTTTTTTTTTTTTTTTTTTTTTTTTTTT CP_MONMON   TELAPSE   123800.20 TCPU   122645.75
 DIIS TEST: 0.59512E-02 AT CPHF  CYCLE  26 - DIIS ACTIVE - HISTORY:    26 CYCLES
 CYCLE  26   ALPHA  569.101361  EPSILON    2.467252  DELTA    1.1893E-03
 TTTTTTTTTTTTTTTTTTTTTTTTTTTTTT MOQGAD      TELAPSE   124040.00 TCPU   122883.79
 TTTTTTTTTTTTTTTTTTTTTTTTTTTTTT CP_MONMON   TELAPSE   124045.11 TCPU   122888.87
 DIIS TEST: 0.12623E-02 AT CPHF  CYCLE  27 - DIIS ACTIVE - HISTORY:    27 CYCLES
 CYCLE  27   ALPHA  569.101690  EPSILON    2.467253  DELTA    3.2888E-04
 TTTTTTTTTTTTTTTTTTTTTTTTTTTTTT CP_SC       TELAPSE   124055.81 TCPU   122898.63

 *******************************************************************************

 POLARIZABILITY (ALPHA), DIELECTRIC (EPSILON) AND FIRST-ORDER ELECTRIC
 SUSCEPTIBILITY (CHI(1)) TENSORS (INDEPENDENT COMPONENTS)

  FR.(eV) COMP.   ALPHA(Re,Im)           EPSILON(Re,Im)                CHI(1)
  1.435   XX     927.1131       0.0000       3.3903       0.0000       2.3903
  1.435   ZZ     569.1017       0.0000       2.4673       0.0000       1.4673

 DIELECTRIC TENSOR

 TENSOR IN PRINCIPAL AXES SYSTEM
 AA  3.390275E+00 BB  3.390275E+00 CC  2.467253E+00

 REFRACTIVE INDICES 
 AA  1.570749E+00 BB  1.841270E+00 CC  1.841270E+00

 OPTICALLY ANISOTROPIC - UNIAXIAL CRYSTAL

 BIREFRINGENCE =  0.2705 (NEGATIVE) - OBLATE OPTICAL ELLIPSOID

 EPSILON=N**2=1+CHI(1)=1+ALPHA*4*PI/V,   4*PI/V=   0.00258 BOHR**(-3)
 ALPHA IN BOHR**3; EPSILON AND CHI(1) ARE DIMENSIONLESS.
 *******************************************************************************

 DYNAMIC FIELD: RUN 10/ 10 - RADIATION WAVELENGTH: 1064.0000 NM

 *******************************************************************************

 ELECTRIC FIELD APPLIED ALONG CARTESIAN DIRECTION X

 *******************************************************************************
 THE NUMBER OF SYMMETRY OPERATORS HAS BEEN REDUCED FROM  4 TO  1

 NEW GRID IN RECIPROCAL SPACE
 *******************************************************************************
 POINTS IN THE IBZ                  14 SHRINKING FACTORS               3  3  3
 *******************************************************************************
 *** K POINTS COORDINATES (OBLIQUE COORDINATES IN UNITS OF SHRINK FAC. )
   1-R(  0  0  0)   2-C(  1  0  0)   3-C(  0  1  2)   4-C(  2  0  1)
   5-C(  0  2  0)   6-C(  1  1  0)   7-C(  1  1  1)   8-C(  1  0  1)
   9-C(  0  1  1)  10-C(  2  1  0)  11-C(  0  0  2)  12-C(  2  1  1)
  13-C(  2  1  2)  14-C(  2  2  1)

 GCALCO - MAX INDICES DIRECT LATTICE VECTOR    14    14    16
 NO.OF VECTORS CREATED 6999 STARS  478 RMAX   201.80709 BOHR
 TTTTTTTTTTTTTTTTTTTTTTTTTTTTTT gordsh1     TELAPSE   124055.82 TCPU   122898.64

 MATRIX SIZE: P(G) 1866180, F(G)  933878, P(G) IRR  935584, F(G) IRR  935584
 MAX G-VECTOR INDEX FOR 1- AND 2-ELECTRON INTEGRALS 201

 TTTTTTTTTTTTTTTTTTTTTTTTTTTTTT INPUT       TELAPSE   124055.91 TCPU   122898.72
 TTTTTTTTTTTTTTTTTTTTTTTTTTTTTT SYMM        TELAPSE   124055.91 TCPU   122898.72

 ***** NEW REFERENCE GEOMETRY *****
 TTTTTTTTTTTTTTTTTTTTTTTTTTTTTT INT_SCREEN  TELAPSE   124055.92 TCPU   122898.73
 INFORMATION **** EXCBUF **** EXCH. BIPO BUFFER: WORDS USED =           0

 DFT PARAMETERS

     ATOM       ELECTRONS   NET CHARGE   R(ANGSTROM)
   1   1  H       1.0000      0.0000     1.11000000
  13   6  C       6.0000      0.0000     0.77000000
  37   7  N       7.0000      0.0000     0.74000000
  57  17  CL     17.0000      0.0000     0.99000000
  61  30  ZN     30.0000      0.0000     1.37000000

 SIZE OF GRID=    1823098
 TTTTTTTTTTTTTTTTTTTTTTTTTTTTTT MAKE_GRID2  TELAPSE   124057.21 TCPU   122900.02
 BECKE WEIGHT FUNCTION
 RADSAFE =     2.00
 TOLERANCES - DENSITY:10**- 6; POTENTIAL:10**- 9; GRID WGT:10**-14

 RADIAL INTEGRATION  - INTERVALS (POINTS,UPPER LIMIT):            1( 75,  4.0*R)

 ANGULAR INTEGRATION - INTERVALS (ACCURACY LEVEL [N. POINTS] UPPER LIMIT):
  1(  4[  86]   0.2)  2(  8[ 194]   0.5)  3( 12[ 350]   0.9)  4( 16[ 974]   3.5)
  5( 12[ 350]9999.0)
 TTTTTTTTTTTTTTTTTTTTTTTTTTTTTT INT_CALC    TELAPSE   124057.27 TCPU   122900.07
 CYCLE   0   ALPHA 1268.683356  EPSILON    4.270908  DELTA    1.2687E+03
 TTTTTTTTTTTTTTTTTTTTTTTTTTTTTT MOQGAD      TELAPSE   124530.35 TCPU   123370.87
 TTTTTTTTTTTTTTTTTTTTTTTTTTTTTT CP_MONMON   TELAPSE   124539.66 TCPU   123380.15
 DIIS TEST: 0.30162E+03 AT CPHF  CYCLE   1 - MIX    0 %
 CYCLE   1   ALPHA  180.800682  EPSILON    1.466139  DELTA   -1.0879E+03
 TTTTTTTTTTTTTTTTTTTTTTTTTTTTTT MOQGAD      TELAPSE   125012.31 TCPU   123849.25
 TTTTTTTTTTTTTTTTTTTTTTTTTTTTTT CP_MONMON   TELAPSE   125021.61 TCPU   123858.52
 DIIS TEST: 0.23219E+04 AT CPHF  CYCLE   2 - DIIS ACTIVE - HISTORY:     2 CYCLES
 CYCLE   2   ALPHA  855.908185  EPSILON    3.206695  DELTA    6.7511E+02
 TTTTTTTTTTTTTTTTTTTTTTTTTTTTTT MOQGAD      TELAPSE   125495.09 TCPU   124327.05
 TTTTTTTTTTTTTTTTTTTTTTTTTTTTTT CP_MONMON   TELAPSE   125504.39 TCPU   124336.32
 DIIS TEST: 0.37517E+02 AT CPHF  CYCLE   3 - DIIS ACTIVE - HISTORY:     3 CYCLES
 CYCLE   3   ALPHA  897.994998  EPSILON    3.315203  DELTA    4.2087E+01
 TTTTTTTTTTTTTTTTTTTTTTTTTTTTTT MOQGAD      TELAPSE   125977.26 TCPU   124805.80
 TTTTTTTTTTTTTTTTTTTTTTTTTTTTTT CP_MONMON   TELAPSE   125986.54 TCPU   124815.04
 DIIS TEST: 0.53528E+01 AT CPHF  CYCLE   4 - DIIS ACTIVE - HISTORY:     4 CYCLES
 CYCLE   4   ALPHA  909.168493  EPSILON    3.344010  DELTA    1.1173E+01
 TTTTTTTTTTTTTTTTTTTTTTTTTTTTTT MOQGAD      TELAPSE   126459.51 TCPU   125284.18
 TTTTTTTTTTTTTTTTTTTTTTTTTTTTTT CP_MONMON   TELAPSE   126468.78 TCPU   125293.40
 DIIS TEST: 0.11005E+01 AT CPHF  CYCLE   5 - DIIS ACTIVE - HISTORY:     5 CYCLES
 CYCLE   5   ALPHA  912.271694  EPSILON    3.352011  DELTA    3.1032E+00
 TTTTTTTTTTTTTTTTTTTTTTTTTTTTTT MOQGAD      TELAPSE   126941.91 TCPU   125763.08
 TTTTTTTTTTTTTTTTTTTTTTTTTTTTTT CP_MONMON   TELAPSE   126955.95 TCPU   125777.06
 DIIS TEST: 0.10689E+00 AT CPHF  CYCLE   6 - DIIS ACTIVE - HISTORY:     6 CYCLES
 CYCLE   6   ALPHA  913.548887  EPSILON    3.355304  DELTA    1.2772E+00
 TTTTTTTTTTTTTTTTTTTTTTTTTTTTTT MOQGAD      TELAPSE   127431.25 TCPU   126248.97
 TTTTTTTTTTTTTTTTTTTTTTTTTTTTTT CP_MONMON   TELAPSE   127440.51 TCPU   126258.19
 DIIS TEST: 0.12995E+01 AT CPHF  CYCLE   7 - DIIS ACTIVE - HISTORY:     7 CYCLES
 CYCLE   7   ALPHA  913.734039  EPSILON    3.355781  DELTA    1.8515E-01
 TTTTTTTTTTTTTTTTTTTTTTTTTTTTTT MOQGAD      TELAPSE   127914.02 TCPU   126728.80
 TTTTTTTTTTTTTTTTTTTTTTTTTTTTTT CP_MONMON   TELAPSE   127923.28 TCPU   126738.03
 DIIS TEST: 0.44490E-01 AT CPHF  CYCLE   8 - DIIS ACTIVE - HISTORY:     8 CYCLES
 CYCLE   8   ALPHA  914.024803  EPSILON    3.356531  DELTA    2.9076E-01
 TTTTTTTTTTTTTTTTTTTTTTTTTTTTTT MOQGAD      TELAPSE   128396.63 TCPU   127206.15
 TTTTTTTTTTTTTTTTTTTTTTTTTTTTTT CP_MONMON   TELAPSE   128405.91 TCPU   127215.39
 DIIS TEST: 0.11469E-02 AT CPHF  CYCLE   9 - DIIS ACTIVE - HISTORY:     9 CYCLES
 CYCLE   9   ALPHA  914.097729  EPSILON    3.356719  DELTA    7.2926E-02
 TTTTTTTTTTTTTTTTTTTTTTTTTTTTTT MOQGAD      TELAPSE   128879.02 TCPU   127684.94
 TTTTTTTTTTTTTTTTTTTTTTTTTTTTTT CP_MONMON   TELAPSE   128888.28 TCPU   127694.16
 DIIS TEST: 0.17634E-03 AT CPHF  CYCLE  10 - DIIS ACTIVE - HISTORY:    10 CYCLES
 CYCLE  10   ALPHA  914.052158  EPSILON    3.356601  DELTA   -4.5571E-02
 TTTTTTTTTTTTTTTTTTTTTTTTTTTTTT MOQGAD      TELAPSE   129361.12 TCPU   128163.77
 TTTTTTTTTTTTTTTTTTTTTTTTTTTTTT CP_MONMON   TELAPSE   129370.38 TCPU   128173.00
 DIIS TEST: 0.24808E-04 AT CPHF  CYCLE  11 - DIIS ACTIVE - HISTORY:    11 CYCLES
 CYCLE  11   ALPHA  914.039698  EPSILON    3.356569  DELTA   -1.2461E-02
 TTTTTTTTTTTTTTTTTTTTTTTTTTTTTT MOQGAD      TELAPSE   129843.59 TCPU   128642.69
 TTTTTTTTTTTTTTTTTTTTTTTTTTTTTT CP_MONMON   TELAPSE   129852.85 TCPU   128651.92
 DIIS TEST: 0.34400E-05 AT CPHF  CYCLE  12 - DIIS ACTIVE - HISTORY:    12 CYCLES
 CYCLE  12   ALPHA  914.032269  EPSILON    3.356550  DELTA   -7.4288E-03
 TTTTTTTTTTTTTTTTTTTTTTTTTTTTTT MOQGAD      TELAPSE   130325.92 TCPU   129121.57
 TTTTTTTTTTTTTTTTTTTTTTTTTTTTTT CP_MONMON   TELAPSE   130335.19 TCPU   129130.81
 DIIS TEST: 0.32436E-06 AT CPHF  CYCLE  13 - DIIS ACTIVE - HISTORY:    13 CYCLES
 CYCLE  13   ALPHA  914.030717  EPSILON    3.356546  DELTA   -1.5521E-03
 TTTTTTTTTTTTTTTTTTTTTTTTTTTTTT MOQGAD      TELAPSE   131054.91 TCPU   129845.83
 TTTTTTTTTTTTTTTTTTTTTTTTTTTTTT CP_MONMON   TELAPSE   131064.20 TCPU   129855.04
 DIIS TEST: 0.29827E-07 AT CPHF  CYCLE  14 - DIIS ACTIVE - HISTORY:    14 CYCLES
 CYCLE  14   ALPHA  914.030394  EPSILON    3.356545  DELTA   -3.2294E-04
 TTTTTTTTTTTTTTTTTTTTTTTTTTTTTT CP_SC       TELAPSE   131075.73 TCPU   129865.06

 *******************************************************************************

 ELECTRIC FIELD APPLIED ALONG CARTESIAN DIRECTION Z

 *******************************************************************************
 THE NUMBER OF SYMMETRY OPERATORS HAS BEEN REDUCED FROM  4 TO  2

 NEW GRID IN RECIPROCAL SPACE
 *******************************************************************************
 POINTS IN THE IBZ                  10 SHRINKING FACTORS               3  3  3
 *******************************************************************************
 *** K POINTS COORDINATES (OBLIQUE COORDINATES IN UNITS OF SHRINK FAC. )
   1-R(  0  0  0)   2-C(  1  0  0)   3-C(  2  0  1)   4-C(  1  1  0)
   5-C(  1  0  1)   6-C(  2  1  0)   7-C(  0  0  2)   8-C(  2  1  1)
   9-C(  2  1  2)  10-C(  2  2  1)

 GCALCO - MAX INDICES DIRECT LATTICE VECTOR    14    14    16
 NO.OF VECTORS CREATED 6999 STARS  478 RMAX   201.80709 BOHR
 TTTTTTTTTTTTTTTTTTTTTTTTTTTTTT gordsh1     TELAPSE   131075.74 TCPU   129865.06

 MATRIX SIZE: P(G) 1866180, F(G)  933878, P(G) IRR  470202, F(G) IRR  470202
 MAX G-VECTOR INDEX FOR 1- AND 2-ELECTRON INTEGRALS 201

 TTTTTTTTTTTTTTTTTTTTTTTTTTTTTT INPUT       TELAPSE   131075.78 TCPU   129865.09
 TTTTTTTTTTTTTTTTTTTTTTTTTTTTTT SYMM        TELAPSE   131075.78 TCPU   129865.09

 ***** NEW REFERENCE GEOMETRY *****
 TTTTTTTTTTTTTTTTTTTTTTTTTTTTTT INT_SCREEN  TELAPSE   131075.78 TCPU   129865.09
 INFORMATION **** EXCBUF **** EXCH. BIPO BUFFER: WORDS USED =           0

 DFT PARAMETERS

     ATOM       ELECTRONS   NET CHARGE   R(ANGSTROM)
   1   1  H       1.0000      0.0000     1.11000000
  13   6  C       6.0000      0.0000     0.77000000
  37   7  N       7.0000      0.0000     0.74000000
  57  17  CL     17.0000      0.0000     0.99000000
  61  30  ZN     30.0000      0.0000     1.37000000

 SIZE OF GRID=     911662
 TTTTTTTTTTTTTTTTTTTTTTTTTTTTTT MAKE_GRID2  TELAPSE   131076.66 TCPU   129865.97
 BECKE WEIGHT FUNCTION
 RADSAFE =     2.00
 TOLERANCES - DENSITY:10**- 6; POTENTIAL:10**- 9; GRID WGT:10**-14

 RADIAL INTEGRATION  - INTERVALS (POINTS,UPPER LIMIT):            1( 75,  4.0*R)

 ANGULAR INTEGRATION - INTERVALS (ACCURACY LEVEL [N. POINTS] UPPER LIMIT):
  1(  4[  86]   0.2)  2(  8[ 194]   0.5)  3( 12[ 350]   0.9)  4( 16[ 974]   3.5)
  5( 12[ 350]9999.0)
 TTTTTTTTTTTTTTTTTTTTTTTTTTTTTT INT_CALC    TELAPSE   131076.70 TCPU   129866.01
 CYCLE   0   ALPHA  757.721806  EPSILON    2.953552  DELTA    7.5772E+02
 TTTTTTTTTTTTTTTTTTTTTTTTTTTTTT MOQGAD      TELAPSE   131318.99 TCPU   130106.83
 TTTTTTTTTTTTTTTTTTTTTTTTTTTTTT CP_MONMON   TELAPSE   131324.09 TCPU   130111.91
 DIIS TEST: 0.14794E+03 AT CPHF  CYCLE   1 - MIX    0 %
 CYCLE   1   ALPHA  220.519903  EPSILON    1.568542  DELTA   -5.3720E+02
 TTTTTTTTTTTTTTTTTTTTTTTTTTTTTT MOQGAD      TELAPSE   131567.40 TCPU   130353.51
 TTTTTTTTTTTTTTTTTTTTTTTTTTTTTT CP_MONMON   TELAPSE   131572.51 TCPU   130358.59
 DIIS TEST: 0.12633E+04 AT CPHF  CYCLE   2 - DIIS ACTIVE - HISTORY:     2 CYCLES
 CYCLE   2   ALPHA  514.534508  EPSILON    2.326568  DELTA    2.9401E+02
 TTTTTTTTTTTTTTTTTTTTTTTTTTTTTT MOQGAD      TELAPSE   131815.67 TCPU   130600.15
 TTTTTTTTTTTTTTTTTTTTTTTTTTTTTT CP_MONMON   TELAPSE   131820.77 TCPU   130605.23
 DIIS TEST: 0.21241E+05 AT CPHF  CYCLE   3 - DIIS ACTIVE - HISTORY:     3 CYCLES
 CYCLE   3   ALPHA  516.468467  EPSILON    2.331554  DELTA    1.9340E+00
 TTTTTTTTTTTTTTTTTTTTTTTTTTTTTT MOQGAD      TELAPSE   132064.14 TCPU   130846.91
 TTTTTTTTTTTTTTTTTTTTTTTTTTTTTT CP_MONMON   TELAPSE   132069.23 TCPU   130851.98
 DIIS TEST: 0.25879E+04 AT CPHF  CYCLE   4 - DIIS ACTIVE - HISTORY:     4 CYCLES
 CYCLE   4   ALPHA  521.875784  EPSILON    2.345496  DELTA    5.4073E+00
 TTTTTTTTTTTTTTTTTTTTTTTTTTTTTT MOQGAD      TELAPSE   132312.65 TCPU   131093.68
 TTTTTTTTTTTTTTTTTTTTTTTTTTTTTT CP_MONMON   TELAPSE   132317.75 TCPU   131098.76
 DIIS TEST: 0.59492E+03 AT CPHF  CYCLE   5 - DIIS ACTIVE - HISTORY:     5 CYCLES
 CYCLE   5   ALPHA  529.082226  EPSILON    2.364075  DELTA    7.2064E+00
 TTTTTTTTTTTTTTTTTTTTTTTTTTTTTT MOQGAD      TELAPSE   132561.05 TCPU   131340.39
 TTTTTTTTTTTTTTTTTTTTTTTTTTTTTT CP_MONMON   TELAPSE   132566.14 TCPU   131345.46
 DIIS TEST: 0.14360E+04 AT CPHF  CYCLE   6 - DIIS ACTIVE - HISTORY:     6 CYCLES
 CYCLE   6   ALPHA  558.845371  EPSILON    2.440810  DELTA    2.9763E+01
 TTTTTTTTTTTTTTTTTTTTTTTTTTTTTT MOQGAD      TELAPSE   132809.44 TCPU   131587.09
 TTTTTTTTTTTTTTTTTTTTTTTTTTTTTT CP_MONMON   TELAPSE   132814.53 TCPU   131592.17
 DIIS TEST: 0.41577E+02 AT CPHF  CYCLE   7 - DIIS ACTIVE - HISTORY:     7 CYCLES
 CYCLE   7   ALPHA  562.849891  EPSILON    2.451135  DELTA    4.0045E+00
 TTTTTTTTTTTTTTTTTTTTTTTTTTTTTT MOQGAD      TELAPSE   133057.82 TCPU   131833.75
 TTTTTTTTTTTTTTTTTTTTTTTTTTTTTT CP_MONMON   TELAPSE   133062.92 TCPU   131838.82
 DIIS TEST: 0.14000E+01 AT CPHF  CYCLE   8 - DIIS ACTIVE - HISTORY:     8 CYCLES
 CYCLE   8   ALPHA  563.463186  EPSILON    2.452716  DELTA    6.1329E-01
 TTTTTTTTTTTTTTTTTTTTTTTTTTTTTT MOQGAD      TELAPSE   133306.28 TCPU   132080.40
 TTTTTTTTTTTTTTTTTTTTTTTTTTTTTT CP_MONMON   TELAPSE   133311.37 TCPU   132085.47
 DIIS TEST: 0.16427E+01 AT CPHF  CYCLE   9 - DIIS ACTIVE - HISTORY:     9 CYCLES
 CYCLE   9   ALPHA  564.153289  EPSILON    2.454495  DELTA    6.9010E-01
 TTTTTTTTTTTTTTTTTTTTTTTTTTTTTT MOQGAD      TELAPSE   133554.61 TCPU   132327.03
 TTTTTTTTTTTTTTTTTTTTTTTTTTTTTT CP_MONMON   TELAPSE   133559.71 TCPU   132332.11
 DIIS TEST: 0.59147E+01 AT CPHF  CYCLE  10 - DIIS ACTIVE - HISTORY:    10 CYCLES
 CYCLE  10   ALPHA  564.180304  EPSILON    2.454565  DELTA    2.7015E-02
 TTTTTTTTTTTTTTTTTTTTTTTTTTTTTT MOQGAD      TELAPSE   133803.05 TCPU   132573.77
 TTTTTTTTTTTTTTTTTTTTTTTTTTTTTT CP_MONMON   TELAPSE   133808.16 TCPU   132578.85
 DIIS TEST: 0.11380E+02 AT CPHF  CYCLE  11 - DIIS ACTIVE - HISTORY:    11 CYCLES
 CYCLE  11   ALPHA  564.181173  EPSILON    2.454567  DELTA    8.6942E-04
 TTTTTTTTTTTTTTTTTTTTTTTTTTTTTT CP_SC       TELAPSE   133818.90 TCPU   132588.59

 *******************************************************************************

 POLARIZABILITY (ALPHA), DIELECTRIC (EPSILON) AND FIRST-ORDER ELECTRIC
 SUSCEPTIBILITY (CHI(1)) TENSORS (INDEPENDENT COMPONENTS)

  FR.(eV) COMP.   ALPHA(Re,Im)           EPSILON(Re,Im)                CHI(1)
  1.165   XX     914.0304       0.0000       3.3565       0.0000       2.3565
  1.165   ZZ     564.1812       0.0000       2.4546       0.0000       1.4546

 DIELECTRIC TENSOR

 TENSOR IN PRINCIPAL AXES SYSTEM
 AA  3.356545E+00 BB  3.356545E+00 CC  2.454567E+00

 REFRACTIVE INDICES 
 AA  1.566706E+00 BB  1.832088E+00 CC  1.832088E+00

 OPTICALLY ANISOTROPIC - UNIAXIAL CRYSTAL

 BIREFRINGENCE =  0.2654 (NEGATIVE) - OBLATE OPTICAL ELLIPSOID

 EPSILON=N**2=1+CHI(1)=1+ALPHA*4*PI/V,   4*PI/V=   0.00258 BOHR**(-3)
 ALPHA IN BOHR**3; EPSILON AND CHI(1) ARE DIMENSIONLESS.
 *******************************************************************************


 GCALCO - MAX INDICES DIRECT LATTICE VECTOR    14    14    16
 NO.OF VECTORS CREATED 6999 STARS  478 RMAX   201.80709 BOHR

 CAPPA:IS1  3;IS2  3;IS3  3; K PTS MONK NET   6; SYMMOPS:K SPACE   8;G SPACE   4

 TTTTTTTTTTTTTTTTTTTTTTTTTTTTTT END         TELAPSE   133818.95 TCPU   132588.59
 EEEEEEEEEE TERMINATION  DATE 19 01 2024 TIME 04:51:49.3
NODE    0 CPU TIME =    132588.590
    TOTAL CPU TIME =   8489430.233
trying normal rsh (/usr/bin/rsh)
exec: No such file or directory
trying normal rsh (/usr/bin/rsh)
exec: No such file or directory
trying normal rsh (/usr/bin/rsh)
exec: No such file or directory
trying normal rsh (/usr/bin/rsh)
exec: No such file or directory
