Loading crystal17/1.0.2/intel/19.0
  Loading requirement: intel/19.0 ompi/4.0.1/intel/19.0
 PROCESS            2  OF           24  WORKING
 PROCESS            6  OF           24  WORKING
 PROCESS            7  OF           24  WORKING
 PROCESS            8  OF           24  WORKING
 PROCESS            9  OF           24  WORKING
 PROCESS           10  OF           24  WORKING
 PROCESS           11  OF           24  WORKING
 PROCESS           12  OF           24  WORKING
 PROCESS           13  OF           24  WORKING
 PROCESS           14  OF           24  WORKING
 PROCESS           15  OF           24  WORKING
 PROCESS           16  OF           24  WORKING
 PROCESS           17  OF           24  WORKING
 PROCESS           18  OF           24  WORKING
 PROCESS           19  OF           24  WORKING
 PROCESS           20  OF           24  WORKING
 PROCESS           21  OF           24  WORKING
 PROCESS           22  OF           24  WORKING
 PROCESS           23  OF           24  WORKING
 PROCESS            0  OF           24  WORKING
 PROCESS            1  OF           24  WORKING
 PROCESS            3  OF           24  WORKING
 PROCESS            4  OF           24  WORKING
 PROCESS            5  OF           24  WORKING

         
 *******************************************************************************
 *                                                                             *
 *                               CRYSTAL17                                     *
 *                      public : 1.0.2 - March 1st, 2018                       *
 *                       HTTP://WWW.CRYSTAL.UNITO.IT                           *
 *                                                                             *
 *                              MAIN AUTHORS                                   *
 *                                                                             *
 *  R. DOVESI(1,11), V.R. SAUNDERS(2), C. ROETTI(1,11), R. ORLANDO(1,11),      *
 *  C.M. ZICOVICH-WILSON(1,3), F. PASCALE(4), B. CIVALLERI(1,11),              *
 *  K. DOLL(5), N.M. HARRISON(2,6), I.J. BUSH(7), Ph. D'ARCO(8),               *
 *  M. LLUNELL(9), M. CAUSA'(10), Y. NOEL(8), L. MASCHIO(1,11), A. ERBA(1,11)  *
 *  M. RE'RAT(14), S. CASASSA(1,11)                                            *
 *                                                                             *
 *        CONTRIBUTIONS TO THE CODE HAVE ALSO BEEN GIVEN BY                    *
 *                                                                             *
 *  M. FERRABONE(1,11), M. DE LA PIERRE(1,11), M. FERRERO(1,11),               *
 *  J. BAIMA(1,11), E. ALBANESE(1,11), M.F. PEINTINGER(12), R. BAST(13),       *
 *  B. KIRTMAN(15), V. LACIVITA(1,11), R. DEMICHELIS(1,16)                     *
 *  G. BRANDEBURG(17), S. SALUSTRO(1,11), G. SANSONE(1,11)                     *
 *  M.T. RUGGIERO(18)                                                          *
 *                                                                             *
 * (1) THEORETICAL CHEMISTRY GROUP - UNIVERSITA' DI TORINO - TORINO (ITALY)    *
 * (2) COMPUTATIONAL SCIENCE & ENGINEERING DEPARTMENT - STFC DARESBURY (UK)    *
 * (3) UNIVERSIDAD AUTONOMA DEL ESTADO DE MORELOS - CUERNAVACA (MEXICO)        *
 * (4) UNIVERSITE' DE LORRAINE - NANCY (FRANCE)                                *
 * (5) UNIVERSITAET STUTTGART- STUTTGART (GERMANY)                             *
 * (6) IMPERIAL COLLEGE - LONDON (UK)                                          *
 * (7) OXFORD E-RESEARCH CENTRE - OXFORD (UK)                                  *
 * (8) UPMC - SORBONNE UNIVERSITES - PARIS (FRANCE)                            *
 * (9) UNIVERSIDAD DE BARCELONA - BARCELONA (SPAIN)                            *
 *(10) UNIVERSITA' DI NAPOLI "FEDERICO II" - NAPOLI (ITALY)                    *
 *(11) NIS - NANOSTRUCTURED INTERFACES AND SURFACES - TORINO (ITALY)           *
 *(12) MPI FUER CHEMISCHE ENERGIEKONVERSION - MUELHEIM AN DER RUHR (GERMANY)   *
 *(13) UNIVERSITY OF TROMSO - TROMSO (NORWAY)                                  *
 *(14) UNIVERSITE' DE PAU ET DES PAYS DE L'ADOUR - PAU (FRANCE)                *
 *(15) UNIVERSITY OF CALIFORNIA SANTA BARBARA - SANTA BARBARA (USA)            *
 *(16) CURTIN UNIVERSITY - PERTH (AUSTRALIA)                                   *
 *(17) UNIVERSITY COLLEGE LONDON - LONDON (UK)                                 *
 *(18) CAMBRIDGE UNIVERSITY - CAMBRIDGE (UK)                                   *
 *                                                                             *
 *******************************************************************************
 EEEEEEEEEE STARTING  DATE 03 12 2023 TIME 12:04:40.2
 Z:\home\sanoj\Downloads\tmp_p\newconn.mol                                       

 CRYSTAL CALCULATION
 (INPUT ACCORDING TO THE INTERNATIONAL TABLES FOR X-RAY CRYSTALLOGRAPHY)
 CRYSTAL FAMILY                       :  TETRAGONAL  
 CRYSTAL CLASS  (GROTH - 1921)        :  TETRAGONAL DISPHENOIDAL              

 SPACE GROUP (NONCENTROSYMMETRIC)     :  I -4            

 LATTICE PARAMETERS  (ANGSTROMS AND DEGREES) - CONVENTIONAL CELL
        A           B           C        ALPHA        BETA       GAMMA
    10.62471    10.62471    12.73142    90.00000    90.00000    90.00000


 NUMBER OF IRREDUCIBLE ATOMS IN THE CONVENTIONAL CELL:   17

 INPUT COORDINATES

 ATOM AT. N.              COORDINATES
   1   1     9.415000000000E-02  7.397900000000E-01  3.654000000000E-01
   2   1     4.808000000000E-01  8.540200000000E-01  4.221300000000E-01
   3   1     4.018000000000E-01  4.732300000000E-01  3.822900000000E-01
   4   6     2.833200000000E-01  8.152300000000E-01  3.917500000000E-01
   5   6     2.563600000000E-01 -5.072000000000E-02  3.808100000000E-01
   6   6     1.937900000000E-01  7.189900000000E-01  3.776900000000E-01
   7   6     3.678600000000E-01  5.706400000000E-01  3.860700000000E-01
   8   6     4.102700000000E-01  7.817500000000E-01  4.061700000000E-01
   9   6     7.606400000000E-01  4.041900000000E-01  3.748400000000E-01
  10   7     3.397700000000E-01  2.906000000000E-02  3.345000000000E-01
  11   7     2.869000000000E-01  1.473600000000E-01  3.361300000000E-01
  12   7     1.538700000000E-01  1.614000000000E-02  4.100800000000E-01
  13   7     1.753100000000E-01  1.398500000000E-01  3.806200000000E-01
  14   7     4.519800000000E-01  6.629200000000E-01  4.022500000000E-01
  15  17     1.447400000000E-01  4.652700000000E-01  3.525400000000E-01
  16  30     0.000000000000E+00  5.000000000000E-01  7.500000000000E-01
  17  30     0.000000000000E+00  0.000000000000E+00  5.000000000000E-01

 *******************************************************************************

 << INFORMATION >>: FROM NOW ON, ALL COORDINATES REFER TO THE PRIMITIVE CELL

 *******************************************************************************

 LATTICE PARAMETERS  (ANGSTROMS AND DEGREES) - PRIMITIVE CELL
       A          B          C        ALPHA      BETA     GAMMA        VOLUME
    9.84706    9.84706    9.84706   114.70260 114.70260  99.44979    718.590158

 COORDINATES OF THE EQUIVALENT ATOMS (FRACTIONAL UNITS)

 N. ATOM EQUIV AT. N.          X                  Y                  Z

   1   1   1    1 H     1.05190000000E-01  4.59550000000E-01 -1.66060000000E-01
   2   1   2    1 H    -3.74390000000E-01  2.71250000000E-01  1.66060000000E-01
   3   1   3    1 H    -4.59550000000E-01  3.74390000000E-01 -3.54360000000E-01
   4   1   4    1 H    -2.71250000000E-01 -1.05190000000E-01  3.54360000000E-01

   5   2   1    1 H     2.76150000000E-01 -9.70700000000E-02  3.34820000000E-01
   6   2   2    1 H    -4.31890000000E-01 -5.86700000000E-02 -3.34820000000E-01
   7   2   3    1 H     9.70700000000E-02  4.31890000000E-01  3.73220000000E-01
   8   2   4    1 H     5.86700000000E-02 -2.76150000000E-01 -3.73220000000E-01

   9   3   1    1 H    -1.44480000000E-01 -2.15910000000E-01 -1.24970000000E-01
  10   3   2    1 H    -9.09400000000E-02 -1.95100000000E-02  1.24970000000E-01
  11   3   3    1 H     2.15910000000E-01  9.09400000000E-02  7.14300000000E-02
  12   3   4    1 H     1.95100000000E-02  1.44480000000E-01 -7.14300000000E-02

  13   4   1    6 C     2.06980000000E-01 -3.24930000000E-01  9.85500000000E-02
  14   4   2    6 C    -4.23480000000E-01  1.08430000000E-01 -9.85500000000E-02
  15   4   3    6 C     3.24930000000E-01  4.23480000000E-01 -4.68090000000E-01
  16   4   4    6 C    -1.08430000000E-01 -2.06980000000E-01  4.68090000000E-01

  17   5   1    6 C     3.30090000000E-01 -3.62830000000E-01  2.05640000000E-01
  18   5   2    6 C     4.31530000000E-01  1.24450000000E-01 -2.05640000000E-01
  19   5   3    6 C     3.62830000000E-01 -4.31530000000E-01 -3.07080000000E-01
  20   5   4    6 C    -1.24450000000E-01 -3.30090000000E-01  3.07080000000E-01

  21   6   1    6 C     9.66800000000E-02 -4.28520000000E-01 -8.72200000000E-02
  22   6   2    6 C    -3.41300000000E-01  1.83900000000E-01  8.72200000000E-02
  23   6   3    6 C     4.28520000000E-01  3.41300000000E-01 -4.74800000000E-01
  24   6   4    6 C    -1.83900000000E-01 -9.66800000000E-02  4.74800000000E-01

  25   7   1    6 C    -4.32900000000E-02 -2.46070000000E-01 -6.15000000000E-02
  26   7   2    6 C    -1.84570000000E-01  1.82100000000E-02  6.15000000000E-02
  27   7   3    6 C     2.46070000000E-01  1.84570000000E-01  2.02780000000E-01
  28   7   4    6 C    -1.82100000000E-02  4.32900000000E-02 -2.02780000000E-01

  29   8   1    6 C     1.87920000000E-01 -1.83560000000E-01  1.92020000000E-01
  30   8   2    6 C    -3.75580000000E-01 -4.10000000000E-03 -1.92020000000E-01
  31   8   3    6 C     1.83560000000E-01  3.75580000000E-01  3.71480000000E-01
  32   8   4    6 C     4.10000000000E-03 -1.87920000000E-01 -3.71480000000E-01

  33   9   1    6 C    -2.20970000000E-01  1.35480000000E-01  1.64830000000E-01
  34   9   2    6 C    -2.93500000000E-02 -3.85800000000E-01 -1.64830000000E-01
  35   9   3    6 C    -1.35480000000E-01  2.93500000000E-02 -3.56450000000E-01
  36   9   4    6 C     3.85800000000E-01  2.20970000000E-01  3.56450000000E-01

  37  10   1    7 N     3.63560000000E-01 -3.25730000000E-01  3.68830000000E-01
  38  10   2    7 N     3.05440000000E-01 -5.27000000000E-03 -3.68830000000E-01
  39  10   3    7 N     3.25730000000E-01 -3.05440000000E-01 -3.10710000000E-01
  40  10   4    7 N     5.27000000000E-03 -3.63560000000E-01  3.10710000000E-01

  41  11   1    7 N     4.83490000000E-01 -3.76970000000E-01  4.34260000000E-01
  42  11   2    7 N     1.88770000000E-01  4.92300000000E-02 -4.34260000000E-01
  43  11   3    7 N     3.76970000000E-01 -1.88770000000E-01 -1.39540000000E-01
  44  11   4    7 N    -4.92300000000E-02 -4.83490000000E-01  1.39540000000E-01

  45  12   1    7 N     4.26220000000E-01 -4.36050000000E-01  1.70010000000E-01
  46  12   2    7 N     3.93940000000E-01  2.56210000000E-01 -1.70010000000E-01
  47  12   3    7 N     4.36050000000E-01 -3.93940000000E-01 -1.37730000000E-01
  48  12   4    7 N    -2.56210000000E-01 -4.26220000000E-01  1.37730000000E-01

  49  13   1    7 N    -4.79530000000E-01 -4.44070000000E-01  3.15160000000E-01
  50  13   2    7 N     2.40770000000E-01  2.05310000000E-01 -3.15160000000E-01
  51  13   3    7 N     4.44070000000E-01 -2.40770000000E-01 -3.54600000000E-02
  52  13   4    7 N    -2.05310000000E-01  4.79530000000E-01  3.54600000000E-02

  53  14   1    7 N     6.51700000000E-02 -1.45770000000E-01  1.14900000000E-01
  54  14   2    7 N    -2.60670000000E-01 -4.97300000000E-02 -1.14900000000E-01
  55  14   3    7 N     1.45770000000E-01  2.60670000000E-01  2.10940000000E-01
  56  14   4    7 N     4.97300000000E-02 -6.51700000000E-02 -2.10940000000E-01

  57  15   1   17 CL   -1.82190000000E-01  4.97280000000E-01 -3.89990000000E-01
  58  15   2   17 CL   -1.12730000000E-01  2.07800000000E-01  3.89990000000E-01
  59  15   3   17 CL   -4.97280000000E-01  1.12730000000E-01  3.20530000000E-01
  60  15   4   17 CL   -2.07800000000E-01  1.82190000000E-01 -3.20530000000E-01

  61  16   1   30 ZN    2.50000000000E-01 -2.50000000000E-01 -5.00000000000E-01

  62  17   1   30 ZN   -5.00000000000E-01 -5.00000000000E-01  0.00000000000E+00

 NUMBER OF SYMMETRY OPERATORS         :    4
 *******************************************************************************
 * GEOMETRY EDITING - INPUT COORDINATES ARE GIVEN IN ANGSTROM         
 *******************************************************************************

 GEOMETRY NOW FULLY CONSISTENT WITH THE GROUP

 GCALCO - MAX INDICES DIRECT LATTICE VECTOR    14    14    16
 NO.OF VECTORS CREATED 6999 STARS  485 RMAX   201.67655 BOHR

 GEOMETRY FOR WAVE FUNCTION - DIMENSIONALITY OF THE SYSTEM    3
 (NON PERIODIC DIRECTION: LATTICE PARAMETER FORMALLY SET TO 500)
 *******************************************************************************
 LATTICE PARAMETERS (ANGSTROMS AND DEGREES) - BOHR = 0.5291772083 ANGSTROM
 PRIMITIVE CELL - CENTRING CODE 6/0 VOLUME=   718.590158 - DENSITY  1.959 g/cm^3
         A              B              C           ALPHA      BETA       GAMMA 
     9.84705715     9.84705715     9.84705715   114.702603 114.702603  99.449794
 *******************************************************************************
 ATOMS IN THE ASYMMETRIC UNIT   17 - ATOMS IN THE UNIT CELL:   62
     ATOM                 X/A                 Y/B                 Z/C    
 *******************************************************************************
      1 T   1 H     1.051900000000E-01  4.595500000000E-01 -1.660600000000E-01
      2 F   1 H    -3.743900000000E-01  2.712500000000E-01  1.660600000000E-01
      3 F   1 H    -4.595500000000E-01  3.743900000000E-01 -3.543600000000E-01
      4 F   1 H    -2.712500000000E-01 -1.051900000000E-01  3.543600000000E-01
      5 T   1 H     2.761500000000E-01 -9.707000000000E-02  3.348200000000E-01
      6 F   1 H    -4.318900000000E-01 -5.867000000000E-02 -3.348200000000E-01
      7 F   1 H     9.707000000000E-02  4.318900000000E-01  3.732200000000E-01
      8 F   1 H     5.867000000000E-02 -2.761500000000E-01 -3.732200000000E-01
      9 T   1 H    -1.444800000000E-01 -2.159100000000E-01 -1.249700000000E-01
     10 F   1 H    -9.094000000000E-02 -1.951000000000E-02  1.249700000000E-01
     11 F   1 H     2.159100000000E-01  9.094000000000E-02  7.143000000000E-02
     12 F   1 H     1.951000000000E-02  1.444800000000E-01 -7.143000000000E-02
     13 T   6 C     2.069800000000E-01 -3.249300000000E-01  9.855000000000E-02
     14 F   6 C    -4.234800000000E-01  1.084300000000E-01 -9.855000000000E-02
     15 F   6 C     3.249300000000E-01  4.234800000000E-01 -4.680900000000E-01
     16 F   6 C    -1.084300000000E-01 -2.069800000000E-01  4.680900000000E-01
     17 T   6 C     3.300900000000E-01 -3.628300000000E-01  2.056400000000E-01
     18 F   6 C     4.315300000000E-01  1.244500000000E-01 -2.056400000000E-01
     19 F   6 C     3.628300000000E-01 -4.315300000000E-01 -3.070800000000E-01
     20 F   6 C    -1.244500000000E-01 -3.300900000000E-01  3.070800000000E-01
     21 T   6 C     9.668000000000E-02 -4.285200000000E-01 -8.722000000000E-02
     22 F   6 C    -3.413000000000E-01  1.839000000000E-01  8.722000000000E-02
     23 F   6 C     4.285200000000E-01  3.413000000000E-01 -4.748000000000E-01
     24 F   6 C    -1.839000000000E-01 -9.668000000000E-02  4.748000000000E-01
     25 T   6 C    -4.329000000000E-02 -2.460700000000E-01 -6.150000000000E-02
     26 F   6 C    -1.845700000000E-01  1.821000000000E-02  6.150000000000E-02
     27 F   6 C     2.460700000000E-01  1.845700000000E-01  2.027800000000E-01
     28 F   6 C    -1.821000000000E-02  4.329000000000E-02 -2.027800000000E-01
     29 T   6 C     1.879200000000E-01 -1.835600000000E-01  1.920200000000E-01
     30 F   6 C    -3.755800000000E-01 -4.100000000000E-03 -1.920200000000E-01
     31 F   6 C     1.835600000000E-01  3.755800000000E-01  3.714800000000E-01
     32 F   6 C     4.100000000000E-03 -1.879200000000E-01 -3.714800000000E-01
     33 T   6 C    -2.209700000000E-01  1.354800000000E-01  1.648300000000E-01
     34 F   6 C    -2.935000000000E-02 -3.858000000000E-01 -1.648300000000E-01
     35 F   6 C    -1.354800000000E-01  2.935000000000E-02 -3.564500000000E-01
     36 F   6 C     3.858000000000E-01  2.209700000000E-01  3.564500000000E-01
     37 T   7 N     3.635600000000E-01 -3.257300000000E-01  3.688300000000E-01
     38 F   7 N     3.054400000000E-01 -5.270000000000E-03 -3.688300000000E-01
     39 F   7 N     3.257300000000E-01 -3.054400000000E-01 -3.107100000000E-01
     40 F   7 N     5.270000000000E-03 -3.635600000000E-01  3.107100000000E-01
     41 T   7 N     4.834900000000E-01 -3.769700000000E-01  4.342600000000E-01
     42 F   7 N     1.887700000000E-01  4.923000000000E-02 -4.342600000000E-01
     43 F   7 N     3.769700000000E-01 -1.887700000000E-01 -1.395400000000E-01
     44 F   7 N    -4.923000000000E-02 -4.834900000000E-01  1.395400000000E-01
     45 T   7 N     4.262200000000E-01 -4.360500000000E-01  1.700100000000E-01
     46 F   7 N     3.939400000000E-01  2.562100000000E-01 -1.700100000000E-01
     47 F   7 N     4.360500000000E-01 -3.939400000000E-01 -1.377300000000E-01
     48 F   7 N    -2.562100000000E-01 -4.262200000000E-01  1.377300000000E-01
     49 T   7 N    -4.795300000000E-01 -4.440700000000E-01  3.151600000000E-01
     50 F   7 N     2.407700000000E-01  2.053100000000E-01 -3.151600000000E-01
     51 F   7 N     4.440700000000E-01 -2.407700000000E-01 -3.546000000000E-02
     52 F   7 N    -2.053100000000E-01  4.795300000000E-01  3.546000000000E-02
     53 T   7 N     6.517000000000E-02 -1.457700000000E-01  1.149000000000E-01
     54 F   7 N    -2.606700000000E-01 -4.973000000000E-02 -1.149000000000E-01
     55 F   7 N     1.457700000000E-01  2.606700000000E-01  2.109400000000E-01
     56 F   7 N     4.973000000000E-02 -6.517000000000E-02 -2.109400000000E-01
     57 T  17 CL   -1.821900000000E-01  4.972800000000E-01 -3.899900000000E-01
     58 F  17 CL   -1.127300000000E-01  2.078000000000E-01  3.899900000000E-01
     59 F  17 CL   -4.972800000000E-01  1.127300000000E-01  3.205300000000E-01
     60 F  17 CL   -2.078000000000E-01  1.821900000000E-01 -3.205300000000E-01
     61 T  30 ZN    2.500000000000E-01 -2.500000000000E-01 -5.000000000000E-01
     62 T  30 ZN   -5.000000000000E-01 -5.000000000000E-01  0.000000000000E+00

 TRANSFORMATION MATRIX PRIMITIVE-CRYSTALLOGRAPHIC CELL
  0.0000  1.0000  1.0000  1.0000  0.0000  1.0000  1.0000  1.0000  0.0000

 *******************************************************************************
 CRYSTALLOGRAPHIC CELL (VOLUME=       1437.18031501)
         A              B              C           ALPHA      BETA       GAMMA 
    10.62471134    10.62471134    12.73142397    90.000000  90.000000  90.000000

 COORDINATES IN THE CRYSTALLOGRAPHIC CELL
     ATOM                 X/A                 Y/B                 Z/C    
 *******************************************************************************
      1 T   1 H    -4.058500000000E-01  2.397900000000E-01 -1.346000000000E-01
      2 F   1 H     4.058500000000E-01 -2.397900000000E-01 -1.346000000000E-01
      3 F   1 H     2.397900000000E-01  4.058500000000E-01  1.346000000000E-01
      4 F   1 H    -2.397900000000E-01 -4.058500000000E-01  1.346000000000E-01
      5 T   1 H    -1.920000000000E-02  3.540200000000E-01 -7.787000000000E-02
      6 F   1 H     1.920000000000E-02 -3.540200000000E-01 -7.787000000000E-02
      7 F   1 H     3.540200000000E-01  1.920000000000E-02  7.787000000000E-02
      8 F   1 H    -3.540200000000E-01 -1.920000000000E-02  7.787000000000E-02
      9 T   1 H    -9.820000000000E-02 -2.677000000000E-02 -1.177100000000E-01
     10 F   1 H     9.820000000000E-02  2.677000000000E-02 -1.177100000000E-01
     11 F   1 H    -2.677000000000E-02  9.820000000000E-02  1.177100000000E-01
     12 F   1 H     2.677000000000E-02 -9.820000000000E-02  1.177100000000E-01
     13 T   6 C    -2.166800000000E-01  3.152300000000E-01 -1.082500000000E-01
     14 F   6 C     2.166800000000E-01 -3.152300000000E-01 -1.082500000000E-01
     15 F   6 C     3.152300000000E-01  2.166800000000E-01  1.082500000000E-01
     16 F   6 C    -3.152300000000E-01 -2.166800000000E-01  1.082500000000E-01
     17 T   6 C     2.563600000000E-01 -5.072000000000E-02  3.808100000000E-01
     18 F   6 C    -2.563600000000E-01  5.072000000000E-02  3.808100000000E-01
     19 F   6 C    -5.072000000000E-02 -2.563600000000E-01 -3.808100000000E-01
     20 F   6 C     5.072000000000E-02  2.563600000000E-01 -3.808100000000E-01
     21 T   6 C    -3.062100000000E-01  2.189900000000E-01 -1.223100000000E-01
     22 F   6 C     3.062100000000E-01 -2.189900000000E-01 -1.223100000000E-01
     23 F   6 C     2.189900000000E-01  3.062100000000E-01  1.223100000000E-01
     24 F   6 C    -2.189900000000E-01 -3.062100000000E-01  1.223100000000E-01
     25 T   6 C    -1.321400000000E-01  7.064000000000E-02 -1.139300000000E-01
     26 F   6 C     1.321400000000E-01 -7.064000000000E-02 -1.139300000000E-01
     27 F   6 C     7.064000000000E-02  1.321400000000E-01  1.139300000000E-01
     28 F   6 C    -7.064000000000E-02 -1.321400000000E-01  1.139300000000E-01
     29 T   6 C    -8.973000000000E-02  2.817500000000E-01 -9.383000000000E-02
     30 F   6 C     8.973000000000E-02 -2.817500000000E-01 -9.383000000000E-02
     31 F   6 C     2.817500000000E-01  8.973000000000E-02  9.383000000000E-02
     32 F   6 C    -2.817500000000E-01 -8.973000000000E-02  9.383000000000E-02
     33 T   6 C     2.606400000000E-01 -9.581000000000E-02 -1.251600000000E-01
     34 F   6 C    -2.606400000000E-01  9.581000000000E-02 -1.251600000000E-01
     35 F   6 C    -9.581000000000E-02 -2.606400000000E-01  1.251600000000E-01
     36 F   6 C     9.581000000000E-02  2.606400000000E-01  1.251600000000E-01
     37 T   7 N     3.397700000000E-01  2.906000000000E-02  3.345000000000E-01
     38 F   7 N    -3.397700000000E-01 -2.906000000000E-02  3.345000000000E-01
     39 F   7 N     2.906000000000E-02 -3.397700000000E-01 -3.345000000000E-01
     40 F   7 N    -2.906000000000E-02  3.397700000000E-01 -3.345000000000E-01
     41 T   7 N    -2.131000000000E-01 -3.526400000000E-01 -1.638700000000E-01
     42 F   7 N     2.131000000000E-01  3.526400000000E-01 -1.638700000000E-01
     43 F   7 N    -3.526400000000E-01  2.131000000000E-01  1.638700000000E-01
     44 F   7 N     3.526400000000E-01 -2.131000000000E-01  1.638700000000E-01
     45 T   7 N     1.538700000000E-01  1.614000000000E-02  4.100800000000E-01
     46 F   7 N    -1.538700000000E-01 -1.614000000000E-02  4.100800000000E-01
     47 F   7 N     1.614000000000E-02 -1.538700000000E-01 -4.100800000000E-01
     48 F   7 N    -1.614000000000E-02  1.538700000000E-01 -4.100800000000E-01
     49 T   7 N    -3.246900000000E-01 -3.601500000000E-01 -1.193800000000E-01
     50 F   7 N     3.246900000000E-01  3.601500000000E-01 -1.193800000000E-01
     51 F   7 N    -3.601500000000E-01  3.246900000000E-01  1.193800000000E-01
     52 F   7 N     3.601500000000E-01 -3.246900000000E-01  1.193800000000E-01
     53 T   7 N    -4.802000000000E-02  1.629200000000E-01 -9.775000000000E-02
     54 F   7 N     4.802000000000E-02 -1.629200000000E-01 -9.775000000000E-02
     55 F   7 N     1.629200000000E-01  4.802000000000E-02  9.775000000000E-02
     56 F   7 N    -1.629200000000E-01 -4.802000000000E-02  9.775000000000E-02
     57 T  17 CL   -3.552600000000E-01 -3.473000000000E-02 -1.474600000000E-01
     58 F  17 CL    3.552600000000E-01  3.473000000000E-02 -1.474600000000E-01
     59 F  17 CL   -3.473000000000E-02  3.552600000000E-01  1.474600000000E-01
     60 F  17 CL    3.473000000000E-02 -3.552600000000E-01  1.474600000000E-01
     61 T  30 ZN   -5.000000000000E-01  0.000000000000E+00  2.500000000000E-01
     62 T  30 ZN    0.000000000000E+00  0.000000000000E+00 -5.000000000000E-01

 T = ATOM BELONGING TO THE ASYMMETRIC UNIT

 ****    4 SYMMOPS - TRANSLATORS IN FRACTIONAL UNITS
 **** MATRICES AND TRANSLATORS IN THE CRYSTALLOGRAPHIC REFERENCE FRAME
   V INV                    ROTATION MATRICES                   TRANSLATORS
   1   1  1.00  0.00  0.00  0.00  1.00  0.00  0.00  0.00  1.00  0.00  0.00  0.00
   2   2  0.00  1.00 -1.00  1.00  0.00 -1.00  0.00  0.00 -1.00  0.00  0.00  0.00
   3   4  0.00 -1.00  0.00  0.00 -1.00  1.00  1.00 -1.00  0.00  0.00  0.00  0.00
   4   3 -1.00  0.00  1.00 -1.00  0.00  0.00 -1.00  1.00  0.00  0.00  0.00  0.00

 DIRECT LATTICE VECTORS CARTESIAN COMPONENTS (ANGSTROM)
          X                    Y                    Z
  -0.531235567025E+01   0.531235567025E+01   0.636571198310E+01
   0.531235567025E+01  -0.531235567025E+01   0.636571198310E+01
   0.531235567025E+01   0.531235567025E+01  -0.636571198310E+01


 CARTESIAN COORDINATES - PRIMITIVE CELL
 *******************************************************************************
 *      ATOM          X(ANGSTROM)         Y(ANGSTROM)         Z(ANGSTROM)
 *******************************************************************************
    1     1 H    -4.312039097542E+00  2.547699532338E+00 -1.713649665851E+00
    2     1 H     4.312039097542E+00 -2.547699532338E+00 -1.713649665851E+00
    3     1 H     2.547699532338E+00  4.312039097542E+00  1.713649665851E+00
    4     1 H    -2.547699532338E+00 -4.312039097542E+00  1.713649665851E+00
    5     1 H    -2.039944577376E-01  3.761360308764E+00 -9.913959842480E-01
    6     1 H     2.039944577376E-01 -3.761360308764E+00 -9.913959842480E-01
    7     1 H     3.761360308764E+00  2.039944577376E-01  9.913959842480E-01
    8     1 H    -3.761360308764E+00 -2.039944577376E-01  9.913959842480E-01
    9     1 H    -1.043346653637E+00 -2.844235225852E-01 -1.498615915061E+00
   10     1 H     1.043346653637E+00  2.844235225852E-01 -1.498615915061E+00
   11     1 H    -2.844235225852E-01  1.043346653637E+00  1.498615915061E+00
   12     1 H     2.844235225852E-01 -1.043346653637E+00  1.498615915061E+00
   13     6 C    -2.302162453260E+00  3.349227755866E+00 -1.378176644341E+00
   14     6 C     2.302162453260E+00 -3.349227755866E+00 -1.378176644341E+00
   15     6 C     3.349227755866E+00  2.302162453260E+00  1.378176644341E+00
   16     6 C    -3.349227755866E+00 -2.302162453260E+00  1.378176644341E+00
   17     6 C     2.723750999251E+00 -5.388853591902E-01  4.848253560569E+00
   18     6 C    -2.723750999251E+00  5.388853591902E-01  4.848253560569E+00
   19     6 C    -5.388853591902E-01 -2.723750999251E+00 -4.848253560569E+00
   20     6 C     5.388853591902E-01  2.723750999251E+00 -4.848253560569E+00
   21     6 C    -3.253392859575E+00  2.326705536456E+00 -1.557180465306E+00
   22     6 C     3.253392859575E+00 -2.326705536456E+00 -1.557180465306E+00
   23     6 C     2.326705536456E+00  3.253392859575E+00  1.557180465306E+00
   24     6 C    -2.326705536456E+00 -3.253392859575E+00  1.557180465306E+00
   25     6 C    -1.403949356534E+00  7.505296090929E-01 -1.450491132469E+00
   26     6 C     1.403949356534E+00 -7.505296090929E-01 -1.450491132469E+00
   27     6 C     7.505296090929E-01  1.403949356534E+00  1.450491132469E+00
   28     6 C    -7.505296090929E-01 -1.403949356534E+00  1.450491132469E+00
   29     6 C    -9.533553485831E-01  2.993512420186E+00 -1.194589510749E+00
   30     6 C     9.533553485831E-01 -2.993512420186E+00 -1.194589510749E+00
   31     6 C     2.993512420186E+00  9.533553485831E-01  1.194589510749E+00
   32     6 C    -2.993512420186E+00 -9.533553485831E-01  1.194589510749E+00
   33     6 C     2.769224763788E+00 -1.017953593533E+00 -1.593465023610E+00
   34     6 C    -2.769224763788E+00  1.017953593533E+00 -1.593465023610E+00
   35     6 C    -1.017953593533E+00 -2.769224763788E+00  1.593465023610E+00
   36     6 C     1.017953593533E+00  2.769224763788E+00  1.593465023610E+00
   37     7 N     3.609958172162E+00  3.087541115549E-01  4.258661316694E+00
   38     7 N    -3.609958172162E+00 -3.087541115549E-01  4.258661316694E+00
   39     7 N     3.087541115549E-01 -3.609958172162E+00 -4.258661316694E+00
   40     7 N    -3.087541115549E-01  3.609958172162E+00 -4.258661316694E+00
   41     7 N    -2.264125986661E+00 -3.746698207114E+00 -2.086298445341E+00
   42     7 N     2.264125986661E+00  3.746698207114E+00 -2.086298445341E+00
   43     7 N    -3.746698207114E+00  2.264125986661E+00  2.086298445341E+00
   44     7 N     3.746698207114E+00 -2.264125986661E+00  2.086298445341E+00
   45     7 N     1.634824333963E+00  1.714828410357E-01  5.220902340059E+00
   46     7 N    -1.634824333963E+00 -1.714828410357E-01  5.220902340059E+00
   47     7 N     1.714828410357E-01 -1.634824333963E+00 -5.220902340059E+00
   48     7 N    -1.714828410357E-01  1.634824333963E+00 -5.220902340059E+00
   49     7 N    -3.449737525147E+00 -3.826489789281E+00 -1.519877393085E+00
   50     7 N     3.449737525147E+00  3.826489789281E+00 -1.519877393085E+00
   51     7 N    -3.826489789281E+00  3.449737525147E+00  1.519877393085E+00
   52     7 N     3.826489789281E+00 -3.449737525147E+00  1.519877393085E+00
   53     7 N    -5.101986385708E-01  1.730977971594E+00 -1.244496692696E+00
   54     7 N     5.101986385708E-01 -1.730977971594E+00 -1.244496692696E+00
   55     7 N     1.730977971594E+00  5.101986385708E-01  1.244496692696E+00
   56     7 N    -1.730977971594E+00 -5.101986385708E-01  1.244496692696E+00
   57    17 CL   -3.774534950826E+00 -3.689962248556E-01 -1.877375778056E+00
   58    17 CL    3.774534950826E+00  3.689962248556E-01 -1.877375778056E+00
   59    17 CL   -3.689962248556E-01  3.774534950826E+00  1.877375778056E+00
   60    17 CL    3.689962248556E-01 -3.774534950826E+00  1.877375778056E+00
   61    30 ZN    5.312355670250E+00  0.000000000000E+00 -9.548567974650E+00
   62    30 ZN    0.000000000000E+00  0.000000000000E+00  6.365711983100E+00

 *******************************************************************************
 STARTING BASIS SET HANDLING 
 *******************************************************************************

 Loading internal basis set: POB-DZVPP           

 Please cite in your publication:
 Peintinger, M. F., Oliveira, D. V. and Bredow, T. (2013), Generally applicable 
 solid-state Gaussian basis sets, in preparation                                
                                                                                
                    

 *******************************************************************************
 LOCAL ATOMIC FUNCTIONS BASIS SET
 *******************************************************************************
   ATOM   X(AU)   Y(AU)   Z(AU)  N. TYPE  EXPONENT  S COEF   P COEF   D/F/G COEF
 *******************************************************************************
   1 H   -8.149   4.814  -3.238
                                  1 S  
                                         2.263E+01 1.441E-02 0.000E+00 0.000E+00
                                         3.236E+00 1.072E-01 0.000E+00 0.000E+00
                                         7.304E-01 3.846E-01 0.000E+00 0.000E+00
                                  2 S  
                                         1.417E-01 1.000E+00 0.000E+00 0.000E+00
                           3-     5 P  
                                         3.944E-01 0.000E+00 1.000E+00 0.000E+00
                           6-     8 P  
                                         1.006E-01 0.000E+00 1.000E+00 0.000E+00
   2 H    8.149  -4.814  -3.238
   3 H    4.814   8.149   3.238
   4 H   -4.814  -8.149   3.238
   5 H   -0.385   7.108  -1.873
   6 H    0.385  -7.108  -1.873
   7 H    7.108   0.385   1.873
   8 H   -7.108  -0.385   1.873
   9 H   -1.972  -0.537  -2.832
  10 H    1.972   0.537  -2.832
  11 H   -0.537   1.972   2.832
  12 H    0.537  -1.972   2.832
  13 C   -4.350   6.329  -2.604
                                 97 S  
                                         1.238E+03 5.457E-03 0.000E+00 0.000E+00
                                         1.863E+02 4.064E-02 0.000E+00 0.000E+00
                                         4.225E+01 1.803E-01 0.000E+00 0.000E+00
                                         1.168E+01 4.632E-01 0.000E+00 0.000E+00
                                         3.593E+00 4.409E-01 0.000E+00 0.000E+00
                                 98 S  
                                         5.281E+00 1.000E+00 0.000E+00 0.000E+00
                                 99 S  
                                         4.447E-01 1.000E+00 0.000E+00 0.000E+00
                         100-   102 P  
                                         9.468E+00 0.000E+00 3.839E-02 0.000E+00
                                         2.010E+00 0.000E+00 2.112E-01 0.000E+00
                                         5.477E-01 0.000E+00 5.133E-01 0.000E+00
                         103-   105 P  
                                         1.604E-01 0.000E+00 1.000E+00 0.000E+00
                         106-   110 D  
                                         6.070E-01 0.000E+00 0.000E+00 1.000E+00
                         111-   115 D  
                                         2.939E-01 0.000E+00 0.000E+00 1.000E+00
  14 C    4.350  -6.329  -2.604
  15 C    6.329   4.350   2.604
  16 C   -6.329  -4.350   2.604
  17 C    5.147  -1.018   9.162
  18 C   -5.147   1.018   9.162
  19 C   -1.018  -5.147  -9.162
  20 C    1.018   5.147  -9.162
  21 C   -6.148   4.397  -2.943
  22 C    6.148  -4.397  -2.943
  23 C    4.397   6.148   2.943
  24 C   -4.397  -6.148   2.943
  25 C   -2.653   1.418  -2.741
  26 C    2.653  -1.418  -2.741
  27 C    1.418   2.653   2.741
  28 C   -1.418  -2.653   2.741
  29 C   -1.802   5.657  -2.257
  30 C    1.802  -5.657  -2.257
  31 C    5.657   1.802   2.257
  32 C   -5.657  -1.802   2.257
  33 C    5.233  -1.924  -3.011
  34 C   -5.233   1.924  -3.011
  35 C   -1.924  -5.233   3.011
  36 C    1.924   5.233   3.011
  37 N    6.822   0.583   8.048
                                553 S  
                                         1.713E+03-5.393E-03 0.000E+00 0.000E+00
                                         2.576E+02-4.022E-02 0.000E+00 0.000E+00
                                         5.846E+01-1.793E-01 0.000E+00 0.000E+00
                                         1.620E+01-4.638E-01 0.000E+00 0.000E+00
                                         5.005E+00-4.417E-01 0.000E+00 0.000E+00
                                554 S  
                                         6.217E-01 1.000E+00 0.000E+00 0.000E+00
                                555 S  
                                         2.921E-01 1.000E+00 0.000E+00 0.000E+00
                         556-   558 P  
                                         1.357E+01 0.000E+00-4.007E-02 0.000E+00
                                         2.926E+00 0.000E+00-2.181E-01 0.000E+00
                                         7.993E-01 0.000E+00-5.129E-01 0.000E+00
                         559-   561 P  
                                         2.244E-01 0.000E+00 1.000E+00 0.000E+00
                         562-   566 D  
                                         3.118E-01 0.000E+00 0.000E+00 1.000E+00
  38 N   -6.822  -0.583   8.048
  39 N    0.583  -6.822  -8.048
  40 N   -0.583   6.822  -8.048
  41 N   -4.279  -7.080  -3.943
  42 N    4.279   7.080  -3.943
  43 N   -7.080   4.279   3.943
  44 N    7.080  -4.279   3.943
  45 N    3.089   0.324   9.866
  46 N   -3.089  -0.324   9.866
  47 N    0.324  -3.089  -9.866
  48 N   -0.324   3.089  -9.866
  49 N   -6.519  -7.231  -2.872
  50 N    6.519   7.231  -2.872
  51 N   -7.231   6.519   2.872
  52 N    7.231  -6.519   2.872
  53 N   -0.964   3.271  -2.352
  54 N    0.964  -3.271  -2.352
  55 N    3.271   0.964   2.352
  56 N   -3.271  -0.964   2.352
  57 CL  -7.133  -0.697  -3.548
                                833 S  
                                         1.045E+04 1.971E-03 0.000E+00 0.000E+00
                                         1.572E+03 1.475E-02 0.000E+00 0.000E+00
                                         3.571E+02 6.668E-02 0.000E+00 0.000E+00
                                         1.003E+02 1.723E-01 0.000E+00 0.000E+00
                                         3.081E+01 1.588E-01 0.000E+00 0.000E+00
                                834 S  
                                         5.192E+01-1.001E-01 0.000E+00 0.000E+00
                                         5.705E+00 6.084E-01 0.000E+00 0.000E+00
                                         2.351E+00 5.435E-01 0.000E+00 0.000E+00
                                835 S  
                                         4.886E-01 1.000E+00 0.000E+00 0.000E+00
                                836 S  
                                         1.984E-01 1.000E+00 0.000E+00 0.000E+00
                         837-   839 P  
                                         3.077E+02 0.000E+00-8.780E-03 0.000E+00
                                         7.210E+01 0.000E+00-6.356E-02 0.000E+00
                                         2.253E+01 0.000E+00-2.402E-01 0.000E+00
                                         7.899E+00 0.000E+00-4.780E-01 0.000E+00
                                         2.877E+00 0.000E+00-3.852E-01 0.000E+00
                         840-   842 P  
                                         9.483E-01 0.000E+00 1.000E+00 0.000E+00
                         843-   845 P  
                                         2.521E-01 0.000E+00 1.000E+00 0.000E+00
                         846-   850 D  
                                         9.722E-01 0.000E+00 0.000E+00 1.000E+00
                         851-   855 D  
                                         2.060E-01 0.000E+00 0.000E+00 1.000E+00
  58 CL   7.133   0.697  -3.548
  59 CL  -0.697   7.133   3.548
  60 CL   0.697  -7.133   3.548
  61 ZN  10.039   0.000 -18.044
                                925 S  
                                         8.200E+04 1.421E-03 0.000E+00 0.000E+00
                                         1.231E+04 1.089E-02 0.000E+00 0.000E+00
                                         2.801E+03 5.406E-02 0.000E+00 0.000E+00
                                         7.910E+02 1.885E-01 0.000E+00 0.000E+00
                                         2.576E+02 3.835E-01 0.000E+00 0.000E+00
                                         8.881E+01 2.972E-01 0.000E+00 0.000E+00
                                926 S  
                                         1.719E+02-1.105E-01 0.000E+00 0.000E+00
                                         2.030E+01 6.461E-01 0.000E+00 0.000E+00
                                         8.346E+00 4.422E-01 0.000E+00 0.000E+00
                                927 S  
                                         1.485E+01-2.271E-01 0.000E+00 0.000E+00
                                         2.450E+00 7.243E-01 0.000E+00 0.000E+00
                                         9.985E-01 4.484E-01 0.000E+00 0.000E+00
                                928 S  
                                         1.493E+00 1.000E+00 0.000E+00 0.000E+00
                                929 S  
                                         1.830E-01 1.000E+00 0.000E+00 0.000E+00
                         930-   932 P  
                                         1.072E+03 0.000E+00 9.277E-03 0.000E+00
                                         2.527E+02 0.000E+00 6.954E-02 0.000E+00
                                         8.010E+01 0.000E+00 2.716E-01 0.000E+00
                                         2.890E+01 0.000E+00 5.340E-01 0.000E+00
                                         1.077E+01 0.000E+00 3.450E-01 0.000E+00
                         933-   935 P  
                                         5.645E+00 0.000E+00 3.413E-01 0.000E+00
                                         2.168E+00 0.000E+00 5.639E-01 0.000E+00
                                         8.054E-01 0.000E+00 2.368E-01 0.000E+00
                         936-   938 P  
                                         2.721E-01 0.000E+00 1.000E+00 0.000E+00
                         939-   943 D  
                                         5.609E+01 0.000E+00 0.000E+00 2.959E-02
                                         1.575E+01 0.000E+00 0.000E+00 1.587E-01
                                         5.312E+00 0.000E+00 0.000E+00 3.798E-01
                                         1.774E+00 0.000E+00 0.000E+00 4.690E-01
                         944-   948 D  
                                         5.073E-01 0.000E+00 0.000E+00 1.000E+00
                         949-   955 F  
                                         2.814E+00 0.000E+00 0.000E+00 1.000E+00
                         956-   962 F  
                                         1.300E+00 0.000E+00 0.000E+00 1.000E+00
  62 ZN   0.000   0.000  12.029

 *******************************************************************************
 FINISHED BASIS SET HANDLING 
 *******************************************************************************

 INFORMATION **** SET_MPP **** PCRYSTAL CALCULATION
 INFORMATION **** READM2 **** NEW DEFAULT: FOCK/KS MATRIX MIXING SET TO 30 %
 INFORMATION **** READM2 **** NEW DEFAULT: FULL DIRECT SCF MODE
 INFORMATION **** READM2 **** NEW DEFAULT: COULOMB BIPOLAR BUFFER SET TO 32 Mb
 INFORMATION **** READM2 **** NEW DEFAULT: EXCHANGE BIPOLAR BUFFER SET TO 32 Mb

 *******************************************************************************
 NEW DEFAULT: DFT INTEGRATION GRID INCREASED TO XLGRID
 NEW DEFAULT: DIIS ACCELERATOR ACTIVE
 USE KEYWORD NODIIS TO TURN IT OFF
 *******************************************************************************

 INFORMATION **** DFTD3_INPUT **** PERFORM DISPERSION CORRECTION DFT-D3(BJ) IN THE BECKE-JOHNSON DAMPING SCHEME

 PLEASE CITE:
 (1) DFT-D3 Reference
  S. Grimme, J. Antony, S. Ehrlich, and H. Krieg, J. Chem. Phys. 132 (2010), 154104
 (2) BJ-Damping Reference
  S. Grimme, S. Ehrlich, and L. Goerigk, J. Comput. Chem. 32 (2011), 1456-1465
 (3) General DFT-D Review
  S. Grimme, A. Hansen, J. G. Brandenburg, and C. Bannwarth,
  Chem. Rev. 116 (2016), 5105-5154

 INFORMATION **** TOLINTEG **** COULOMB AND EXCHANGE SERIES TOLERANCES MODIFIED
 INFORMATION **** BIPOSIZE **** COULOMB BIPOLAR BUFFER SET TO   100000000
 INFORMATION **** MAXCYCLE **** MAX NUMBER OF SCF CYCLES SET TO          50
 *******************************************************************************
 N. OF ATOMS PER CELL        62  COULOMB OVERLAP TOL         (T1) 10**  -12
 NUMBER OF SHELLS           396  COULOMB PENETRATION TOL     (T2) 10**  -12
 NUMBER OF AO              1000  EXCHANGE OVERLAP TOL        (T3) 10**   20
 N. OF ELECTRONS PER CELL   424  EXCHANGE PSEUDO OVP (F(G))  (T4) 10**   20
 CORE ELECTRONS PER CELL    164  EXCHANGE PSEUDO OVP (P(G))  (T5) 10**   20
 N. OF SYMMETRY OPERATORS     4  POLE ORDER IN MONO ZONE                  4
 *******************************************************************************
 TYPE OF CALCULATION :  RESTRICTED CLOSED SHELL
 KOHN-SHAM HAMILTONIAN

 (EXCHANGE)[CORRELATION] FUNCTIONAL:(PERDEW-BURKE-ERNZERHOF)[PERDEW-BURKE-ERNZERHOF]


 CAPPA:IS1  3;IS2  3;IS3  3; K PTS MONK NET   6; SYMMOPS:K SPACE   8;G SPACE   4

 *******************************************************************************
 MAX NUMBER OF SCF CYCLES      50  CONVERGENCE ON DELTAP        10**-16
 WEIGHT OF F(I) IN F(I+1)      30% CONVERGENCE ON ENERGY        10**- 6
 SHRINK. FACT.(MONKH.)    3  3  3  NUMBER OF K POINTS IN THE IBZ      6
 SHRINKING FACTOR(GILAT NET)    3  NUMBER OF K POINTS(GILAT NET)      6
 *******************************************************************************
 *** K POINTS COORDINATES (OBLIQUE COORDINATES IN UNITS OF IS =  3)
   1-R(  0  0  0)   2-C(  1  0  0)   3-C(  1  1  0)   4-C(  2  1  0)
   5-C(  2  1  1)   6-C(  2  2  1)

 DIRECT LATTICE VECTORS COMPON. (A.U.)     RECIP. LATTICE VECTORS COMPON. (A.U.) 
        X            Y            Z              X            Y            Z
  -10.0388973   10.0388973   12.0294523      0.0000000    0.3129420    0.2611584
   10.0388973  -10.0388973   12.0294523      0.3129420    0.0000000    0.2611584
   10.0388973   10.0388973  -12.0294523      0.3129420    0.3129420    0.0000000

 DISK SPACE FOR EIGENVECTORS (FTN 10)    11000000 REALS

 SYMMETRY ADAPTION OF THE BLOCH FUNCTIONS ENABLED
 TTTTTTTTTTTTTTTTTTTTTTTTTTTTTT gordsh1     TELAPSE        8.54 TCPU        0.06

 MATRIX SIZE: P(G) 1869048, F(G)  935288, P(G) IRR  236391, F(G) IRR  236391
 MAX G-VECTOR INDEX FOR 1- AND 2-ELECTRON INTEGRALS  59

 TTTTTTTTTTTTTTTTTTTTTTTTTTTTTT INPUT       TELAPSE       10.08 TCPU        1.60

 NEIGHBORS OF THE NON-EQUIVALENT ATOMS

 N = NUMBER OF NEIGHBORS AT DISTANCE R
    ATOM  N     R/ANG      R/AU   NEIGHBORS (ATOM LABELS AND CELL INDICES)
   1 H    1     1.0927     2.0650   21 C    0 0 0
   1 H    1     2.1760     4.1120   34 C    0 0 0
   1 H    1     2.1897     4.1379   13 C    0 0 0
   1 H    1     2.8218     5.3325   17 C    0-1 0
   1 H    1     2.9703     5.6131   57 CL   0 0 0
   1 H    1     3.0195     5.7060   60 CL   0-1 0

   5 H    1     1.0920     2.0635   29 C    0 0 0
   5 H    1     2.0689     3.9096   53 N    0 0 0
   5 H    1     2.1730     4.1063   13 C    0 0 0
   5 H    1     2.5342     4.7889   38 N    0 0 1
   5 H    1     2.6360     4.9813   37 N    0-1 0
   5 H    1     2.6434     4.9953   17 C    0-1 0

   9 H    1     1.0970     2.0731   25 C    0 0 0
   9 H    1     2.1002     3.9687   53 N    0 0 0
   9 H    1     2.1379     4.0400   54 N    0 0 0
   9 H    1     2.1628     4.0872   10 H    0 0 0
   9 H    1     2.1642     4.0898   34 C    0 0 0
   9 H    1     2.4918     4.7087   26 C    0 0 0

  13 C    1     1.4070     2.6588   29 C    0 0 0
  13 C    1     1.4080     2.6607   21 C    0 0 0
  13 C    1     1.4594     2.7579   17 C    0-1 0
  13 C    1     2.1730     4.1063    5 H    0 0 0
  13 C    1     2.1897     4.1379    1 H    0 0 0
  13 C    1     2.3873     4.5114   34 C    0 0 0

  17 C    1     1.3525     2.5559   45 N    0 0 0
  17 C    1     1.3607     2.5713   37 N    0 0 0
  17 C    1     1.4594     2.7579   13 C    0 1 0
  17 C    1     2.2003     4.1579   49 N    1 1 1
  17 C    1     2.2041     4.1651   41 N    1 1 1
  17 C    1     2.4386     4.6082   29 C    0 1 0

  21 C    1     1.0927     2.0650    1 H    0 0 0
  21 C    1     1.3959     2.6379   34 C    0 0 0
  21 C    1     1.4080     2.6607   13 C    0 0 0
  21 C    1     2.4220     4.5770   29 C    0 0 0
  21 C    1     2.4323     4.5964   25 C    0 0 0
  21 C    1     2.5358     4.7919   17 C    0-1 0

  25 C    1     1.0970     2.0731    9 H    0 0 0
  25 C    1     1.3426     2.5371   53 N    0 0 0
  25 C    1     1.3985     2.6429   34 C    0 0 0
  25 C    1     2.3021     4.3503   29 C    0 0 0
  25 C    1     2.4323     4.5964   21 C    0 0 0
  25 C    1     2.4918     4.7087   10 H    0 0 0

  29 C    1     1.0920     2.0635    5 H    0 0 0
  29 C    1     1.3390     2.5303   53 N    0 0 0
  29 C    1     1.4070     2.6588   13 C    0 0 0
  29 C    1     2.3021     4.3503   25 C    0 0 0
  29 C    1     2.4220     4.5770   21 C    0 0 0
  29 C    1     2.4386     4.6082   17 C    0-1 0

  33 C    1     1.3959     2.6379   22 C    0 0 0
  33 C    1     1.3985     2.6429   26 C    0 0 0
  33 C    1     1.7363     3.2812   58 CL   0 0 0
  33 C    1     2.1642     4.0898   10 H    0 0 0
  33 C    1     2.1760     4.1120    2 H    0 0 0
  33 C    1     2.3873     4.5114   14 C    0 0 0

  37 N    1     1.3607     2.5713   17 C    0 0 0
  37 N    1     1.3769     2.6019   41 N    1 1 1
  37 N    1     2.0374     3.8501   61 ZN   1 1 0
  37 N    1     2.1871     4.1331   49 N    1 1 1
  37 N    1     2.2013     4.1599   45 N    0 0 0
  37 N    1     2.4602     4.6490   13 C    0 1 0

  41 N    1     1.3164     2.4876   49 N    0 0 0
  41 N    1     1.3769     2.6019   37 N   -1-1-1
  41 N    1     2.1972     4.1522   45 N   -1-1-1
  41 N    1     2.2041     4.1651   17 C   -1-1-1
  41 N    1     2.7001     5.1025    6 H    0 0 0
  41 N    1     2.9631     5.5995   61 ZN   0 0-1

  45 N    1     1.3525     2.5559   17 C    0 0 0
  45 N    1     1.3857     2.6186   49 N    1 1 1
  45 N    1     2.0032     3.7854   62 ZN   0 0 0
  45 N    1     2.1972     4.1522   41 N    1 1 1
  45 N    1     2.2013     4.1599   37 N    0 0 0
  45 N    1     2.5500     4.8189   13 C    0 1 0

  49 N    1     1.3164     2.4876   41 N    0 0 0
  49 N    1     1.3857     2.6186   45 N   -1-1-1
  49 N    1     2.1871     4.1331   37 N   -1-1-1
  49 N    1     2.2003     4.1579   17 C   -1-1-1
  49 N    1     2.8262     5.3407   62 ZN  -1-1-1
  49 N    1     3.1415     5.9366    2 H    0-1-1

  53 N    1     1.3390     2.5303   29 C    0 0 0
  53 N    1     1.3426     2.5371   25 C    0 0 0
  53 N    1     2.0689     3.9096    5 H    0 0 0
  53 N    1     2.1002     3.9687    9 H    0 0 0
  53 N    1     2.1379     4.0400   10 H    0 0 0
  53 N    1     2.3944     4.5249   34 C    0 0 0

  57 CL   1     1.7363     3.2812   34 C    0 0 0
  57 CL   1     2.6562     5.0194   25 C    0 0 0
  57 CL   1     2.7586     5.2130    9 H    0 0 0
  57 CL   1     2.7642     5.2236   21 C    0 0 0
  57 CL   1     2.8735     5.4302    8 H    0 0 0
  57 CL   1     2.9703     5.6131    1 H    0 0 0

  61 ZN   4     2.0374     3.8501   37 N   -1-1 0   38 N   -1 0 1   39 N    0 0 1
                                    40 N   -1 0 0
  61 ZN   4     2.6925     5.0881    5 H   -1 0 0    6 H    0 0 1    7 H   -1-1 0
                                     8 H   -1 0 1
  61 ZN   4     2.9631     5.5995   41 N    0 0 1   42 N   -1 0 0   43 N   -1 0 1
                                    44 N   -1-1 0
  61 ZN   4     3.1249     5.9052   17 C   -1-1 0   18 C   -1 0 1   19 C    0 0 1
                                    20 C   -1 0 0
  61 ZN   4     3.1999     6.0469   29 C   -1 0 0   30 C    0 0 1   31 C   -1-1 0
                                    32 C   -1 0 1
  61 ZN   4     3.5229     6.6573   13 C   -1 0 0   14 C    0 0 1   15 C   -1-1 0
                                    16 C   -1 0 1

  62 ZN   4     2.0032     3.7854   45 N    0 0 0   46 N    0 0 0   47 N    1 1 0
                                    48 N    1 1 0
  62 ZN   4     2.8262     5.3407   49 N    1 1 1   50 N    0 0-1   51 N    0 1 0
                                    52 N    1 0 0
  62 ZN   4     3.1642     5.9794   17 C    0 0 0   18 C    0 0 0   19 C    1 1 0
                                    20 C    1 1 0
  62 ZN   4     3.4030     6.4308    1 H    0 1 0    2 H    1 0 0    3 H    0 0-1
                                     4 H    1 1 1
  62 ZN   4     3.8490     7.2735   13 C    0 1 0   14 C    1 0 0   15 C    0 0-1
                                    16 C    1 1 1
  62 ZN   4     3.9469     7.4586   21 C    0 1 0   22 C    1 0 0   23 C    0 0-1
                                    24 C    1 1 1


 SYMMETRY ALLOWED INTERNAL DEGREE(S) OF FREEDOM:  45
 TTTTTTTTTTTTTTTTTTTTTTTTTTTTTT SYMM        TELAPSE       10.47 TCPU        1.98
 TTTTTTTTTTTTTTTTTTTTTTTTTTTTTT INT_SCREEN  TELAPSE       10.48 TCPU        1.98
 INFORMATION **** EXCBUF **** EXCH. BIPO BUFFER: WORDS USED =           0

 DFT PARAMETERS

     ATOM       ELECTRONS   NET CHARGE   R(ANGSTROM)
   1   1  H       1.0000      0.0000     1.11000000
  13   6  C       6.0000      0.0000     0.77000000
  37   7  N       7.0000      0.0000     0.74000000
  57  17  CL     17.0000      0.0000     0.99000000
  61  30  ZN     30.0000      0.0000     1.37000000

 SIZE OF GRID=     453692
 TTTTTTTTTTTTTTTTTTTTTTTTTTTTTT MAKE_GRID2  TELAPSE       11.44 TCPU        2.95
 BECKE WEIGHT FUNCTION
 RADSAFE =     2.00
 TOLERANCES - DENSITY:10**- 6; POTENTIAL:10**- 9; GRID WGT:10**-14

 RADIAL INTEGRATION  - INTERVALS (POINTS,UPPER LIMIT):            1( 75,  4.0*R)

 ANGULAR INTEGRATION - INTERVALS (ACCURACY LEVEL [N. POINTS] UPPER LIMIT):
  1(  4[  86]   0.2)  2(  8[ 194]   0.5)  3( 12[ 350]   0.9)  4( 16[ 974]   3.5)
  5( 12[ 350]9999.0)
 TTTTTTTTTTTTTTTTTTTTTTTTTTTTTT INT_CALC    TELAPSE       11.49 TCPU        2.99
 EEEEEEEEEE INT_CALC TERMINATION  DATE 03 12 2023 TIME 12:04:51.6

 *******************************************************************************
 Z:\home\sanoj\Downloads\tmp_p\newconn.mol                                       
 CRYSTAL - SCF - TYPE OF CALCULATION :  RESTRICTED CLOSED SHELL
 *******************************************************************************

 CAPPA:IS1  3;IS2  3;IS3  3; K PTS MONK NET   6; SYMMOPS:K SPACE   8;G SPACE   4

 TTTTTTTTTTTTTTTTTTTTTTTTTTTTTT SDIK        TELAPSE       11.71 TCPU        3.22

 AAAAAAAAAAAAAAAAAAAAAAAAAAAAAAAAAAAAAAAAAAAAAAAAAAAAAAAAAAAAAAAAAAAAAAAAAAAAAAA
         ATOMIC WAVEFUNCTION(S)


 NUCLEAR CHARGE  1.0  SYMMETRY SPECIES            S
 N. ELECTRONS    1.0  NUMBER OF PRIMITIVE GTOS    4
                      NUMBER OF CONTRACTED GTOS   2
                      NUMBER OF CLOSED SHELLS     0
                      OPEN SHELL OCCUPATION       1

  ZNUC SCFIT  TOTAL HF ENERGY   KINETIC ENERGY   VIRIAL THEOREM ACCURACY
   1.0   1   -4.946643675E-01  4.917913167E-01 -2.005842012E+00  9.4E-17

 NUCLEAR CHARGE  6.0  SYMMETRY SPECIES            S    P
 N. ELECTRONS    6.0  NUMBER OF PRIMITIVE GTOS    7    4
                      NUMBER OF CONTRACTED GTOS   3    2
                      NUMBER OF CLOSED SHELLS     2    0
                      OPEN SHELL OCCUPATION       0    2

  ZNUC SCFIT  TOTAL HF ENERGY   KINETIC ENERGY   VIRIAL THEOREM ACCURACY
   6.0   6   -3.750912652E+01  3.905246519E+01 -1.960480378E+00  3.7E-06

 NUCLEAR CHARGE  7.0  SYMMETRY SPECIES            S    P
 N. ELECTRONS    7.0  NUMBER OF PRIMITIVE GTOS    7    4
                      NUMBER OF CONTRACTED GTOS   3    2
                      NUMBER OF CLOSED SHELLS     2    0
                      OPEN SHELL OCCUPATION       0    3

  ZNUC SCFIT  TOTAL HF ENERGY   KINETIC ENERGY   VIRIAL THEOREM ACCURACY
   7.0   9   -5.432196661E+01  5.425066284E+01 -2.001314339E+00  1.2E-06

 NUCLEAR CHARGE 17.0  SYMMETRY SPECIES            S    P
 N. ELECTRONS   17.0  NUMBER OF PRIMITIVE GTOS   10    7
                      NUMBER OF CONTRACTED GTOS   4    3
                      NUMBER OF CLOSED SHELLS     3    1
                      OPEN SHELL OCCUPATION       0    5

  ZNUC SCFIT  TOTAL HF ENERGY   KINETIC ENERGY   VIRIAL THEOREM ACCURACY
  17.0   9   -4.593005957E+02  4.593991532E+02 -1.999785464E+00  2.3E-06

 NUCLEAR CHARGE 30.0  SYMMETRY SPECIES            S    P    D
 N. ELECTRONS   30.0  NUMBER OF PRIMITIVE GTOS   14    9    5
                      NUMBER OF CONTRACTED GTOS   5    3    2
                      NUMBER OF CLOSED SHELLS     4    2    1
                      OPEN SHELL OCCUPATION       0    0    0

  ZNUC SCFIT  TOTAL HF ENERGY   KINETIC ENERGY   VIRIAL THEOREM ACCURACY
  30.0  10   -1.777404290E+03  1.777325716E+03 -2.000044209E+00  2.5E-06

 AAAAAAAAAAAAAAAAAAAAAAAAAAAAAAAAAAAAAAAAAAAAAAAAAAAAAAAAAAAAAAAAAAAAAAAAAAAAAAA

 TOTAL ATOMIC CHARGES:
   1.0000000   1.0000000   1.0000000   1.0000000   1.0000000   1.0000000
   1.0000000   1.0000000   1.0000000   1.0000000   1.0000000   1.0000000
   6.0000000   6.0000000   6.0000000   6.0000000   6.0000000   6.0000000
   6.0000000   6.0000000   6.0000000   6.0000000   6.0000000   6.0000000
   6.0000000   6.0000000   6.0000000   6.0000000   6.0000000   6.0000000
   6.0000000   6.0000000   6.0000000   6.0000000   6.0000000   6.0000000
   7.0000000   7.0000000   7.0000000   7.0000000   7.0000000   7.0000000
   7.0000000   7.0000000   7.0000000   7.0000000   7.0000000   7.0000000
   7.0000000   7.0000000   7.0000000   7.0000000   7.0000000   7.0000000
   7.0000000   7.0000000  17.0000000  17.0000000  17.0000000  17.0000000
  30.0000000  30.0000000
 TTTTTTTTTTTTTTTTTTTTTTTTTTTTTT MOQGAD      TELAPSE       15.39 TCPU        6.88
 TTTTTTTTTTTTTTTTTTTTTTTTTTTTTT SHELLXN     TELAPSE      104.11 TCPU       87.07
 TTTTTTTTTTTTTTTTTTTTTTTTTTTTTT MONMO3      TELAPSE      111.47 TCPU       94.40
 NUMERICALLY INTEGRATED DENSITY    423.9999239165
 TTTTTTTTTTTTTTTTTTTTTTTTTTTTTT NUMDFT      TELAPSE      113.95 TCPU       96.88
 CYC   0 ETOT(AU) -7.413734198948E+03 DETOT -7.41E+03 tst  0.00E+00 PX  1.00E+00
 TTTTTTTTTTTTTTTTTTTTTTTTTTTTTT DIIS        TELAPSE      114.04 TCPU       96.96
 TTTTTTTTTTTTTTTTTTTTTTTTTTTTTT FDIK        TELAPSE      381.96 TCPU      127.77
 INSULATING STATE
 TOP OF VALENCE BANDS -    BAND    212; K    3; EIG -1.3334214E-01 AU
 TOP OF VALENCE BANDS -    BAND    212; K    1; EIG -1.3524173E-01 AU
 BOTTOM OF VIRTUAL BANDS - BAND    213; K    2; EIG -1.0901154E-01 AU
 INDIRECT ENERGY BAND GAP:   0.6621 eV
 BOTTOM OF VIRTUAL BANDS - BAND    213; K    1; EIG -1.0874654E-01 AU
 TTTTTTTTTTTTTTTTTTTTTTTTTTTTTT PDIG        TELAPSE      382.57 TCPU      128.37
 TOTAL ATOMIC CHARGES:
   1.1521920   1.1521920   1.1521920   1.1521920   1.3170849   1.3170849
   1.3170849   1.3170849   1.2568437   1.2568437   1.2568437   1.2568437
   6.0163567   6.0163567   6.0163567   6.0163567   5.4677392   5.4677392
   5.4677392   5.4677392   6.2659762   6.2659762   6.2659762   6.2659762
   5.8582381   5.8582381   5.8582381   5.8582381   5.8455803   5.8455803
   5.8455803   5.8455803   5.1086943   5.1086943   5.1086943   5.1086943
   7.3891246   7.3891246   7.3891246   7.3891246   7.1845903   7.1845903
   7.1845903   7.1845903   7.3889726   7.3889726   7.3889726   7.3889726
   7.1578323   7.1578323   7.1578323   7.1578323   7.4510083   7.4510083
   7.4510083   7.4510083  17.2787094  17.2787094  17.2787094  17.2787094
  27.5884806  27.8557476
 TTTTTTTTTTTTTTTTTTTTTTTTTTTTTT MOQGAD      TELAPSE      382.61 TCPU      128.42
 TTTTTTTTTTTTTTTTTTTTTTTTTTTTTT SHELLXN     TELAPSE      481.93 TCPU      221.15
 TTTTTTTTTTTTTTTTTTTTTTTTTTTTTT MONMO3      TELAPSE      486.49 TCPU      225.70
 NUMERICALLY INTEGRATED DENSITY    424.0000005548
 TTTTTTTTTTTTTTTTTTTTTTTTTTTTTT NUMDFT      TELAPSE      493.78 TCPU      232.96
 CYC   1 ETOT(AU) -7.408702258370E+03 DETOT  5.03E+00 tst  0.00E+00 PX  1.00E+00
 TTTTTTTTTTTTTTTTTTTTTTTTTTTTTT DIIS        TELAPSE      494.22 TCPU      233.41
 DIIS TEST: 0.13877E+02 AT SCF   CYCLE   1 - MIX   30 %
 TTTTTTTTTTTTTTTTTTTTTTTTTTTTTT FDIK        TELAPSE      508.00 TCPU      245.04
 INSULATING STATE
 TOP OF VALENCE BANDS -    BAND    212; K    3; EIG -1.3994625E-01 AU
 TOP OF VALENCE BANDS -    BAND    212; K    1; EIG -1.4183932E-01 AU
 BOTTOM OF VIRTUAL BANDS - BAND    213; K    6; EIG -1.2709022E-01 AU
 INDIRECT ENERGY BAND GAP:   0.3498 eV
 BOTTOM OF VIRTUAL BANDS - BAND    213; K    1; EIG -1.2230741E-01 AU
 TTTTTTTTTTTTTTTTTTTTTTTTTTTTTT PDIG        TELAPSE      508.60 TCPU      245.64
 TOTAL ATOMIC CHARGES:
   1.1231710   1.1231710   1.1231710   1.1231710   1.3220101   1.3220101
   1.3220101   1.3220101   1.2277775   1.2277775   1.2277775   1.2277775
   6.2156134   6.2156134   6.2156134   6.2156134   6.2045996   6.2045996
   6.2045996   6.2045996   6.2522449   6.2522449   6.2522449   6.2522449
   5.9532368   5.9532368   5.9532368   5.9532368   6.2543164   6.2543164
   6.2543164   6.2543164   5.6741385   5.6741385   5.6741385   5.6741385
   7.0317836   7.0317836   7.0317836   7.0317836   6.8182891   6.8182891
   6.8182891   6.8182891   6.9688796   6.9688796   6.9688796   6.9688796
   6.8138025   6.8138025   6.8138025   6.8138025   6.0578741   6.0578741
   6.0578741   6.0578741  17.1527904  17.1527904  17.1527904  17.1527904
  30.0215641  29.6963258
 TTTTTTTTTTTTTTTTTTTTTTTTTTTTTT MOQGAD      TELAPSE      508.65 TCPU      245.68
 TTTTTTTTTTTTTTTTTTTTTTTTTTTTTT SHELLXN     TELAPSE      603.75 TCPU      338.36
 TTTTTTTTTTTTTTTTTTTTTTTTTTTTTT MONMO3      TELAPSE      608.76 TCPU      343.35
 NUMERICALLY INTEGRATED DENSITY    424.0000277209
 TTTTTTTTTTTTTTTTTTTTTTTTTTTTTT NUMDFT      TELAPSE      615.98 TCPU      350.55
 CYC   2 ETOT(AU) -7.407435997121E+03 DETOT  1.27E+00 tst  1.55E-01 PX  9.56E-01
 TTTTTTTTTTTTTTTTTTTTTTTTTTTTTT DIIS        TELAPSE      616.36 TCPU      350.93
 DIIS TEST: 0.20010E+02 AT SCF   CYCLE   2 - DIIS ACTIVE - HISTORY:     2 CYCLES
 TTTTTTTTTTTTTTTTTTTTTTTTTTTTTT FDIK        TELAPSE      630.04 TCPU      362.17
 INSULATING STATE
 TOP OF VALENCE BANDS -    BAND    212; K    1; EIG -2.5030684E-01 AU
 BOTTOM OF VIRTUAL BANDS - BAND    213; K    1; EIG -1.3608632E-01 AU
 DIRECT ENERGY BAND GAP:   3.1081 eV
 TTTTTTTTTTTTTTTTTTTTTTTTTTTTTT PDIG        TELAPSE      630.64 TCPU      362.77
 TOTAL ATOMIC CHARGES:
   1.0967481   1.0967481   1.0967481   1.0967481   1.2018340   1.2018340
   1.2018340   1.2018340   1.1583178   1.1583178   1.1583178   1.1583178
   5.8091394   5.8091394   5.8091394   5.8091394   5.7381751   5.7381751
   5.7381751   5.7381751   6.0364771   6.0364771   6.0364771   6.0364771
   6.1662723   6.1662723   6.1662723   6.1662723   5.9165938   5.9165938
   5.9165938   5.9165938   5.3616643   5.3616643   5.3616643   5.3616643
   6.9941318   6.9941318   6.9941318   6.9941318   7.1463468   7.1463468
   7.1463468   7.1463468   7.0573853   7.0573853   7.0573853   7.0573853
   7.1269177   7.1269177   7.1269177   7.1269177   7.4914908   7.4914908
   7.4914908   7.4914908  17.1332453  17.1332453  17.1332453  17.1332453
  29.1308269  29.1302153
 TTTTTTTTTTTTTTTTTTTTTTTTTTTTTT MOQGAD      TELAPSE      630.69 TCPU      362.81
 TTTTTTTTTTTTTTTTTTTTTTTTTTTTTT SHELLXN     TELAPSE      725.75 TCPU      455.36
 TTTTTTTTTTTTTTTTTTTTTTTTTTTTTT MONMO3      TELAPSE      730.99 TCPU      460.58
 NUMERICALLY INTEGRATED DENSITY    424.0000002811
 TTTTTTTTTTTTTTTTTTTTTTTTTTTTTT NUMDFT      TELAPSE      738.24 TCPU      467.80
 CYC   3 ETOT(AU) -7.410127694716E+03 DETOT -2.69E+00 tst  2.69E-02 PX  7.44E-01
 TTTTTTTTTTTTTTTTTTTTTTTTTTTTTT DIIS        TELAPSE      738.46 TCPU      468.01
 DIIS TEST: 0.52122E+01 AT SCF   CYCLE   3 - DIIS ACTIVE - HISTORY:     3 CYCLES
 TTTTTTTTTTTTTTTTTTTTTTTTTTTTTT FDIK        TELAPSE      749.25 TCPU      478.51
 INSULATING STATE
 TOP OF VALENCE BANDS -    BAND    212; K    4; EIG -2.1315144E-01 AU
 TOP OF VALENCE BANDS -    BAND    212; K    1; EIG -2.1452811E-01 AU
 BOTTOM OF VIRTUAL BANDS - BAND    213; K    1; EIG -1.2492681E-01 AU
 INDIRECT ENERGY BAND GAP:   2.4007 eV
 TTTTTTTTTTTTTTTTTTTTTTTTTTTTTT PDIG        TELAPSE      749.85 TCPU      479.10
 TOTAL ATOMIC CHARGES:
   1.0859004   1.0859004   1.0859004   1.0859004   1.2395924   1.2395924
   1.2395924   1.2395924   1.2004622   1.2004622   1.2004622   1.2004622
   6.1545902   6.1545902   6.1545902   6.1545902   5.7411226   5.7411226
   5.7411226   5.7411226   6.3626506   6.3626506   6.3626506   6.3626506
   5.7545651   5.7545651   5.7545651   5.7545651   6.0214869   6.0214869
   6.0214869   6.0214869   5.3281058   5.3281058   5.3281058   5.3281058
   7.2888944   7.2888944   7.2888944   7.2888944   7.0504198   7.0504198
   7.0504198   7.0504198   7.2186894   7.2186894   7.2186894   7.2186894
   7.0167182   7.0167182   7.0167182   7.0167182   6.9312425   6.9312425
   6.9312425   6.9312425  17.2548518  17.2548518  17.2548518  17.2548518
  28.6625741  28.7402561
 TTTTTTTTTTTTTTTTTTTTTTTTTTTTTT MOQGAD      TELAPSE      749.90 TCPU      479.15
 TTTTTTTTTTTTTTTTTTTTTTTTTTTTTT SHELLXN     TELAPSE      848.33 TCPU      572.11
 TTTTTTTTTTTTTTTTTTTTTTTTTTTTTT MONMO3      TELAPSE      852.69 TCPU      576.46
 NUMERICALLY INTEGRATED DENSITY    424.0000002989
 TTTTTTTTTTTTTTTTTTTTTTTTTTTTTT NUMDFT      TELAPSE      859.86 TCPU      583.60
 CYC   4 ETOT(AU) -7.410520937294E+03 DETOT -3.93E-01 tst  8.53E-03 PX  2.14E-01
 TTTTTTTTTTTTTTTTTTTTTTTTTTTTTT DIIS        TELAPSE      860.05 TCPU      583.79
 DIIS TEST: 0.18879E+01 AT SCF   CYCLE   4 - DIIS ACTIVE - HISTORY:     4 CYCLES
 TTTTTTTTTTTTTTTTTTTTTTTTTTTTTT FDIK        TELAPSE      873.65 TCPU      593.58
 INSULATING STATE
 TOP OF VALENCE BANDS -    BAND    212; K    4; EIG -2.3508197E-01 AU
 TOP OF VALENCE BANDS -    BAND    212; K    1; EIG -2.3721087E-01 AU
 BOTTOM OF VIRTUAL BANDS - BAND    213; K    1; EIG -1.2759397E-01 AU
 INDIRECT ENERGY BAND GAP:   2.9249 eV
 TTTTTTTTTTTTTTTTTTTTTTTTTTTTTT PDIG        TELAPSE      874.24 TCPU      594.18
 TOTAL ATOMIC CHARGES:
   1.0948675   1.0948675   1.0948675   1.0948675   1.2346143   1.2346143
   1.2346143   1.2346143   1.1878030   1.1878030   1.1878030   1.1878030
   6.0380256   6.0380256   6.0380256   6.0380256   5.7648711   5.7648711
   5.7648711   5.7648711   6.2226993   6.2226993   6.2226993   6.2226993
   5.9680897   5.9680897   5.9680897   5.9680897   6.0259572   6.0259572
   6.0259572   6.0259572   5.4124371   5.4124371   5.4124371   5.4124371
   7.1877005   7.1877005   7.1877005   7.1877005   7.0560619   7.0560619
   7.0560619   7.0560619   7.1552717   7.1552717   7.1552717   7.1552717
   7.0385349   7.0385349   7.0385349   7.0385349   7.0032229   7.0032229
   7.0032229   7.0032229  17.2002654  17.2002654  17.2002654  17.2002654
  28.8058666  28.8324452
 TTTTTTTTTTTTTTTTTTTTTTTTTTTTTT MOQGAD      TELAPSE      874.29 TCPU      594.23
 TTTTTTTTTTTTTTTTTTTTTTTTTTTTTT SHELLXN     TELAPSE      970.54 TCPU      687.04
 TTTTTTTTTTTTTTTTTTTTTTTTTTTTTT MONMO3      TELAPSE      975.59 TCPU      692.07
 NUMERICALLY INTEGRATED DENSITY    424.0000072842
 TTTTTTTTTTTTTTTTTTTTTTTTTTTTTT NUMDFT      TELAPSE      982.79 TCPU      699.24
 CYC   5 ETOT(AU) -7.410802311648E+03 DETOT -2.81E-01 tst  1.19E-03 PX  1.70E-01
 TTTTTTTTTTTTTTTTTTTTTTTTTTTTTT DIIS        TELAPSE     1017.39 TCPU      733.72
 DIIS TEST: 0.54307E-01 AT SCF   CYCLE   5 - DIIS ACTIVE - HISTORY:     5 CYCLES
 TTTTTTTTTTTTTTTTTTTTTTTTTTTTTT FDIK        TELAPSE     1043.23 TCPU      746.71
 INSULATING STATE
 TOP OF VALENCE BANDS -    BAND    212; K    4; EIG -2.3593144E-01 AU
 TOP OF VALENCE BANDS -    BAND    212; K    1; EIG -2.3801810E-01 AU
 BOTTOM OF VIRTUAL BANDS - BAND    213; K    1; EIG -1.2753376E-01 AU
 INDIRECT ENERGY BAND GAP:   2.9497 eV
 TTTTTTTTTTTTTTTTTTTTTTTTTTTTTT PDIG        TELAPSE     1043.82 TCPU      747.30
 TOTAL ATOMIC CHARGES:
   1.0945072   1.0945072   1.0945072   1.0945072   1.2320729   1.2320729
   1.2320729   1.2320729   1.1887956   1.1887956   1.1887956   1.1887956
   6.0651312   6.0651312   6.0651312   6.0651312   5.7914144   5.7914144
   5.7914144   5.7914144   6.2401343   6.2401343   6.2401343   6.2401343
   5.8905490   5.8905490   5.8905490   5.8905490   6.0014132   6.0014132
   6.0014132   6.0014132   5.3580828   5.3580828   5.3580828   5.3580828
   7.1540693   7.1540693   7.1540693   7.1540693   7.0617489   7.0617489
   7.0617489   7.0617489   7.1462156   7.1462156   7.1462156   7.1462156
   7.0462064   7.0462064   7.0462064   7.0462064   7.0871316   7.0871316
   7.0871316   7.0871316  17.2056211  17.2056211  17.2056211  17.2056211
  28.8587142  28.8889112
 TTTTTTTTTTTTTTTTTTTTTTTTTTTTTT MOQGAD      TELAPSE     1043.87 TCPU      747.35
 TTTTTTTTTTTTTTTTTTTTTTTTTTTTTT SHELLXN     TELAPSE     1155.57 TCPU      839.93
 TTTTTTTTTTTTTTTTTTTTTTTTTTTTTT MONMO3      TELAPSE     1165.02 TCPU      849.34
 NUMERICALLY INTEGRATED DENSITY    424.0000052375
 TTTTTTTTTTTTTTTTTTTTTTTTTTTTTT NUMDFT      TELAPSE     1172.23 TCPU      856.52
 CYC   6 ETOT(AU) -7.410804428064E+03 DETOT -2.12E-03 tst  8.73E-05 PX  2.42E-02
 TTTTTTTTTTTTTTTTTTTTTTTTTTTTTT DIIS        TELAPSE     1172.38 TCPU      856.67
 DIIS TEST: 0.42939E-01 AT SCF   CYCLE   6 - DIIS ACTIVE - HISTORY:     6 CYCLES
 TTTTTTTTTTTTTTTTTTTTTTTTTTTTTT FDIK        TELAPSE     1183.90 TCPU      865.92
 INSULATING STATE
 TOP OF VALENCE BANDS -    BAND    212; K    4; EIG -2.3385536E-01 AU
 TOP OF VALENCE BANDS -    BAND    212; K    1; EIG -2.3592654E-01 AU
 BOTTOM OF VIRTUAL BANDS - BAND    213; K    1; EIG -1.2757264E-01 AU
 INDIRECT ENERGY BAND GAP:   2.8921 eV
 TTTTTTTTTTTTTTTTTTTTTTTTTTTTTT PDIG        TELAPSE     1184.50 TCPU      866.52
 TOTAL ATOMIC CHARGES:
   1.0932047   1.0932047   1.0932047   1.0932047   1.2324167   1.2324167
   1.2324167   1.2324167   1.1861480   1.1861480   1.1861480   1.1861480
   6.0335207   6.0335207   6.0335207   6.0335207   5.7748476   5.7748476
   5.7748476   5.7748476   6.2303977   6.2303977   6.2303977   6.2303977
   5.9424986   5.9424986   5.9424986   5.9424986   6.0084637   6.0084637
   6.0084637   6.0084637   5.3964882   5.3964882   5.3964882   5.3964882
   7.1815529   7.1815529   7.1815529   7.1815529   7.0644061   7.0644061
   7.0644061   7.0644061   7.1454430   7.1454430   7.1454430   7.1454430
   7.0378950   7.0378950   7.0378950   7.0378950   7.0407725   7.0407725
   7.0407725   7.0407725  17.1993321  17.1993321  17.1993321  17.1993321
  28.8495282  28.8809208
 TTTTTTTTTTTTTTTTTTTTTTTTTTTTTT MOQGAD      TELAPSE     1184.55 TCPU      866.57
 TTTTTTTTTTTTTTTTTTTTTTTTTTTTTT SHELLXN     TELAPSE     1280.02 TCPU      959.30
 TTTTTTTTTTTTTTTTTTTTTTTTTTTTTT MONMO3      TELAPSE     1284.36 TCPU      963.63
 NUMERICALLY INTEGRATED DENSITY    424.0000055402
 TTTTTTTTTTTTTTTTTTTTTTTTTTTTTT NUMDFT      TELAPSE     1291.50 TCPU      970.73
 CYC   7 ETOT(AU) -7.410810058556E+03 DETOT -5.63E-03 tst  2.30E-05 PX  1.70E-02
 TTTTTTTTTTTTTTTTTTTTTTTTTTTTTT DIIS        TELAPSE     1291.66 TCPU      970.89
 DIIS TEST: 0.45669E-02 AT SCF   CYCLE   7 - DIIS ACTIVE - HISTORY:     7 CYCLES
 TTTTTTTTTTTTTTTTTTTTTTTTTTTTTT FDIK        TELAPSE     1303.60 TCPU      980.47
 INSULATING STATE
 TOP OF VALENCE BANDS -    BAND    212; K    4; EIG -2.3474298E-01 AU
 TOP OF VALENCE BANDS -    BAND    212; K    1; EIG -2.3682295E-01 AU
 BOTTOM OF VIRTUAL BANDS - BAND    213; K    1; EIG -1.2757948E-01 AU
 INDIRECT ENERGY BAND GAP:   2.9161 eV
 TTTTTTTTTTTTTTTTTTTTTTTTTTTTTT PDIG        TELAPSE     1304.20 TCPU      981.06
 TOTAL ATOMIC CHARGES:
   1.0934765   1.0934765   1.0934765   1.0934765   1.2299347   1.2299347
   1.2299347   1.2299347   1.1870874   1.1870874   1.1870874   1.1870874
   6.0453294   6.0453294   6.0453294   6.0453294   5.7758672   5.7758672
   5.7758672   5.7758672   6.2243466   6.2243466   6.2243466   6.2243466
   5.9392957   5.9392957   5.9392957   5.9392957   6.0161494   6.0161494
   6.0161494   6.0161494   5.3830197   5.3830197   5.3830197   5.3830197
   7.1660169   7.1660169   7.1660169   7.1660169   7.0521456   7.0521456
   7.0521456   7.0521456   7.1577714   7.1577714   7.1577714   7.1577714
   7.0464301   7.0464301   7.0464301   7.0464301   7.0471211   7.0471211
   7.0471211   7.0471211  17.2029749  17.2029749  17.2029749  17.2029749
  28.8519361  28.8801972
 TTTTTTTTTTTTTTTTTTTTTTTTTTTTTT MOQGAD      TELAPSE     1304.25 TCPU      981.11
 TTTTTTTTTTTTTTTTTTTTTTTTTTTTTT SHELLXN     TELAPSE     1399.50 TCPU     1073.84
 TTTTTTTTTTTTTTTTTTTTTTTTTTTTTT MONMO3      TELAPSE     1404.89 TCPU     1079.21
 NUMERICALLY INTEGRATED DENSITY    424.0000058875
 TTTTTTTTTTTTTTTTTTTTTTTTTTTTTT NUMDFT      TELAPSE     1412.03 TCPU     1086.30
 CYC   8 ETOT(AU) -7.410810356339E+03 DETOT -2.98E-04 tst  4.27E-06 PX  4.58E-03
 TTTTTTTTTTTTTTTTTTTTTTTTTTTTTT DIIS        TELAPSE     1412.19 TCPU     1086.46
 DIIS TEST: 0.25344E-02 AT SCF   CYCLE   8 - DIIS ACTIVE - HISTORY:     8 CYCLES
 TTTTTTTTTTTTTTTTTTTTTTTTTTTTTT FDIK        TELAPSE     1422.40 TCPU     1094.90
 INSULATING STATE
 TOP OF VALENCE BANDS -    BAND    212; K    4; EIG -2.3508065E-01 AU
 TOP OF VALENCE BANDS -    BAND    212; K    1; EIG -2.3717453E-01 AU
 BOTTOM OF VIRTUAL BANDS - BAND    213; K    1; EIG -1.2764644E-01 AU
 INDIRECT ENERGY BAND GAP:   2.9234 eV
 TTTTTTTTTTTTTTTTTTTTTTTTTTTTTT PDIG        TELAPSE     1423.00 TCPU     1095.49
 TOTAL ATOMIC CHARGES:
   1.0928342   1.0928342   1.0928342   1.0928342   1.2306488   1.2306488
   1.2306488   1.2306488   1.1869147   1.1869147   1.1869147   1.1869147
   6.0434512   6.0434512   6.0434512   6.0434512   5.7755448   5.7755448
   5.7755448   5.7755448   6.2276395   6.2276395   6.2276395   6.2276395
   5.9344245   5.9344245   5.9344245   5.9344245   6.0119845   6.0119845
   6.0119845   6.0119845   5.3857736   5.3857736   5.3857736   5.3857736
   7.1755303   7.1755303   7.1755303   7.1755303   7.0651076   7.0651076
   7.0651076   7.0651076   7.1448448   7.1448448   7.1448448   7.1448448
   7.0376241   7.0376241   7.0376241   7.0376241   7.0520812   7.0520812
   7.0520812   7.0520812  17.2023846  17.2023846  17.2023846  17.2023846
  28.8525819  28.8802654
 TTTTTTTTTTTTTTTTTTTTTTTTTTTTTT MOQGAD      TELAPSE     1423.05 TCPU     1095.54
 TTTTTTTTTTTTTTTTTTTTTTTTTTTTTT SHELLXN     TELAPSE     1516.46 TCPU     1188.11
 TTTTTTTTTTTTTTTTTTTTTTTTTTTTTT MONMO3      TELAPSE     1521.22 TCPU     1192.86
 NUMERICALLY INTEGRATED DENSITY    424.0000057731
 TTTTTTTTTTTTTTTTTTTTTTTTTTTTTT NUMDFT      TELAPSE     1528.40 TCPU     1200.01
 CYC   9 ETOT(AU) -7.410810622216E+03 DETOT -2.66E-04 tst  4.07E-06 PX  4.24E-03
 TTTTTTTTTTTTTTTTTTTTTTTTTTTTTT DIIS        TELAPSE     1528.90 TCPU     1200.50
 DIIS TEST: 0.86035E-03 AT SCF   CYCLE   9 - DIIS ACTIVE - HISTORY:     9 CYCLES
 TTTTTTTTTTTTTTTTTTTTTTTTTTTTTT FDIK        TELAPSE     1539.26 TCPU     1208.44
 INSULATING STATE
 TOP OF VALENCE BANDS -    BAND    212; K    4; EIG -2.3486184E-01 AU
 TOP OF VALENCE BANDS -    BAND    212; K    1; EIG -2.3695495E-01 AU
 BOTTOM OF VIRTUAL BANDS - BAND    213; K    1; EIG -1.2763748E-01 AU
 INDIRECT ENERGY BAND GAP:   2.9177 eV
 TTTTTTTTTTTTTTTTTTTTTTTTTTTTTT PDIG        TELAPSE     1539.85 TCPU     1209.03
 TOTAL ATOMIC CHARGES:
   1.0930592   1.0930592   1.0930592   1.0930592   1.2310662   1.2310662
   1.2310662   1.2310662   1.1867917   1.1867917   1.1867917   1.1867917
   6.0413735   6.0413735   6.0413735   6.0413735   5.7756395   5.7756395
   5.7756395   5.7756395   6.2299158   6.2299158   6.2299158   6.2299158
   5.9349862   5.9349862   5.9349862   5.9349862   6.0079487   6.0079487
   6.0079487   6.0079487   5.3881938   5.3881938   5.3881938   5.3881938
   7.1711391   7.1711391   7.1711391   7.1711391   7.0602601   7.0602601
   7.0602601   7.0602601   7.1500567   7.1500567   7.1500567   7.1500567
   7.0430758   7.0430758   7.0430758   7.0430758   7.0515941   7.0515941
   7.0515941   7.0515941  17.2019766  17.2019766  17.2019766  17.2019766
  28.8511639  28.8805282
 TTTTTTTTTTTTTTTTTTTTTTTTTTTTTT MOQGAD      TELAPSE     1539.90 TCPU     1209.08
 TTTTTTTTTTTTTTTTTTTTTTTTTTTTTT SHELLXN     TELAPSE     1634.97 TCPU     1301.79
 TTTTTTTTTTTTTTTTTTTTTTTTTTTTTT MONMO3      TELAPSE     1640.35 TCPU     1307.16
 NUMERICALLY INTEGRATED DENSITY    424.0000056754
 TTTTTTTTTTTTTTTTTTTTTTTTTTTTTT NUMDFT      TELAPSE     1647.51 TCPU     1314.30
 CYC  10 ETOT(AU) -7.410810722173E+03 DETOT -1.00E-04 tst  8.69E-07 PX  1.78E-03
 TTTTTTTTTTTTTTTTTTTTTTTTTTTTTT DIIS        TELAPSE     1648.41 TCPU     1315.20
 DIIS TEST: 0.20877E-03 AT SCF   CYCLE  10 - DIIS ACTIVE - HISTORY:    10 CYCLES
 TTTTTTTTTTTTTTTTTTTTTTTTTTTTTT FDIK        TELAPSE     1661.02 TCPU     1325.28
 INSULATING STATE
 TOP OF VALENCE BANDS -    BAND    212; K    4; EIG -2.3492049E-01 AU
 TOP OF VALENCE BANDS -    BAND    212; K    1; EIG -2.3701307E-01 AU
 BOTTOM OF VIRTUAL BANDS - BAND    213; K    1; EIG -1.2765213E-01 AU
 INDIRECT ENERGY BAND GAP:   2.9189 eV
 TTTTTTTTTTTTTTTTTTTTTTTTTTTTTT PDIG        TELAPSE     1661.61 TCPU     1325.87
 TOTAL ATOMIC CHARGES:
   1.0932786   1.0932786   1.0932786   1.0932786   1.2308951   1.2308951
   1.2308951   1.2308951   1.1867310   1.1867310   1.1867310   1.1867310
   6.0416904   6.0416904   6.0416904   6.0416904   5.7764150   5.7764150
   5.7764150   5.7764150   6.2277990   6.2277990   6.2277990   6.2277990
   5.9361183   5.9361183   5.9361183   5.9361183   6.0111955   6.0111955
   6.0111955   6.0111955   5.3860421   5.3860421   5.3860421   5.3860421
   7.1724968   7.1724968   7.1724968   7.1724968   7.0603760   7.0603760
   7.0603760   7.0603760   7.1497407   7.1497407   7.1497407   7.1497407
   7.0415847   7.0415847   7.0415847   7.0415847   7.0512111   7.0512111
   7.0512111   7.0512111  17.2017731  17.2017731  17.2017731  17.2017731
  28.8508501  28.8797604
 TTTTTTTTTTTTTTTTTTTTTTTTTTTTTT MOQGAD      TELAPSE     1661.67 TCPU     1325.92
 TTTTTTTTTTTTTTTTTTTTTTTTTTTTTT SHELLXN     TELAPSE     1759.10 TCPU     1418.78
 TTTTTTTTTTTTTTTTTTTTTTTTTTTTTT MONMO3      TELAPSE     1763.86 TCPU     1423.52
 NUMERICALLY INTEGRATED DENSITY    424.0000057316
 TTTTTTTTTTTTTTTTTTTTTTTTTTTTTT NUMDFT      TELAPSE     1771.03 TCPU     1430.65
 CYC  11 ETOT(AU) -7.410810747201E+03 DETOT -2.50E-05 tst  1.24E-07 PX  9.95E-04
 TTTTTTTTTTTTTTTTTTTTTTTTTTTTTT DIIS        TELAPSE     1771.54 TCPU     1431.15
 DIIS TEST: 0.18471E-04 AT SCF   CYCLE  11 - DIIS ACTIVE - HISTORY:    11 CYCLES
 TTTTTTTTTTTTTTTTTTTTTTTTTTTTTT FDIK        TELAPSE     1784.24 TCPU     1439.87
 INSULATING STATE
 TOP OF VALENCE BANDS -    BAND    212; K    4; EIG -2.3489360E-01 AU
 TOP OF VALENCE BANDS -    BAND    212; K    1; EIG -2.3698414E-01 AU
 BOTTOM OF VIRTUAL BANDS - BAND    213; K    1; EIG -1.2762395E-01 AU
 INDIRECT ENERGY BAND GAP:   2.9190 eV
 TTTTTTTTTTTTTTTTTTTTTTTTTTTTTT PDIG        TELAPSE     1784.84 TCPU     1440.47
 TOTAL ATOMIC CHARGES:
   1.0931569   1.0931569   1.0931569   1.0931569   1.2308745   1.2308745
   1.2308745   1.2308745   1.1867856   1.1867856   1.1867856   1.1867856
   6.0423828   6.0423828   6.0423828   6.0423828   5.7759443   5.7759443
   5.7759443   5.7759443   6.2283936   6.2283936   6.2283936   6.2283936
   5.9357030   5.9357030   5.9357030   5.9357030   6.0106628   6.0106628
   6.0106628   6.0106628   5.3862624   5.3862624   5.3862624   5.3862624
   7.1713921   7.1713921   7.1713921   7.1713921   7.0614134   7.0614134
   7.0614134   7.0614134   7.1490989   7.1490989   7.1490989   7.1490989
   7.0418274   7.0418274   7.0418274   7.0418274   7.0508540   7.0508540
   7.0508540   7.0508540  17.2023764  17.2023764  17.2023764  17.2023764
  28.8513101  28.8801784
 TTTTTTTTTTTTTTTTTTTTTTTTTTTTTT MOQGAD      TELAPSE     1784.89 TCPU     1440.52
 TTTTTTTTTTTTTTTTTTTTTTTTTTTTTT SHELLXN     TELAPSE     1880.26 TCPU     1533.43
 TTTTTTTTTTTTTTTTTTTTTTTTTTTTTT MONMO3      TELAPSE     1885.29 TCPU     1538.44
 NUMERICALLY INTEGRATED DENSITY    424.0000057143
 TTTTTTTTTTTTTTTTTTTTTTTTTTTTTT NUMDFT      TELAPSE     1892.46 TCPU     1545.59
 CYC  12 ETOT(AU) -7.410810748330E+03 DETOT -1.13E-06 tst  2.42E-08 PX  2.79E-04
 TTTTTTTTTTTTTTTTTTTTTTTTTTTTTT DIIS        TELAPSE     1899.44 TCPU     1552.55
 DIIS TEST: 0.10392E-04 AT SCF   CYCLE  12 - DIIS ACTIVE - HISTORY:    12 CYCLES
 TTTTTTTTTTTTTTTTTTTTTTTTTTTTTT FDIK        TELAPSE     1921.91 TCPU     1565.86
 INSULATING STATE
 TOP OF VALENCE BANDS -    BAND    212; K    4; EIG -2.3491514E-01 AU
 TOP OF VALENCE BANDS -    BAND    212; K    1; EIG -2.3700667E-01 AU
 BOTTOM OF VIRTUAL BANDS - BAND    213; K    1; EIG -1.2764106E-01 AU
 INDIRECT ENERGY BAND GAP:   2.9191 eV
 TTTTTTTTTTTTTTTTTTTTTTTTTTTTTT PDIG        TELAPSE     1922.52 TCPU     1566.47
 TOTAL ATOMIC CHARGES:
   1.0931859   1.0931859   1.0931859   1.0931859   1.2308765   1.2308765
   1.2308765   1.2308765   1.1868071   1.1868071   1.1868071   1.1868071
   6.0421232   6.0421232   6.0421232   6.0421232   5.7759075   5.7759075
   5.7759075   5.7759075   6.2282505   6.2282505   6.2282505   6.2282505
   5.9356504   5.9356504   5.9356504   5.9356504   6.0105499   6.0105499
   6.0105499   6.0105499   5.3862802   5.3862802   5.3862802   5.3862802
   7.1724949   7.1724949   7.1724949   7.1724949   7.0603475   7.0603475
   7.0603475   7.0603475   7.1497525   7.1497525   7.1497525   7.1497525
   7.0415181   7.0415181   7.0415181   7.0415181   7.0512204   7.0512204
   7.0512204   7.0512204  17.2022110  17.2022110  17.2022110  17.2022110
  28.8511915  28.8801055
 TTTTTTTTTTTTTTTTTTTTTTTTTTTTTT MOQGAD      TELAPSE     1922.57 TCPU     1566.52
 TTTTTTTTTTTTTTTTTTTTTTTTTTTTTT SHELLXN     TELAPSE     2040.97 TCPU     1659.53
 TTTTTTTTTTTTTTTTTTTTTTTTTTTTTT MONMO3      TELAPSE     2055.47 TCPU     1674.00
 NUMERICALLY INTEGRATED DENSITY    424.0000057527
 TTTTTTTTTTTTTTTTTTTTTTTTTTTTTT NUMDFT      TELAPSE     2062.64 TCPU     1681.15
 CYC  13 ETOT(AU) -7.410810749422E+03 DETOT -1.09E-06 tst  2.43E-08 PX  2.77E-04
 TTTTTTTTTTTTTTTTTTTTTTTTTTTTTT DIIS        TELAPSE     2063.11 TCPU     1681.62
 DIIS TEST: 0.29906E-05 AT SCF   CYCLE  13 - DIIS ACTIVE - HISTORY:    13 CYCLES
[...]
 TTTTTTTTTTTTTTTTTTTTTTTTTTTTTT MOQGAD      TELAPSE   471359.86 TCPU   467392.21
 TTTTTTTTTTTTTTTTTTTTTTTTTTTTTT CP_MONMON   TELAPSE   471378.13 TCPU   467410.40
 DIIS TEST: 0.24693E-01 AT CPHF  CYCLE  15 - DIIS ACTIVE - HISTORY:    15 CYCLES
 CYCLE  15   ALPHA  528.959500  EPSILON    2.370738  DELTA   -3.5451E-02
 TTTTTTTTTTTTTTTTTTTTTTTTTTTTTT MOQGAD      TELAPSE   472212.09 TCPU   468238.28
 TTTTTTTTTTTTTTTTTTTTTTTTTTTTTT CP_MONMON   TELAPSE   472230.23 TCPU   468256.35
 DIIS TEST: 0.13407E+00 AT CPHF  CYCLE  16 - DIIS ACTIVE - HISTORY:    16 CYCLES
 CYCLE  16   ALPHA  528.974337  EPSILON    2.370776  DELTA    1.4837E-02
 TTTTTTTTTTTTTTTTTTTTTTTTTTTTTT MOQGAD      TELAPSE   473067.63 TCPU   469082.01
 TTTTTTTTTTTTTTTTTTTTTTTTTTTTTT CP_MONMON   TELAPSE   473085.84 TCPU   469100.14
 DIIS TEST: 0.10072E+00 AT CPHF  CYCLE  17 - DIIS ACTIVE - HISTORY:    17 CYCLES
 CYCLE  17   ALPHA  528.974752  EPSILON    2.370777  DELTA    4.1503E-04
 TTTTTTTTTTTTTTTTTTTTTTTTTTTTTT CP_SC       TELAPSE   473121.94 TCPU   469133.45

 *******************************************************************************

 POLARIZABILITY (ALPHA), DIELECTRIC (EPSILON) AND FIRST-ORDER ELECTRIC
 SUSCEPTIBILITY (CHI(1)) TENSORS (INDEPENDENT COMPONENTS)

  FR.(eV) COMP.   ALPHA(Re,Im)           EPSILON(Re,Im)                CHI(1)
  1.435   XX    1024.3899       0.0000       3.6546       0.0000       2.6546
  1.435   ZZ     528.9748       0.0000       2.3708       0.0000       1.3708

 DIELECTRIC TENSOR

 TENSOR IN PRINCIPAL AXES SYSTEM
 AA  3.654589E+00 BB  3.654589E+00 CC  2.370777E+00

 REFRACTIVE INDICES 
 AA  1.539733E+00 BB  1.911698E+00 CC  1.911698E+00

 OPTICALLY ANISOTROPIC - UNIAXIAL CRYSTAL

 BIREFRINGENCE =  0.3720 (NEGATIVE) - OBLATE OPTICAL ELLIPSOID

 EPSILON=N**2=1+CHI(1)=1+ALPHA*4*PI/V,   4*PI/V=   0.00259 BOHR**(-3)
 ALPHA IN BOHR**3; EPSILON AND CHI(1) ARE DIMENSIONLESS.
 *******************************************************************************

 DYNAMIC FIELD: RUN 10/ 10 - RADIATION WAVELENGTH: 1064.0000 NM

 *******************************************************************************

 ELECTRIC FIELD APPLIED ALONG CARTESIAN DIRECTION X

 *******************************************************************************
 THE NUMBER OF SYMMETRY OPERATORS HAS BEEN REDUCED FROM  4 TO  1

 NEW GRID IN RECIPROCAL SPACE
 *******************************************************************************
 POINTS IN THE IBZ                  14 SHRINKING FACTORS               3  3  3
 *******************************************************************************
 *** K POINTS COORDINATES (OBLIQUE COORDINATES IN UNITS OF SHRINK FAC. )
   1-R(  0  0  0)   2-C(  1  0  0)   3-C(  0  1  2)   4-C(  2  0  1)
   5-C(  0  2  0)   6-C(  1  1  0)   7-C(  1  1  1)   8-C(  1  0  1)
   9-C(  0  1  1)  10-C(  2  1  0)  11-C(  0  0  2)  12-C(  2  1  1)
  13-C(  2  1  2)  14-C(  2  2  1)

 GCALCO - MAX INDICES DIRECT LATTICE VECTOR    14    14    16
 NO.OF VECTORS CREATED 6999 STARS  485 RMAX   201.67655 BOHR
 TTTTTTTTTTTTTTTTTTTTTTTTTTTTTT gordsh1     TELAPSE   473121.96 TCPU   469133.46

 MATRIX SIZE: P(G) 1869048, F(G)  935288, P(G) IRR  936994, F(G) IRR  936994
 MAX G-VECTOR INDEX FOR 1- AND 2-ELECTRON INTEGRALS  59

 TTTTTTTTTTTTTTTTTTTTTTTTTTTTTT INPUT       TELAPSE   473122.30 TCPU   469133.81
 TTTTTTTTTTTTTTTTTTTTTTTTTTTTTT SYMM        TELAPSE   473122.30 TCPU   469133.81

 ***** NEW REFERENCE GEOMETRY *****
 TTTTTTTTTTTTTTTTTTTTTTTTTTTTTT INT_SCREEN  TELAPSE   473122.32 TCPU   469133.82
 INFORMATION **** EXCBUF **** EXCH. BIPO BUFFER: WORDS USED =           0

 DFT PARAMETERS

     ATOM       ELECTRONS   NET CHARGE   R(ANGSTROM)
   1   1  H       1.0000      0.0000     1.11000000
  13   6  C       6.0000      0.0000     0.77000000
  37   7  N       7.0000      0.0000     0.74000000
  57  17  CL     17.0000      0.0000     0.99000000
  61  30  ZN     30.0000      0.0000     1.37000000

 SIZE OF GRID=    1814544
 TTTTTTTTTTTTTTTTTTTTTTTTTTTTTT MAKE_GRID2  TELAPSE   473124.76 TCPU   469136.25
 BECKE WEIGHT FUNCTION
 RADSAFE =     2.00
 TOLERANCES - DENSITY:10**- 6; POTENTIAL:10**- 9; GRID WGT:10**-14

 RADIAL INTEGRATION  - INTERVALS (POINTS,UPPER LIMIT):            1( 75,  4.0*R)

 ANGULAR INTEGRATION - INTERVALS (ACCURACY LEVEL [N. POINTS] UPPER LIMIT):
  1(  4[  86]   0.2)  2(  8[ 194]   0.5)  3( 12[ 350]   0.9)  4( 16[ 974]   3.5)
  5( 12[ 350]9999.0)
 TTTTTTTTTTTTTTTTTTTTTTTTTTTTTT INT_CALC    TELAPSE   473124.87 TCPU   469136.36
 CYCLE   0   ALPHA 1382.741781  EPSILON    4.583217  DELTA    1.3827E+03
 TTTTTTTTTTTTTTTTTTTTTTTTTTTTTT MOQGAD      TELAPSE   474745.57 TCPU   470749.09
 TTTTTTTTTTTTTTTTTTTTTTTTTTTTTT CP_MONMON   TELAPSE   474779.18 TCPU   470782.59
 DIIS TEST: 0.32973E+03 AT CPHF  CYCLE   1 - MIX    0 %
 CYCLE   1   ALPHA  212.750166  EPSILON    1.551318  DELTA   -1.1700E+03
 TTTTTTTTTTTTTTTTTTTTTTTTTTTTTT MOQGAD      TELAPSE   476407.46 TCPU   472402.77
 TTTTTTTTTTTTTTTTTTTTTTTTTTTTTT CP_MONMON   TELAPSE   476441.09 TCPU   472436.33
 DIIS TEST: 0.27629E+04 AT CPHF  CYCLE   2 - DIIS ACTIVE - HISTORY:     2 CYCLES
 CYCLE   2   ALPHA  936.819763  EPSILON    3.427661  DELTA    7.2407E+02
 TTTTTTTTTTTTTTTTTTTTTTTTTTTTTT MOQGAD      TELAPSE   478070.37 TCPU   474057.58
 TTTTTTTTTTTTTTTTTTTTTTTTTTTTTT CP_MONMON   TELAPSE   478104.19 TCPU   474091.25
 DIIS TEST: 0.56549E+02 AT CPHF  CYCLE   3 - DIIS ACTIVE - HISTORY:     3 CYCLES
 CYCLE   3   ALPHA  988.063262  EPSILON    3.560453  DELTA    5.1243E+01
 TTTTTTTTTTTTTTTTTTTTTTTTTTTTTT MOQGAD      TELAPSE   479733.53 TCPU   475711.37
 TTTTTTTTTTTTTTTTTTTTTTTTTTTTTT CP_MONMON   TELAPSE   479767.05 TCPU   475744.78
 DIIS TEST: 0.60296E+01 AT CPHF  CYCLE   4 - DIIS ACTIVE - HISTORY:     4 CYCLES
 CYCLE   4   ALPHA 1000.432945  EPSILON    3.592507  DELTA    1.2370E+01
 TTTTTTTTTTTTTTTTTTTTTTTTTTTTTT MOQGAD      TELAPSE   481394.75 TCPU   477365.23
 TTTTTTTTTTTTTTTTTTTTTTTTTTTTTT CP_MONMON   TELAPSE   481428.38 TCPU   477398.77
 DIIS TEST: 0.10167E+01 AT CPHF  CYCLE   5 - DIIS ACTIVE - HISTORY:     5 CYCLES
 CYCLE   5   ALPHA 1004.700113  EPSILON    3.603565  DELTA    4.2672E+00
 TTTTTTTTTTTTTTTTTTTTTTTTTTTTTT MOQGAD      TELAPSE   483059.76 TCPU   479024.43
 TTTTTTTTTTTTTTTTTTTTTTTTTTTTTT CP_MONMON   TELAPSE   483093.37 TCPU   479057.93
 DIIS TEST: 0.13836E+00 AT CPHF  CYCLE   6 - DIIS ACTIVE - HISTORY:     6 CYCLES
 CYCLE   6   ALPHA 1006.399337  EPSILON    3.607968  DELTA    1.6992E+00
 TTTTTTTTTTTTTTTTTTTTTTTTTTTTTT MOQGAD      TELAPSE   484760.29 TCPU   480716.27
 TTTTTTTTTTTTTTTTTTTTTTTTTTTTTT CP_MONMON   TELAPSE   484794.10 TCPU   480750.01
 DIIS TEST: 0.12283E-01 AT CPHF  CYCLE   7 - DIIS ACTIVE - HISTORY:     7 CYCLES
 CYCLE   7   ALPHA 1006.641596  EPSILON    3.608596  DELTA    2.4226E-01
 TTTTTTTTTTTTTTTTTTTTTTTTTTTTTT MOQGAD      TELAPSE   486526.23 TCPU   482471.23
 TTTTTTTTTTTTTTTTTTTTTTTTTTTTTT CP_MONMON   TELAPSE   486559.83 TCPU   482504.71
 DIIS TEST: 0.38253E-02 AT CPHF  CYCLE   8 - DIIS ACTIVE - HISTORY:     8 CYCLES
 CYCLE   8   ALPHA 1006.673184  EPSILON    3.608678  DELTA    3.1588E-02
 TTTTTTTTTTTTTTTTTTTTTTTTTTTTTT MOQGAD      TELAPSE   488287.81 TCPU   484222.39
 TTTTTTTTTTTTTTTTTTTTTTTTTTTTTT CP_MONMON   TELAPSE   488321.64 TCPU   484256.10
 DIIS TEST: 0.11901E-01 AT CPHF  CYCLE   9 - DIIS ACTIVE - HISTORY:     9 CYCLES
 CYCLE   9   ALPHA 1006.735635  EPSILON    3.608840  DELTA    6.2450E-02
 TTTTTTTTTTTTTTTTTTTTTTTTTTTTTT MOQGAD      TELAPSE   490047.16 TCPU   485975.17
 TTTTTTTTTTTTTTTTTTTTTTTTTTTTTT CP_MONMON   TELAPSE   490080.77 TCPU   486008.67
 DIIS TEST: 0.27719E-03 AT CPHF  CYCLE  10 - DIIS ACTIVE - HISTORY:    10 CYCLES
 CYCLE  10   ALPHA 1006.709683  EPSILON    3.608773  DELTA   -2.5952E-02
 TTTTTTTTTTTTTTTTTTTTTTTTTTTTTT MOQGAD      TELAPSE   491819.88 TCPU   487736.88
 TTTTTTTTTTTTTTTTTTTTTTTTTTTTTT CP_MONMON   TELAPSE   491853.47 TCPU   487770.40
 DIIS TEST: 0.32695E-04 AT CPHF  CYCLE  11 - DIIS ACTIVE - HISTORY:    11 CYCLES
 CYCLE  11   ALPHA 1006.690786  EPSILON    3.608724  DELTA   -1.8897E-02
 TTTTTTTTTTTTTTTTTTTTTTTTTTTTTT MOQGAD      TELAPSE   493535.51 TCPU   489441.22
 TTTTTTTTTTTTTTTTTTTTTTTTTTTTTT CP_MONMON   TELAPSE   493569.10 TCPU   489474.71
 DIIS TEST: 0.48092E-05 AT CPHF  CYCLE  12 - DIIS ACTIVE - HISTORY:    12 CYCLES
 CYCLE  12   ALPHA 1006.682918  EPSILON    3.608703  DELTA   -7.8678E-03
 TTTTTTTTTTTTTTTTTTTTTTTTTTTTTT MOQGAD      TELAPSE   495279.75 TCPU   491178.81
 TTTTTTTTTTTTTTTTTTTTTTTTTTTTTT CP_MONMON   TELAPSE   495313.40 TCPU   491212.37
 DIIS TEST: 0.92400E-06 AT CPHF  CYCLE  13 - DIIS ACTIVE - HISTORY:    13 CYCLES
 CYCLE  13   ALPHA 1006.681841  EPSILON    3.608701  DELTA   -1.0774E-03
 TTTTTTTTTTTTTTTTTTTTTTTTTTTTTT MOQGAD      TELAPSE   497024.10 TCPU   492914.99
 TTTTTTTTTTTTTTTTTTTTTTTTTTTTTT CP_MONMON   TELAPSE   497057.64 TCPU   492948.44
 DIIS TEST: 0.73763E-07 AT CPHF  CYCLE  14 - DIIS ACTIVE - HISTORY:    14 CYCLES
 CYCLE  14   ALPHA 1006.681107  EPSILON    3.608699  DELTA   -7.3415E-04
 TTTTTTTTTTTTTTTTTTTTTTTTTTTTTT CP_SC       TELAPSE   497107.42 TCPU   492995.27

 *******************************************************************************

 ELECTRIC FIELD APPLIED ALONG CARTESIAN DIRECTION Z

 *******************************************************************************
 THE NUMBER OF SYMMETRY OPERATORS HAS BEEN REDUCED FROM  4 TO  2

 NEW GRID IN RECIPROCAL SPACE
 *******************************************************************************
 POINTS IN THE IBZ                  10 SHRINKING FACTORS               3  3  3
 *******************************************************************************
 *** K POINTS COORDINATES (OBLIQUE COORDINATES IN UNITS OF SHRINK FAC. )
   1-R(  0  0  0)   2-C(  1  0  0)   3-C(  2  0  1)   4-C(  1  1  0)
   5-C(  1  0  1)   6-C(  2  1  0)   7-C(  0  0  2)   8-C(  2  1  1)
   9-C(  2  1  2)  10-C(  2  2  1)

 GCALCO - MAX INDICES DIRECT LATTICE VECTOR    14    14    16
 NO.OF VECTORS CREATED 6999 STARS  485 RMAX   201.67655 BOHR
 TTTTTTTTTTTTTTTTTTTTTTTTTTTTTT gordsh1     TELAPSE   497107.44 TCPU   492995.28

 MATRIX SIZE: P(G) 1869048, F(G)  935288, P(G) IRR  471158, F(G) IRR  471158
 MAX G-VECTOR INDEX FOR 1- AND 2-ELECTRON INTEGRALS  59

 TTTTTTTTTTTTTTTTTTTTTTTTTTTTTT INPUT       TELAPSE   497107.53 TCPU   492995.37
 TTTTTTTTTTTTTTTTTTTTTTTTTTTTTT SYMM        TELAPSE   497107.53 TCPU   492995.37

 ***** NEW REFERENCE GEOMETRY *****
 TTTTTTTTTTTTTTTTTTTTTTTTTTTTTT INT_SCREEN  TELAPSE   497107.54 TCPU   492995.38
 INFORMATION **** EXCBUF **** EXCH. BIPO BUFFER: WORDS USED =           0

 DFT PARAMETERS

     ATOM       ELECTRONS   NET CHARGE   R(ANGSTROM)
   1   1  H       1.0000      0.0000     1.11000000
  13   6  C       6.0000      0.0000     0.77000000
  37   7  N       7.0000      0.0000     0.74000000
  57  17  CL     17.0000      0.0000     0.99000000
  61  30  ZN     30.0000      0.0000     1.37000000

 SIZE OF GRID=     907384
 TTTTTTTTTTTTTTTTTTTTTTTTTTTTTT MAKE_GRID2  TELAPSE   497109.09 TCPU   492996.92
 BECKE WEIGHT FUNCTION
 RADSAFE =     2.00
 TOLERANCES - DENSITY:10**- 6; POTENTIAL:10**- 9; GRID WGT:10**-14

 RADIAL INTEGRATION  - INTERVALS (POINTS,UPPER LIMIT):            1( 75,  4.0*R)

 ANGULAR INTEGRATION - INTERVALS (ACCURACY LEVEL [N. POINTS] UPPER LIMIT):
  1(  4[  86]   0.2)  2(  8[ 194]   0.5)  3( 12[ 350]   0.9)  4( 16[ 974]   3.5)
  5( 12[ 350]9999.0)
 TTTTTTTTTTTTTTTTTTTTTTTTTTTTTT INT_CALC    TELAPSE   497109.16 TCPU   492996.99
 CYCLE   0   ALPHA  654.928666  EPSILON    2.697173  DELTA    6.5493E+02
 TTTTTTTTTTTTTTTTTTTTTTTTTTTTTT MOQGAD      TELAPSE   497944.38 TCPU   493829.85
 TTTTTTTTTTTTTTTTTTTTTTTTTTTTTT CP_MONMON   TELAPSE   497962.41 TCPU   493847.83
 DIIS TEST: 0.72977E+02 AT CPHF  CYCLE   1 - MIX    0 %
 CYCLE   1   ALPHA  357.390420  EPSILON    1.926136  DELTA   -2.9754E+02
 TTTTTTTTTTTTTTTTTTTTTTTTTTTTTT MOQGAD      TELAPSE   498821.96 TCPU   494699.22
 TTTTTTTTTTTTTTTTTTTTTTTTTTTTTT CP_MONMON   TELAPSE   498839.96 TCPU   494717.15
 DIIS TEST: 0.45966E+03 AT CPHF  CYCLE   2 - DIIS ACTIVE - HISTORY:     2 CYCLES
 CYCLE   2   ALPHA  490.154799  EPSILON    2.270180  DELTA    1.3276E+02
 TTTTTTTTTTTTTTTTTTTTTTTTTTTTTT MOQGAD      TELAPSE   499678.76 TCPU   495549.85
 TTTTTTTTTTTTTTTTTTTTTTTTTTTTTT CP_MONMON   TELAPSE   499696.90 TCPU   495567.92
 DIIS TEST: 0.28495E+02 AT CPHF  CYCLE   3 - DIIS ACTIVE - HISTORY:     3 CYCLES
 CYCLE   3   ALPHA  520.088394  EPSILON    2.347749  DELTA    2.9934E+01
 TTTTTTTTTTTTTTTTTTTTTTTTTTTTTT MOQGAD      TELAPSE   500542.36 TCPU   496407.99
 TTTTTTTTTTTTTTTTTTTTTTTTTTTTTT CP_MONMON   TELAPSE   500560.51 TCPU   496426.08
 DIIS TEST: 0.21974E+03 AT CPHF  CYCLE   4 - DIIS ACTIVE - HISTORY:     4 CYCLES
 CYCLE   4   ALPHA  521.333177  EPSILON    2.350975  DELTA    1.2448E+00
 TTTTTTTTTTTTTTTTTTTTTTTTTTTTTT MOQGAD      TELAPSE   501413.64 TCPU   497274.18
 TTTTTTTTTTTTTTTTTTTTTTTTTTTTTT CP_MONMON   TELAPSE   501431.78 TCPU   497292.26
 DIIS TEST: 0.77565E+01 AT CPHF  CYCLE   5 - DIIS ACTIVE - HISTORY:     5 CYCLES
 CYCLE   5   ALPHA  522.523383  EPSILON    2.354059  DELTA    1.1902E+00
 TTTTTTTTTTTTTTTTTTTTTTTTTTTTTT MOQGAD      TELAPSE   502272.79 TCPU   498129.68
 TTTTTTTTTTTTTTTTTTTTTTTTTTTTTT CP_MONMON   TELAPSE   502290.95 TCPU   498147.78
 DIIS TEST: 0.84226E+00 AT CPHF  CYCLE   6 - DIIS ACTIVE - HISTORY:     6 CYCLES
 CYCLE   6   ALPHA  522.777154  EPSILON    2.354717  DELTA    2.5377E-01
 TTTTTTTTTTTTTTTTTTTTTTTTTTTTTT MOQGAD      TELAPSE   503128.61 TCPU   498980.98
 TTTTTTTTTTTTTTTTTTTTTTTTTTTTTT CP_MONMON   TELAPSE   503146.63 TCPU   498998.93
 DIIS TEST: 0.13372E+01 AT CPHF  CYCLE   7 - DIIS ACTIVE - HISTORY:     7 CYCLES
 CYCLE   7   ALPHA  522.707671  EPSILON    2.354537  DELTA   -6.9482E-02
 TTTTTTTTTTTTTTTTTTTTTTTTTTTTTT MOQGAD      TELAPSE   503984.22 TCPU   499832.41
 TTTTTTTTTTTTTTTTTTTTTTTTTTTTTT CP_MONMON   TELAPSE   504002.35 TCPU   499850.46
 DIIS TEST: 0.80861E+00 AT CPHF  CYCLE   8 - DIIS ACTIVE - HISTORY:     8 CYCLES
 CYCLE   8   ALPHA  522.944868  EPSILON    2.355152  DELTA    2.3720E-01
 TTTTTTTTTTTTTTTTTTTTTTTTTTTTTT MOQGAD      TELAPSE   504843.72 TCPU   500686.01
 TTTTTTTTTTTTTTTTTTTTTTTTTTTTTT CP_MONMON   TELAPSE   504861.89 TCPU   500704.13
 DIIS TEST: 0.12010E+00 AT CPHF  CYCLE   9 - DIIS ACTIVE - HISTORY:     9 CYCLES
 CYCLE   9   ALPHA  522.992138  EPSILON    2.355274  DELTA    4.7269E-02
 TTTTTTTTTTTTTTTTTTTTTTTTTTTTTT MOQGAD      TELAPSE   505719.64 TCPU   501557.05
 TTTTTTTTTTTTTTTTTTTTTTTTTTTTTT CP_MONMON   TELAPSE   505737.79 TCPU   501575.15
 DIIS TEST: 0.12164E+00 AT CPHF  CYCLE  10 - DIIS ACTIVE - HISTORY:    10 CYCLES
 CYCLE  10   ALPHA  522.986895  EPSILON    2.355261  DELTA   -5.2429E-03
 TTTTTTTTTTTTTTTTTTTTTTTTTTTTTT MOQGAD      TELAPSE   506576.09 TCPU   502408.85
 TTTTTTTTTTTTTTTTTTTTTTTTTTTTTT CP_MONMON   TELAPSE   506594.16 TCPU   502426.86
 DIIS TEST: 0.12709E+00 AT CPHF  CYCLE  11 - DIIS ACTIVE - HISTORY:    11 CYCLES
 CYCLE  11   ALPHA  522.933039  EPSILON    2.355121  DELTA   -5.3856E-02
 TTTTTTTTTTTTTTTTTTTTTTTTTTTTTT MOQGAD      TELAPSE   507432.16 TCPU   503260.33
 TTTTTTTTTTTTTTTTTTTTTTTTTTTTTT CP_MONMON   TELAPSE   507450.33 TCPU   503278.45
 DIIS TEST: 0.10354E+00 AT CPHF  CYCLE  12 - DIIS ACTIVE - HISTORY:    12 CYCLES
 CYCLE  12   ALPHA  523.068392  EPSILON    2.355472  DELTA    1.3535E-01
 TTTTTTTTTTTTTTTTTTTTTTTTTTTTTT MOQGAD      TELAPSE   508318.07 TCPU   504143.03
 TTTTTTTTTTTTTTTTTTTTTTTTTTTTTT CP_MONMON   TELAPSE   508336.19 TCPU   504161.08
 DIIS TEST: 0.22746E-01 AT CPHF  CYCLE  13 - DIIS ACTIVE - HISTORY:    13 CYCLES
 CYCLE  13   ALPHA  523.111719  EPSILON    2.355584  DELTA    4.3328E-02
 TTTTTTTTTTTTTTTTTTTTTTTTTTTTTT MOQGAD      TELAPSE   509178.43 TCPU   504998.57
 TTTTTTTTTTTTTTTTTTTTTTTTTTTTTT CP_MONMON   TELAPSE   509196.58 TCPU   505016.65
 DIIS TEST: 0.62786E-02 AT CPHF  CYCLE  14 - DIIS ACTIVE - HISTORY:    14 CYCLES
 CYCLE  14   ALPHA  523.098456  EPSILON    2.355550  DELTA   -1.3263E-02
 TTTTTTTTTTTTTTTTTTTTTTTTTTTTTT MOQGAD      TELAPSE   510068.03 TCPU   505884.36
 TTTTTTTTTTTTTTTTTTTTTTTTTTTTTT CP_MONMON   TELAPSE   510086.18 TCPU   505902.45
 DIIS TEST: 0.15856E-01 AT CPHF  CYCLE  15 - DIIS ACTIVE - HISTORY:    15 CYCLES
 CYCLE  15   ALPHA  523.069756  EPSILON    2.355475  DELTA   -2.8700E-02
 TTTTTTTTTTTTTTTTTTTTTTTTTTTTTT MOQGAD      TELAPSE   510957.72 TCPU   506769.07
 TTTTTTTTTTTTTTTTTTTTTTTTTTTTTT CP_MONMON   TELAPSE   510975.83 TCPU   506787.14
 DIIS TEST: 0.78424E-01 AT CPHF  CYCLE  16 - DIIS ACTIVE - HISTORY:    16 CYCLES
 CYCLE  16   ALPHA  523.081766  EPSILON    2.355506  DELTA    1.2010E-02
 TTTTTTTTTTTTTTTTTTTTTTTTTTTTTT MOQGAD      TELAPSE   511818.65 TCPU   507626.21
 TTTTTTTTTTTTTTTTTTTTTTTTTTTTTT CP_MONMON   TELAPSE   511836.80 TCPU   507644.32
 DIIS TEST: 0.64987E-01 AT CPHF  CYCLE  17 - DIIS ACTIVE - HISTORY:    17 CYCLES
 CYCLE  17   ALPHA  523.084003  EPSILON    2.355512  DELTA    2.2366E-03
 TTTTTTTTTTTTTTTTTTTTTTTTTTTTTT MOQGAD      TELAPSE   512697.06 TCPU   508500.12
 TTTTTTTTTTTTTTTTTTTTTTTTTTTTTT CP_MONMON   TELAPSE   512715.23 TCPU   508518.24
 DIIS TEST: 0.10342E-01 AT CPHF  CYCLE  18 - DIIS ACTIVE - HISTORY:    18 CYCLES
 CYCLE  18   ALPHA  523.082132  EPSILON    2.355507  DELTA   -1.8704E-03
 TTTTTTTTTTTTTTTTTTTTTTTTTTTTTT MOQGAD      TELAPSE   513552.53 TCPU   509352.58
 TTTTTTTTTTTTTTTTTTTTTTTTTTTTTT CP_MONMON   TELAPSE   513570.64 TCPU   509370.64
 DIIS TEST: 0.41207E-02 AT CPHF  CYCLE  19 - DIIS ACTIVE - HISTORY:    19 CYCLES
 CYCLE  19   ALPHA  523.082673  EPSILON    2.355509  DELTA    5.4077E-04
 TTTTTTTTTTTTTTTTTTTTTTTTTTTTTT CP_SC       TELAPSE   513606.22 TCPU   509403.04

 *******************************************************************************

 POLARIZABILITY (ALPHA), DIELECTRIC (EPSILON) AND FIRST-ORDER ELECTRIC
 SUSCEPTIBILITY (CHI(1)) TENSORS (INDEPENDENT COMPONENTS)

  FR.(eV) COMP.   ALPHA(Re,Im)           EPSILON(Re,Im)                CHI(1)
  1.165   XX    1006.6811       0.0000       3.6087       0.0000       2.6087
  1.165   ZZ     523.0827       0.0000       2.3555       0.0000       1.3555

 DIELECTRIC TENSOR

 TENSOR IN PRINCIPAL AXES SYSTEM
 AA  3.608699E+00 BB  3.608699E+00 CC  2.355509E+00

 REFRACTIVE INDICES 
 AA  1.534767E+00 BB  1.899658E+00 CC  1.899658E+00

 OPTICALLY ANISOTROPIC - UNIAXIAL CRYSTAL

 BIREFRINGENCE =  0.3649 (NEGATIVE) - OBLATE OPTICAL ELLIPSOID

 EPSILON=N**2=1+CHI(1)=1+ALPHA*4*PI/V,   4*PI/V=   0.00259 BOHR**(-3)
 ALPHA IN BOHR**3; EPSILON AND CHI(1) ARE DIMENSIONLESS.
 *******************************************************************************


 GCALCO - MAX INDICES DIRECT LATTICE VECTOR    14    14    16
 NO.OF VECTORS CREATED 6999 STARS  485 RMAX   201.67655 BOHR

 CAPPA:IS1  3;IS2  3;IS3  3; K PTS MONK NET   6; SYMMOPS:K SPACE   8;G SPACE   4

 TTTTTTTTTTTTTTTTTTTTTTTTTTTTTT END         TELAPSE   513606.28 TCPU   509403.04
 EEEEEEEEEE TERMINATION  DATE 09 12 2023 TIME 10:44:46.4
NODE    0 CPU TIME =    509403.044
NODE    1 CPU TIME =    510433.302
NODE    2 CPU TIME =    509952.326
NODE    3 CPU TIME =    509807.260
NODE    4 CPU TIME =    510046.850
NODE    5 CPU TIME =    510555.483
NODE    6 CPU TIME =    510114.996
NODE    7 CPU TIME =    509681.880
NODE    8 CPU TIME =    510002.772
NODE    9 CPU TIME =    510769.643
NODE   10 CPU TIME =    509916.569
NODE   11 CPU TIME =    509579.777
NODE   12 CPU TIME =    509558.075
NODE   13 CPU TIME =    510022.760
NODE   14 CPU TIME =    509356.383
NODE   15 CPU TIME =    509119.269
NODE   16 CPU TIME =    509318.018
NODE   17 CPU TIME =    509678.389
NODE   18 CPU TIME =    509191.542
NODE   19 CPU TIME =    509067.712
NODE   20 CPU TIME =    509198.974
NODE   21 CPU TIME =    509642.577
NODE   22 CPU TIME =    509062.296
NODE   23 CPU TIME =    508059.397
    TOTAL CPU TIME =  12231539.293
trying normal rsh (/usr/bin/rsh)
exec: No such file or directory
trying normal rsh (/usr/bin/rsh)
exec: No such file or directory
trying normal rsh (/usr/bin/rsh)
exec: No such file or directory
trying normal rsh (/usr/bin/rsh)
exec: No such file or directory
