Loading crystal17/1.0.2/intel/19.0
  Loading requirement: intel/19.0 ompi/4.0.1/intel/19.0
 PROCESS            4  OF           24  WORKING
 PROCESS            5  OF           24  WORKING
 PROCESS            9  OF           24  WORKING
 PROCESS           11  OF           24  WORKING
 PROCESS           12  OF           24  WORKING
 PROCESS           13  OF           24  WORKING
 PROCESS           14  OF           24  WORKING
 PROCESS           15  OF           24  WORKING
 PROCESS           18  OF           24  WORKING
 PROCESS           19  OF           24  WORKING
 PROCESS           21  OF           24  WORKING
 PROCESS           22  OF           24  WORKING
 PROCESS            0  OF           24  WORKING
 PROCESS            1  OF           24  WORKING
 PROCESS            2  OF           24  WORKING
 PROCESS            3  OF           24  WORKING
 PROCESS           23  OF           24  WORKING
 PROCESS            6  OF           24  WORKING
 PROCESS            7  OF           24  WORKING
 PROCESS           10  OF           24  WORKING
 PROCESS           16  OF           24  WORKING
 PROCESS           17  OF           24  WORKING
 PROCESS           20  OF           24  WORKING
 PROCESS            8  OF           24  WORKING

         
 *******************************************************************************
 *                                                                             *
 *                               CRYSTAL17                                     *
 *                      public : 1.0.2 - March 1st, 2018                       *
 *                       HTTP://WWW.CRYSTAL.UNITO.IT                           *
 *                                                                             *
 *                              MAIN AUTHORS                                   *
 *                                                                             *
 *  R. DOVESI(1,11), V.R. SAUNDERS(2), C. ROETTI(1,11), R. ORLANDO(1,11),      *
 *  C.M. ZICOVICH-WILSON(1,3), F. PASCALE(4), B. CIVALLERI(1,11),              *
 *  K. DOLL(5), N.M. HARRISON(2,6), I.J. BUSH(7), Ph. D'ARCO(8),               *
 *  M. LLUNELL(9), M. CAUSA'(10), Y. NOEL(8), L. MASCHIO(1,11), A. ERBA(1,11)  *
 *  M. RE'RAT(14), S. CASASSA(1,11)                                            *
 *                                                                             *
 *        CONTRIBUTIONS TO THE CODE HAVE ALSO BEEN GIVEN BY                    *
 *                                                                             *
 *  M. FERRABONE(1,11), M. DE LA PIERRE(1,11), M. FERRERO(1,11),               *
 *  J. BAIMA(1,11), E. ALBANESE(1,11), M.F. PEINTINGER(12), R. BAST(13),       *
 *  B. KIRTMAN(15), V. LACIVITA(1,11), R. DEMICHELIS(1,16)                     *
 *  G. BRANDEBURG(17), S. SALUSTRO(1,11), G. SANSONE(1,11)                     *
 *  M.T. RUGGIERO(18)                                                          *
 *                                                                             *
 * (1) THEORETICAL CHEMISTRY GROUP - UNIVERSITA' DI TORINO - TORINO (ITALY)    *
 * (2) COMPUTATIONAL SCIENCE & ENGINEERING DEPARTMENT - STFC DARESBURY (UK)    *
 * (3) UNIVERSIDAD AUTONOMA DEL ESTADO DE MORELOS - CUERNAVACA (MEXICO)        *
 * (4) UNIVERSITE' DE LORRAINE - NANCY (FRANCE)                                *
 * (5) UNIVERSITAET STUTTGART- STUTTGART (GERMANY)                             *
 * (6) IMPERIAL COLLEGE - LONDON (UK)                                          *
 * (7) OXFORD E-RESEARCH CENTRE - OXFORD (UK)                                  *
 * (8) UPMC - SORBONNE UNIVERSITES - PARIS (FRANCE)                            *
 * (9) UNIVERSIDAD DE BARCELONA - BARCELONA (SPAIN)                            *
 *(10) UNIVERSITA' DI NAPOLI "FEDERICO II" - NAPOLI (ITALY)                    *
 *(11) NIS - NANOSTRUCTURED INTERFACES AND SURFACES - TORINO (ITALY)           *
 *(12) MPI FUER CHEMISCHE ENERGIEKONVERSION - MUELHEIM AN DER RUHR (GERMANY)   *
 *(13) UNIVERSITY OF TROMSO - TROMSO (NORWAY)                                  *
 *(14) UNIVERSITE' DE PAU ET DES PAYS DE L'ADOUR - PAU (FRANCE)                *
 *(15) UNIVERSITY OF CALIFORNIA SANTA BARBARA - SANTA BARBARA (USA)            *
 *(16) CURTIN UNIVERSITY - PERTH (AUSTRALIA)                                   *
 *(17) UNIVERSITY COLLEGE LONDON - LONDON (UK)                                 *
 *(18) CAMBRIDGE UNIVERSITY - CAMBRIDGE (UK)                                   *
 *                                                                             *
 *******************************************************************************
 EEEEEEEEEE STARTING  DATE 03 12 2023 TIME 12:50:18.4
 Z:\home\sanoj\Downloads\tmp_p\newconn.mol                                       

 CRYSTAL CALCULATION
 (INPUT ACCORDING TO THE INTERNATIONAL TABLES FOR X-RAY CRYSTALLOGRAPHY)
 CRYSTAL FAMILY                       :  TETRAGONAL  
 CRYSTAL CLASS  (GROTH - 1921)        :  TETRAGONAL DISPHENOIDAL              

 SPACE GROUP (NONCENTROSYMMETRIC)     :  I -4            

 LATTICE PARAMETERS  (ANGSTROMS AND DEGREES) - CONVENTIONAL CELL
        A           B           C        ALPHA        BETA       GAMMA
    10.75202    10.75202    12.61687    90.00000    90.00000    90.00000


 NUMBER OF IRREDUCIBLE ATOMS IN THE CONVENTIONAL CELL:   17

 INPUT COORDINATES

 ATOM AT. N.              COORDINATES
   1   1     6.036000000000E-02  7.761200000000E-01  3.793500000000E-01
   2   1     4.636600000000E-01  8.006600000000E-01  3.930500000000E-01
   3   1     8.493000000000E-02  5.436100000000E-01  3.772400000000E-01
   4   6     2.604500000000E-01  8.079900000000E-01  3.847400000000E-01
   5   6     2.526700000000E-01 -5.772000000000E-02  3.789600000000E-01
   6   6     1.526800000000E-01  7.337700000000E-01  3.823300000000E-01
   7   6     2.862200000000E-01  5.563200000000E-01  3.754600000000E-01
   8   6     3.766400000000E-01  7.480700000000E-01  3.867700000000E-01
   9   6     8.347900000000E-01  3.946200000000E-01  3.798200000000E-01
  10   7     3.417100000000E-01  1.795000000000E-02  3.376600000000E-01
  11   7     2.963800000000E-01  1.375700000000E-01  3.440400000000E-01
  12   7     1.548500000000E-01  1.333000000000E-02  4.098900000000E-01
  13   7     1.844400000000E-01  1.348400000000E-01  3.862100000000E-01
  14   7     3.891800000000E-01  6.244700000000E-01  3.802000000000E-01
  15  17     3.030500000000E-01  3.968300000000E-01  3.597400000000E-01
  16  30     0.000000000000E+00  5.000000000000E-01  7.500000000000E-01
  17  30     0.000000000000E+00  0.000000000000E+00  5.000000000000E-01

 *******************************************************************************

 << INFORMATION >>: FROM NOW ON, ALL COORDINATES REFER TO THE PRIMITIVE CELL

 *******************************************************************************

 LATTICE PARAMETERS  (ANGSTROMS AND DEGREES) - PRIMITIVE CELL
       A          B          C        ALPHA      BETA     GAMMA        VOLUME
    9.87923    9.87923    9.87923   114.06372 114.06372 100.63171    729.291961

 COORDINATES OF THE EQUIVALENT ATOMS (FRACTIONAL UNITS)

 N. ATOM EQUIV AT. N.          X                  Y                  Z

   1   1   1    1 H     1.55470000000E-01  4.39710000000E-01 -1.63520000000E-01
   2   1   2    1 H    -3.96770000000E-01  3.18990000000E-01  1.63520000000E-01
   3   1   3    1 H    -4.39710000000E-01  3.96770000000E-01 -2.84240000000E-01
   4   1   4    1 H    -3.18990000000E-01 -1.55470000000E-01  2.84240000000E-01

   5   2   1    1 H     1.93710000000E-01 -1.43290000000E-01  2.64320000000E-01
   6   2   2    1 H    -4.07610000000E-01 -7.06100000000E-02 -2.64320000000E-01
   7   2   3    1 H     1.43290000000E-01  4.07610000000E-01  3.37000000000E-01
   8   2   4    1 H     7.06100000000E-02 -1.93710000000E-01 -3.37000000000E-01

   9   3   1    1 H    -7.91500000000E-02  4.62170000000E-01 -3.71460000000E-01
  10   3   2    1 H    -1.66370000000E-01  2.92310000000E-01  3.71460000000E-01
  11   3   3    1 H    -4.62170000000E-01  1.66370000000E-01  4.58680000000E-01
  12   3   4    1 H    -2.92310000000E-01  7.91500000000E-02 -4.58680000000E-01

  13   4   1    6 C     1.92730000000E-01 -3.54810000000E-01  6.84400000000E-02
  14   4   2    6 C    -4.23250000000E-01  1.24290000000E-01 -6.84400000000E-02
  15   4   3    6 C     3.54810000000E-01  4.23250000000E-01 -4.52460000000E-01
  16   4   4    6 C    -1.24290000000E-01 -1.92730000000E-01  4.52460000000E-01

  17   5   1    6 C     3.21240000000E-01 -3.68370000000E-01  1.94950000000E-01
  18   5   2    6 C     4.36680000000E-01  1.26290000000E-01 -1.94950000000E-01
  19   5   3    6 C     3.68370000000E-01 -4.36680000000E-01 -3.10390000000E-01
  20   5   4    6 C    -1.26290000000E-01 -3.21240000000E-01  3.10390000000E-01

  21   6   1    6 C     1.16100000000E-01 -4.64990000000E-01 -1.13550000000E-01
  22   6   2    6 C    -3.51440000000E-01  2.29650000000E-01  1.13550000000E-01
  23   6   3    6 C     4.64990000000E-01  3.51440000000E-01 -4.18910000000E-01
  24   6   4    6 C    -2.29650000000E-01 -1.16100000000E-01  4.18910000000E-01

  25   7   1    6 C    -6.82200000000E-02 -3.38320000000E-01 -1.57460000000E-01
  26   7   2    6 C    -1.80860000000E-01  8.92400000000E-02  1.57460000000E-01
  27   7   3    6 C     3.38320000000E-01  1.80860000000E-01  2.70100000000E-01
  28   7   4    6 C    -8.92400000000E-02  6.82200000000E-02 -2.70100000000E-01

  29   8   1    6 C     1.34840000000E-01 -2.36590000000E-01  1.24710000000E-01
  30   8   2    6 C    -3.61300000000E-01  1.01300000000E-02 -1.24710000000E-01
  31   8   3    6 C     2.36590000000E-01  3.61300000000E-01  3.71430000000E-01
  32   8   4    6 C    -1.01300000000E-02 -1.34840000000E-01 -3.71430000000E-01

  33   9   1    6 C    -2.25560000000E-01  2.14610000000E-01  2.29410000000E-01
  34   9   2    6 C    -1.48000000000E-02 -4.54970000000E-01 -2.29410000000E-01
  35   9   3    6 C    -2.14610000000E-01  1.48000000000E-02 -4.40170000000E-01
  36   9   4    6 C     4.54970000000E-01  2.25560000000E-01  4.40170000000E-01

  37  10   1    7 N     3.55610000000E-01 -3.20630000000E-01  3.59660000000E-01
  38  10   2    7 N     3.19710000000E-01 -4.05000000000E-03 -3.59660000000E-01
  39  10   3    7 N     3.20630000000E-01 -3.19710000000E-01 -3.23760000000E-01
  40  10   4    7 N     4.05000000000E-03 -3.55610000000E-01  3.23760000000E-01

  41  11   1    7 N     4.81610000000E-01 -3.59580000000E-01  4.33950000000E-01
  42  11   2    7 N     2.06470000000E-01  4.76600000000E-02 -4.33950000000E-01
  43  11   3    7 N     3.59580000000E-01 -2.06470000000E-01 -1.58810000000E-01
  44  11   4    7 N    -4.76600000000E-02 -4.81610000000E-01  1.58810000000E-01

  45  12   1    7 N     4.23220000000E-01 -4.35260000000E-01  1.68180000000E-01
  46  12   2    7 N     3.96560000000E-01  2.55040000000E-01 -1.68180000000E-01
  47  12   3    7 N     4.35260000000E-01 -3.96560000000E-01 -1.41520000000E-01
  48  12   4    7 N    -2.55040000000E-01 -4.23220000000E-01  1.41520000000E-01

  49  13   1    7 N    -4.78950000000E-01 -4.29350000000E-01  3.19280000000E-01
  50  13   2    7 N     2.51370000000E-01  2.01770000000E-01 -3.19280000000E-01
  51  13   3    7 N     4.29350000000E-01 -2.51370000000E-01 -4.96000000000E-02
  52  13   4    7 N    -2.01770000000E-01  4.78950000000E-01  4.96000000000E-02

  53  14   1    7 N     4.67000000000E-03 -2.30620000000E-01  1.36500000000E-02
  54  14   2    7 N    -2.44270000000E-01 -8.98000000000E-03 -1.36500000000E-02
  55  14   3    7 N     2.30620000000E-01  2.44270000000E-01  2.35290000000E-01
  56  14   4    7 N     8.98000000000E-03 -4.67000000000E-03 -2.35290000000E-01

  57  15   1   17 CL   -2.43430000000E-01 -3.37210000000E-01 -3.00120000000E-01
  58  15   2   17 CL   -3.70900000000E-02  5.66900000000E-02  3.00120000000E-01
  59  15   3   17 CL    3.37210000000E-01  3.70900000000E-02  9.37800000000E-02
  60  15   4   17 CL   -5.66900000000E-02  2.43430000000E-01 -9.37800000000E-02

  61  16   1   30 ZN    2.50000000000E-01 -2.50000000000E-01 -5.00000000000E-01

  62  17   1   30 ZN   -5.00000000000E-01 -5.00000000000E-01  0.00000000000E+00

 NUMBER OF SYMMETRY OPERATORS         :    4
 *******************************************************************************
 * GEOMETRY EDITING - INPUT COORDINATES ARE GIVEN IN ANGSTROM         
 *******************************************************************************

 GEOMETRY NOW FULLY CONSISTENT WITH THE GROUP

 GCALCO - MAX INDICES DIRECT LATTICE VECTOR    14    14    16
 NO.OF VECTORS CREATED 6999 STARS  486 RMAX   202.59781 BOHR

 GEOMETRY FOR WAVE FUNCTION - DIMENSIONALITY OF THE SYSTEM    3
 (NON PERIODIC DIRECTION: LATTICE PARAMETER FORMALLY SET TO 500)
 *******************************************************************************
 LATTICE PARAMETERS (ANGSTROMS AND DEGREES) - BOHR = 0.5291772083 ANGSTROM
 PRIMITIVE CELL - CENTRING CODE 6/0 VOLUME=   729.291961 - DENSITY  1.931 g/cm^3
         A              B              C           ALPHA      BETA       GAMMA 
     9.87923422     9.87923422     9.87923422   114.063718 114.063718 100.631710
 *******************************************************************************
 ATOMS IN THE ASYMMETRIC UNIT   17 - ATOMS IN THE UNIT CELL:   62
     ATOM                 X/A                 Y/B                 Z/C    
 *******************************************************************************
      1 T   1 H     1.554700000000E-01  4.397100000000E-01 -1.635200000000E-01
      2 F   1 H    -3.967700000000E-01  3.189900000000E-01  1.635200000000E-01
      3 F   1 H    -4.397100000000E-01  3.967700000000E-01 -2.842400000000E-01
      4 F   1 H    -3.189900000000E-01 -1.554700000000E-01  2.842400000000E-01
      5 T   1 H     1.937100000000E-01 -1.432900000000E-01  2.643200000000E-01
      6 F   1 H    -4.076100000000E-01 -7.061000000000E-02 -2.643200000000E-01
      7 F   1 H     1.432900000000E-01  4.076100000000E-01  3.370000000000E-01
      8 F   1 H     7.061000000000E-02 -1.937100000000E-01 -3.370000000000E-01
      9 T   1 H    -7.915000000000E-02  4.621700000000E-01 -3.714600000000E-01
     10 F   1 H    -1.663700000000E-01  2.923100000000E-01  3.714600000000E-01
     11 F   1 H    -4.621700000000E-01  1.663700000000E-01  4.586800000000E-01
     12 F   1 H    -2.923100000000E-01  7.915000000000E-02 -4.586800000000E-01
     13 T   6 C     1.927300000000E-01 -3.548100000000E-01  6.844000000000E-02
     14 F   6 C    -4.232500000000E-01  1.242900000000E-01 -6.844000000000E-02
     15 F   6 C     3.548100000000E-01  4.232500000000E-01 -4.524600000000E-01
     16 F   6 C    -1.242900000000E-01 -1.927300000000E-01  4.524600000000E-01
     17 T   6 C     3.212400000000E-01 -3.683700000000E-01  1.949500000000E-01
     18 F   6 C     4.366800000000E-01  1.262900000000E-01 -1.949500000000E-01
     19 F   6 C     3.683700000000E-01 -4.366800000000E-01 -3.103900000000E-01
     20 F   6 C    -1.262900000000E-01 -3.212400000000E-01  3.103900000000E-01
     21 T   6 C     1.161000000000E-01 -4.649900000000E-01 -1.135500000000E-01
     22 F   6 C    -3.514400000000E-01  2.296500000000E-01  1.135500000000E-01
     23 F   6 C     4.649900000000E-01  3.514400000000E-01 -4.189100000000E-01
     24 F   6 C    -2.296500000000E-01 -1.161000000000E-01  4.189100000000E-01
     25 T   6 C    -6.822000000000E-02 -3.383200000000E-01 -1.574600000000E-01
     26 F   6 C    -1.808600000000E-01  8.924000000000E-02  1.574600000000E-01
     27 F   6 C     3.383200000000E-01  1.808600000000E-01  2.701000000000E-01
     28 F   6 C    -8.924000000000E-02  6.822000000000E-02 -2.701000000000E-01
     29 T   6 C     1.348400000000E-01 -2.365900000000E-01  1.247100000000E-01
     30 F   6 C    -3.613000000000E-01  1.013000000000E-02 -1.247100000000E-01
     31 F   6 C     2.365900000000E-01  3.613000000000E-01  3.714300000000E-01
     32 F   6 C    -1.013000000000E-02 -1.348400000000E-01 -3.714300000000E-01
     33 T   6 C    -2.255600000000E-01  2.146100000000E-01  2.294100000000E-01
     34 F   6 C    -1.480000000000E-02 -4.549700000000E-01 -2.294100000000E-01
     35 F   6 C    -2.146100000000E-01  1.480000000000E-02 -4.401700000000E-01
     36 F   6 C     4.549700000000E-01  2.255600000000E-01  4.401700000000E-01
     37 T   7 N     3.556100000000E-01 -3.206300000000E-01  3.596600000000E-01
     38 F   7 N     3.197100000000E-01 -4.050000000000E-03 -3.596600000000E-01
     39 F   7 N     3.206300000000E-01 -3.197100000000E-01 -3.237600000000E-01
     40 F   7 N     4.050000000000E-03 -3.556100000000E-01  3.237600000000E-01
     41 T   7 N     4.816100000000E-01 -3.595800000000E-01  4.339500000000E-01
     42 F   7 N     2.064700000000E-01  4.766000000000E-02 -4.339500000000E-01
     43 F   7 N     3.595800000000E-01 -2.064700000000E-01 -1.588100000000E-01
     44 F   7 N    -4.766000000000E-02 -4.816100000000E-01  1.588100000000E-01
     45 T   7 N     4.232200000000E-01 -4.352600000000E-01  1.681800000000E-01
     46 F   7 N     3.965600000000E-01  2.550400000000E-01 -1.681800000000E-01
     47 F   7 N     4.352600000000E-01 -3.965600000000E-01 -1.415200000000E-01
     48 F   7 N    -2.550400000000E-01 -4.232200000000E-01  1.415200000000E-01
     49 T   7 N    -4.789500000000E-01 -4.293500000000E-01  3.192800000000E-01
     50 F   7 N     2.513700000000E-01  2.017700000000E-01 -3.192800000000E-01
     51 F   7 N     4.293500000000E-01 -2.513700000000E-01 -4.960000000000E-02
     52 F   7 N    -2.017700000000E-01  4.789500000000E-01  4.960000000000E-02
     53 T   7 N     4.670000000000E-03 -2.306200000000E-01  1.365000000000E-02
     54 F   7 N    -2.442700000000E-01 -8.980000000000E-03 -1.365000000000E-02
     55 F   7 N     2.306200000000E-01  2.442700000000E-01  2.352900000000E-01
     56 F   7 N     8.980000000000E-03 -4.670000000000E-03 -2.352900000000E-01
     57 T  17 CL   -2.434300000000E-01 -3.372100000000E-01 -3.001200000000E-01
     58 F  17 CL   -3.709000000000E-02  5.669000000000E-02  3.001200000000E-01
     59 F  17 CL    3.372100000000E-01  3.709000000000E-02  9.378000000000E-02
     60 F  17 CL   -5.669000000000E-02  2.434300000000E-01 -9.378000000000E-02
     61 T  30 ZN    2.500000000000E-01 -2.500000000000E-01 -5.000000000000E-01
     62 T  30 ZN    5.000000000000E-01  5.000000000000E-01  0.000000000000E+00

 TRANSFORMATION MATRIX PRIMITIVE-CRYSTALLOGRAPHIC CELL
  0.0000  1.0000  1.0000  1.0000  0.0000  1.0000  1.0000  1.0000  0.0000

 *******************************************************************************
 CRYSTALLOGRAPHIC CELL (VOLUME=       1458.58392221)
         A              B              C           ALPHA      BETA       GAMMA 
    10.75201737    10.75201737    12.61686648    90.000000  90.000000  90.000000

 COORDINATES IN THE CRYSTALLOGRAPHIC CELL
     ATOM                 X/A                 Y/B                 Z/C    
 *******************************************************************************
      1 T   1 H     6.036000000000E-02 -2.238800000000E-01  3.793500000000E-01
      2 F   1 H    -6.036000000000E-02  2.238800000000E-01  3.793500000000E-01
      3 F   1 H    -2.238800000000E-01 -6.036000000000E-02 -3.793500000000E-01
      4 F   1 H     2.238800000000E-01  6.036000000000E-02 -3.793500000000E-01
      5 T   1 H    -3.634000000000E-02  3.006600000000E-01 -1.069500000000E-01
      6 F   1 H     3.634000000000E-02 -3.006600000000E-01 -1.069500000000E-01
      7 F   1 H     3.006600000000E-01  3.634000000000E-02  1.069500000000E-01
      8 F   1 H    -3.006600000000E-01 -3.634000000000E-02  1.069500000000E-01
      9 T   1 H    -4.150700000000E-01  4.361000000000E-02 -1.227600000000E-01
     10 F   1 H     4.150700000000E-01 -4.361000000000E-02 -1.227600000000E-01
     11 F   1 H     4.361000000000E-02  4.150700000000E-01  1.227600000000E-01
     12 F   1 H    -4.361000000000E-02 -4.150700000000E-01  1.227600000000E-01
     13 T   6 C    -2.395500000000E-01  3.079900000000E-01 -1.152600000000E-01
     14 F   6 C     2.395500000000E-01 -3.079900000000E-01 -1.152600000000E-01
     15 F   6 C     3.079900000000E-01  2.395500000000E-01  1.152600000000E-01
     16 F   6 C    -3.079900000000E-01 -2.395500000000E-01  1.152600000000E-01
     17 T   6 C     2.526700000000E-01 -5.772000000000E-02  3.789600000000E-01
     18 F   6 C    -2.526700000000E-01  5.772000000000E-02  3.789600000000E-01
     19 F   6 C    -5.772000000000E-02 -2.526700000000E-01 -3.789600000000E-01
     20 F   6 C     5.772000000000E-02  2.526700000000E-01 -3.789600000000E-01
     21 T   6 C    -3.473200000000E-01  2.337700000000E-01 -1.176700000000E-01
     22 F   6 C     3.473200000000E-01 -2.337700000000E-01 -1.176700000000E-01
     23 F   6 C     2.337700000000E-01  3.473200000000E-01  1.176700000000E-01
     24 F   6 C    -2.337700000000E-01 -3.473200000000E-01  1.176700000000E-01
     25 T   6 C    -2.137800000000E-01  5.632000000000E-02 -1.245400000000E-01
     26 F   6 C     2.137800000000E-01 -5.632000000000E-02 -1.245400000000E-01
     27 F   6 C     5.632000000000E-02  2.137800000000E-01  1.245400000000E-01
     28 F   6 C    -5.632000000000E-02 -2.137800000000E-01  1.245400000000E-01
     29 T   6 C    -1.233600000000E-01  2.480700000000E-01 -1.132300000000E-01
     30 F   6 C     1.233600000000E-01 -2.480700000000E-01 -1.132300000000E-01
     31 F   6 C     2.480700000000E-01  1.233600000000E-01  1.132300000000E-01
     32 F   6 C    -2.480700000000E-01 -1.233600000000E-01  1.132300000000E-01
     33 T   6 C     3.347900000000E-01 -1.053800000000E-01 -1.201800000000E-01
     34 F   6 C    -3.347900000000E-01  1.053800000000E-01 -1.201800000000E-01
     35 F   6 C    -1.053800000000E-01 -3.347900000000E-01  1.201800000000E-01
     36 F   6 C     1.053800000000E-01  3.347900000000E-01  1.201800000000E-01
     37 T   7 N     3.417100000000E-01  1.795000000000E-02  3.376600000000E-01
     38 F   7 N    -3.417100000000E-01 -1.795000000000E-02  3.376600000000E-01
     39 F   7 N     1.795000000000E-02 -3.417100000000E-01 -3.376600000000E-01
     40 F   7 N    -1.795000000000E-02  3.417100000000E-01 -3.376600000000E-01
     41 T   7 N    -2.036200000000E-01 -3.624300000000E-01 -1.559600000000E-01
     42 F   7 N     2.036200000000E-01  3.624300000000E-01 -1.559600000000E-01
     43 F   7 N    -3.624300000000E-01  2.036200000000E-01  1.559600000000E-01
     44 F   7 N     3.624300000000E-01 -2.036200000000E-01  1.559600000000E-01
     45 T   7 N     1.548500000000E-01  1.333000000000E-02  4.098900000000E-01
     46 F   7 N    -1.548500000000E-01 -1.333000000000E-02  4.098900000000E-01
     47 F   7 N     1.333000000000E-02 -1.548500000000E-01 -4.098900000000E-01
     48 F   7 N    -1.333000000000E-02  1.548500000000E-01 -4.098900000000E-01
     49 T   7 N    -3.155600000000E-01 -3.651600000000E-01 -1.137900000000E-01
     50 F   7 N     3.155600000000E-01  3.651600000000E-01 -1.137900000000E-01
     51 F   7 N    -3.651600000000E-01  3.155600000000E-01  1.137900000000E-01
     52 F   7 N     3.651600000000E-01 -3.155600000000E-01  1.137900000000E-01
     53 T   7 N    -1.108200000000E-01  1.244700000000E-01 -1.198000000000E-01
     54 F   7 N     1.108200000000E-01 -1.244700000000E-01 -1.198000000000E-01
     55 F   7 N     1.244700000000E-01  1.108200000000E-01  1.198000000000E-01
     56 F   7 N    -1.244700000000E-01 -1.108200000000E-01  1.198000000000E-01
     57 T  17 CL   -1.969500000000E-01 -1.031700000000E-01 -1.402600000000E-01
     58 F  17 CL    1.969500000000E-01  1.031700000000E-01 -1.402600000000E-01
     59 F  17 CL   -1.031700000000E-01  1.969500000000E-01  1.402600000000E-01
     60 F  17 CL    1.031700000000E-01 -1.969500000000E-01  1.402600000000E-01
     61 T  30 ZN   -5.000000000000E-01  0.000000000000E+00  2.500000000000E-01
     62 T  30 ZN    0.000000000000E+00  0.000000000000E+00  5.000000000000E-01

 T = ATOM BELONGING TO THE ASYMMETRIC UNIT

 ****    4 SYMMOPS - TRANSLATORS IN FRACTIONAL UNITS
 **** MATRICES AND TRANSLATORS IN THE CRYSTALLOGRAPHIC REFERENCE FRAME
   V INV                    ROTATION MATRICES                   TRANSLATORS
   1   1  1.00  0.00  0.00  0.00  1.00  0.00  0.00  0.00  1.00  0.00  0.00  0.00
   2   2  0.00  1.00 -1.00  1.00  0.00 -1.00  0.00  0.00 -1.00  0.00  0.00  0.00
   3   4  0.00 -1.00  0.00  0.00 -1.00  1.00  1.00 -1.00  0.00  0.00  0.00  0.00
   4   3 -1.00  0.00  1.00 -1.00  0.00  0.00 -1.00  1.00  0.00  0.00  0.00  0.00

 DIRECT LATTICE VECTORS CARTESIAN COMPONENTS (ANGSTROM)
          X                    Y                    Z
  -0.537600868640E+01   0.537600868640E+01   0.630843324180E+01
   0.537600868640E+01  -0.537600868640E+01   0.630843324180E+01
   0.537600868640E+01   0.537600868640E+01  -0.630843324180E+01


 CARTESIAN COORDINATES - PRIMITIVE CELL
 *******************************************************************************
 *      ATOM          X(ANGSTROM)         Y(ANGSTROM)         Z(ANGSTROM)
 *******************************************************************************
    1     1 H     6.489917686222E-01 -2.407161649422E+00  4.786208300554E+00
    2     1 H    -6.489917686222E-01  2.407161649422E+00  4.786208300554E+00
    3     1 H    -2.407161649422E+00 -6.489917686222E-01 -4.786208300554E+00
    4     1 H     2.407161649422E+00  6.489917686222E-01 -4.786208300554E+00
    5     1 H    -3.907283113276E-01  3.232701543306E+00 -1.349373870421E+00
    6     1 H     3.907283113276E-01 -3.232701543306E+00 -1.349373870421E+00
    7     1 H     3.232701543306E+00  3.907283113276E-01  1.349373870421E+00
    8     1 H    -3.232701543306E+00 -3.907283113276E-01  1.349373870421E+00
    9     1 H    -4.462839850928E+00  4.688954776278E-01 -1.548846529527E+00
   10     1 H     4.462839850928E+00 -4.688954776278E-01 -1.548846529527E+00
   11     1 H     4.688954776278E-01  4.462839850928E+00  1.548846529527E+00
   12     1 H    -4.688954776278E-01 -4.462839850928E+00  1.548846529527E+00
   13     6 C    -2.575645761654E+00  3.311513830649E+00 -1.454220030900E+00
   14     6 C     2.575645761654E+00 -3.311513830649E+00 -1.454220030900E+00
   15     6 C     3.311513830649E+00  2.575645761654E+00  1.454220030900E+00
   16     6 C    -3.311513830649E+00 -2.575645761654E+00  1.454220030900E+00
   17     6 C     2.716712229585E+00 -6.206064427580E-01  4.781287722625E+00
   18     6 C    -2.716712229585E+00  6.206064427580E-01  4.781287722625E+00
   19     6 C    -6.206064427580E-01 -2.716712229585E+00 -4.781287722625E+00
   20     6 C     6.206064427580E-01  2.716712229585E+00 -4.781287722625E+00
   21     6 C    -3.734390673921E+00  2.513499101239E+00 -1.484626679125E+00
   22     6 C     3.734390673921E+00 -2.513499101239E+00 -1.484626679125E+00
   23     6 C     2.513499101239E+00  3.734390673921E+00  1.484626679125E+00
   24     6 C    -2.513499101239E+00 -3.734390673921E+00  1.484626679125E+00
   25     6 C    -2.298566273957E+00  6.055536184361E-01 -1.571304551868E+00
   26     6 C     2.298566273957E+00 -6.055536184361E-01 -1.571304551868E+00
   27     6 C     6.055536184361E-01  2.298566273957E+00  1.571304551868E+00
   28     6 C    -6.055536184361E-01 -2.298566273957E+00  1.571304551868E+00
   29     6 C    -1.326368863109E+00  2.667252949670E+00 -1.428607791938E+00
   30     6 C     1.326368863109E+00 -2.667252949670E+00 -1.428607791938E+00
   31     6 C     2.667252949670E+00  1.326368863109E+00  1.428607791938E+00
   32     6 C    -2.667252949670E+00 -1.326368863109E+00  1.428607791938E+00
   33     6 C     3.599667896240E+00 -1.133047590746E+00 -1.516295013999E+00
   34     6 C    -3.599667896240E+00  1.133047590746E+00 -1.516295013999E+00
   35     6 C    -1.133047590746E+00 -3.599667896240E+00  1.516295013999E+00
   36     6 C     1.133047590746E+00  3.599667896240E+00  1.516295013999E+00
   37     7 N     3.674071856459E+00  1.929987118418E-01  4.260211136852E+00
   38     7 N    -3.674071856459E+00 -1.929987118418E-01  4.260211136852E+00
   39     7 N     1.929987118418E-01 -3.674071856459E+00 -4.260211136852E+00
   40     7 N    -1.929987118418E-01  3.674071856459E+00 -4.260211136852E+00
   41     7 N    -2.189325777450E+00 -3.896853656424E+00 -1.967726496782E+00
   42     7 N     2.189325777450E+00  3.896853656424E+00 -1.967726496782E+00
   43     7 N    -3.896853656424E+00  2.189325777450E+00  1.967726496782E+00
   44     7 N     3.896853656424E+00 -2.189325777450E+00  1.967726496782E+00
   45     7 N     1.664949890178E+00  1.433243915794E-01  5.171527402963E+00
   46     7 N    -1.664949890178E+00 -1.433243915794E-01  5.171527402963E+00
   47     7 N     1.433243915794E-01 -1.664949890178E+00 -5.171527402963E+00
   48     7 N    -1.433243915794E-01  1.664949890178E+00 -5.171527402963E+00
   49     7 N    -3.392906602161E+00 -3.926206663852E+00 -1.435673237169E+00
   50     7 N     3.392906602161E+00  3.926206663852E+00 -1.435673237169E+00
   51     7 N    -3.926206663852E+00  3.392906602161E+00  1.435673237169E+00
   52     7 N     3.926206663852E+00 -3.392906602161E+00  1.435673237169E+00
   53     7 N    -1.191538565254E+00  1.338303602392E+00 -1.511500604735E+00
   54     7 N     1.191538565254E+00 -1.338303602392E+00 -1.511500604735E+00
   55     7 N     1.338303602392E+00  1.191538565254E+00  1.511500604735E+00
   56     7 N    -1.338303602392E+00 -1.191538565254E+00  1.511500604735E+00
   57    17 CL   -2.117609821573E+00 -1.109285632352E+00 -1.769641692990E+00
   58    17 CL    2.117609821573E+00  1.109285632352E+00 -1.769641692990E+00
   59    17 CL   -1.109285632352E+00  2.117609821573E+00  1.769641692990E+00
   60    17 CL    1.109285632352E+00 -2.117609821573E+00  1.769641692990E+00
   61    30 ZN    5.376008686400E+00  0.000000000000E+00 -9.462649862700E+00
   62    30 ZN    0.000000000000E+00  0.000000000000E+00  6.308433241800E+00

 *******************************************************************************
 STARTING BASIS SET HANDLING 
 *******************************************************************************

 Loading internal basis set: POB-DZVPP           

 Please cite in your publication:
 Peintinger, M. F., Oliveira, D. V. and Bredow, T. (2013), Generally applicable 
 solid-state Gaussian basis sets, in preparation                                
                                                                                
                    

 *******************************************************************************
 LOCAL ATOMIC FUNCTIONS BASIS SET
 *******************************************************************************
   ATOM   X(AU)   Y(AU)   Z(AU)  N. TYPE  EXPONENT  S COEF   P COEF   D/F/G COEF
 *******************************************************************************
   1 H    1.226  -4.549   9.045
                                  1 S  
                                         2.263E+01 1.441E-02 0.000E+00 0.000E+00
                                         3.236E+00 1.072E-01 0.000E+00 0.000E+00
                                         7.304E-01 3.846E-01 0.000E+00 0.000E+00
                                  2 S  
                                         1.417E-01 1.000E+00 0.000E+00 0.000E+00
                           3-     5 P  
                                         3.944E-01 0.000E+00 1.000E+00 0.000E+00
                           6-     8 P  
                                         1.006E-01 0.000E+00 1.000E+00 0.000E+00
   2 H   -1.226   4.549   9.045
   3 H   -4.549  -1.226  -9.045
   4 H    4.549   1.226  -9.045
   5 H   -0.738   6.109  -2.550
   6 H    0.738  -6.109  -2.550
   7 H    6.109   0.738   2.550
   8 H   -6.109  -0.738   2.550
   9 H   -8.434   0.886  -2.927
  10 H    8.434  -0.886  -2.927
  11 H    0.886   8.434   2.927
  12 H   -0.886  -8.434   2.927
  13 C   -4.867   6.258  -2.748
                                 97 S  
                                         1.238E+03 5.457E-03 0.000E+00 0.000E+00
                                         1.863E+02 4.064E-02 0.000E+00 0.000E+00
                                         4.225E+01 1.803E-01 0.000E+00 0.000E+00
                                         1.168E+01 4.632E-01 0.000E+00 0.000E+00
                                         3.593E+00 4.409E-01 0.000E+00 0.000E+00
                                 98 S  
                                         5.281E+00 1.000E+00 0.000E+00 0.000E+00
                                 99 S  
                                         4.447E-01 1.000E+00 0.000E+00 0.000E+00
                         100-   102 P  
                                         9.468E+00 0.000E+00 3.839E-02 0.000E+00
                                         2.010E+00 0.000E+00 2.112E-01 0.000E+00
                                         5.477E-01 0.000E+00 5.133E-01 0.000E+00
                         103-   105 P  
                                         1.604E-01 0.000E+00 1.000E+00 0.000E+00
                         106-   110 D  
                                         6.070E-01 0.000E+00 0.000E+00 1.000E+00
                         111-   115 D  
                                         2.939E-01 0.000E+00 0.000E+00 1.000E+00
  14 C    4.867  -6.258  -2.748
  15 C    6.258   4.867   2.748
  16 C   -6.258  -4.867   2.748
  17 C    5.134  -1.173   9.035
  18 C   -5.134   1.173   9.035
  19 C   -1.173  -5.134  -9.035
  20 C    1.173   5.134  -9.035
  21 C   -7.057   4.750  -2.806
  22 C    7.057  -4.750  -2.806
  23 C    4.750   7.057   2.806
  24 C   -4.750  -7.057   2.806
  25 C   -4.344   1.144  -2.969
  26 C    4.344  -1.144  -2.969
  27 C    1.144   4.344   2.969
  28 C   -1.144  -4.344   2.969
  29 C   -2.506   5.040  -2.700
  30 C    2.506  -5.040  -2.700
  31 C    5.040   2.506   2.700
  32 C   -5.040  -2.506   2.700
  33 C    6.802  -2.141  -2.865
  34 C   -6.802   2.141  -2.865
  35 C   -2.141  -6.802   2.865
  36 C    2.141   6.802   2.865
  37 N    6.943   0.365   8.051
                                553 S  
                                         1.713E+03-5.393E-03 0.000E+00 0.000E+00
                                         2.576E+02-4.022E-02 0.000E+00 0.000E+00
                                         5.846E+01-1.793E-01 0.000E+00 0.000E+00
                                         1.620E+01-4.638E-01 0.000E+00 0.000E+00
                                         5.005E+00-4.417E-01 0.000E+00 0.000E+00
                                554 S  
                                         6.217E-01 1.000E+00 0.000E+00 0.000E+00
                                555 S  
                                         2.921E-01 1.000E+00 0.000E+00 0.000E+00
                         556-   558 P  
                                         1.357E+01 0.000E+00-4.007E-02 0.000E+00
                                         2.926E+00 0.000E+00-2.181E-01 0.000E+00
                                         7.993E-01 0.000E+00-5.129E-01 0.000E+00
                         559-   561 P  
                                         2.244E-01 0.000E+00 1.000E+00 0.000E+00
                         562-   566 D  
                                         3.118E-01 0.000E+00 0.000E+00 1.000E+00
  38 N   -6.943  -0.365   8.051
  39 N    0.365  -6.943  -8.051
  40 N   -0.365   6.943  -8.051
  41 N   -4.137  -7.364  -3.718
  42 N    4.137   7.364  -3.718
  43 N   -7.364   4.137   3.718
  44 N    7.364  -4.137   3.718
  45 N    3.146   0.271   9.773
  46 N   -3.146  -0.271   9.773
  47 N    0.271  -3.146  -9.773
  48 N   -0.271   3.146  -9.773
  49 N   -6.412  -7.419  -2.713
  50 N    6.412   7.419  -2.713
  51 N   -7.419   6.412   2.713
  52 N    7.419  -6.412   2.713
  53 N   -2.252   2.529  -2.856
  54 N    2.252  -2.529  -2.856
  55 N    2.529   2.252   2.856
  56 N   -2.529  -2.252   2.856
  57 CL  -4.002  -2.096  -3.344
                                833 S  
                                         1.045E+04 1.971E-03 0.000E+00 0.000E+00
                                         1.572E+03 1.475E-02 0.000E+00 0.000E+00
                                         3.571E+02 6.668E-02 0.000E+00 0.000E+00
                                         1.003E+02 1.723E-01 0.000E+00 0.000E+00
                                         3.081E+01 1.588E-01 0.000E+00 0.000E+00
                                834 S  
                                         5.192E+01-1.001E-01 0.000E+00 0.000E+00
                                         5.705E+00 6.084E-01 0.000E+00 0.000E+00
                                         2.351E+00 5.435E-01 0.000E+00 0.000E+00
                                835 S  
                                         4.886E-01 1.000E+00 0.000E+00 0.000E+00
                                836 S  
                                         1.984E-01 1.000E+00 0.000E+00 0.000E+00
                         837-   839 P  
                                         3.077E+02 0.000E+00-8.780E-03 0.000E+00
                                         7.210E+01 0.000E+00-6.356E-02 0.000E+00
                                         2.253E+01 0.000E+00-2.402E-01 0.000E+00
                                         7.899E+00 0.000E+00-4.780E-01 0.000E+00
                                         2.877E+00 0.000E+00-3.852E-01 0.000E+00
                         840-   842 P  
                                         9.483E-01 0.000E+00 1.000E+00 0.000E+00
                         843-   845 P  
                                         2.521E-01 0.000E+00 1.000E+00 0.000E+00
                         846-   850 D  
                                         9.722E-01 0.000E+00 0.000E+00 1.000E+00
                         851-   855 D  
                                         2.060E-01 0.000E+00 0.000E+00 1.000E+00
  58 CL   4.002   2.096  -3.344
  59 CL  -2.096   4.002   3.344
  60 CL   2.096  -4.002   3.344
  61 ZN  10.159   0.000 -17.882
                                925 S  
                                         8.200E+04 1.421E-03 0.000E+00 0.000E+00
                                         1.231E+04 1.089E-02 0.000E+00 0.000E+00
                                         2.801E+03 5.406E-02 0.000E+00 0.000E+00
                                         7.910E+02 1.885E-01 0.000E+00 0.000E+00
                                         2.576E+02 3.835E-01 0.000E+00 0.000E+00
                                         8.881E+01 2.972E-01 0.000E+00 0.000E+00
                                926 S  
                                         1.719E+02-1.105E-01 0.000E+00 0.000E+00
                                         2.030E+01 6.461E-01 0.000E+00 0.000E+00
                                         8.346E+00 4.422E-01 0.000E+00 0.000E+00
                                927 S  
                                         1.485E+01-2.271E-01 0.000E+00 0.000E+00
                                         2.450E+00 7.243E-01 0.000E+00 0.000E+00
                                         9.985E-01 4.484E-01 0.000E+00 0.000E+00
                                928 S  
                                         1.493E+00 1.000E+00 0.000E+00 0.000E+00
                                929 S  
                                         1.830E-01 1.000E+00 0.000E+00 0.000E+00
                         930-   932 P  
                                         1.072E+03 0.000E+00 9.277E-03 0.000E+00
                                         2.527E+02 0.000E+00 6.954E-02 0.000E+00
                                         8.010E+01 0.000E+00 2.716E-01 0.000E+00
                                         2.890E+01 0.000E+00 5.340E-01 0.000E+00
                                         1.077E+01 0.000E+00 3.450E-01 0.000E+00
                         933-   935 P  
                                         5.645E+00 0.000E+00 3.413E-01 0.000E+00
                                         2.168E+00 0.000E+00 5.639E-01 0.000E+00
                                         8.054E-01 0.000E+00 2.368E-01 0.000E+00
                         936-   938 P  
                                         2.721E-01 0.000E+00 1.000E+00 0.000E+00
                         939-   943 D  
                                         5.609E+01 0.000E+00 0.000E+00 2.959E-02
                                         1.575E+01 0.000E+00 0.000E+00 1.587E-01
                                         5.312E+00 0.000E+00 0.000E+00 3.798E-01
                                         1.774E+00 0.000E+00 0.000E+00 4.690E-01
                         944-   948 D  
                                         5.073E-01 0.000E+00 0.000E+00 1.000E+00
                         949-   955 F  
                                         2.814E+00 0.000E+00 0.000E+00 1.000E+00
                         956-   962 F  
                                         1.300E+00 0.000E+00 0.000E+00 1.000E+00
  62 ZN   0.000   0.000  11.921

 *******************************************************************************
 FINISHED BASIS SET HANDLING 
 *******************************************************************************

 INFORMATION **** SET_MPP **** PCRYSTAL CALCULATION
 INFORMATION **** READM2 **** NEW DEFAULT: FOCK/KS MATRIX MIXING SET TO 30 %
 INFORMATION **** READM2 **** NEW DEFAULT: FULL DIRECT SCF MODE
 INFORMATION **** READM2 **** NEW DEFAULT: COULOMB BIPOLAR BUFFER SET TO 32 Mb
 INFORMATION **** READM2 **** NEW DEFAULT: EXCHANGE BIPOLAR BUFFER SET TO 32 Mb

 *******************************************************************************
 NEW DEFAULT: DFT INTEGRATION GRID INCREASED TO XLGRID
 NEW DEFAULT: DIIS ACCELERATOR ACTIVE
 USE KEYWORD NODIIS TO TURN IT OFF
 *******************************************************************************

 INFORMATION **** DFTD3_INPUT **** PERFORM DISPERSION CORRECTION DFT-D3(BJ) IN THE BECKE-JOHNSON DAMPING SCHEME

 PLEASE CITE:
 (1) DFT-D3 Reference
  S. Grimme, J. Antony, S. Ehrlich, and H. Krieg, J. Chem. Phys. 132 (2010), 154104
 (2) BJ-Damping Reference
  S. Grimme, S. Ehrlich, and L. Goerigk, J. Comput. Chem. 32 (2011), 1456-1465
 (3) General DFT-D Review
  S. Grimme, A. Hansen, J. G. Brandenburg, and C. Bannwarth,
  Chem. Rev. 116 (2016), 5105-5154

 INFORMATION **** TOLINTEG **** COULOMB AND EXCHANGE SERIES TOLERANCES MODIFIED
 INFORMATION **** BIPOSIZE **** COULOMB BIPOLAR BUFFER SET TO   100000000
 INFORMATION **** MAXCYCLE **** MAX NUMBER OF SCF CYCLES SET TO          50
 *******************************************************************************
 N. OF ATOMS PER CELL        62  COULOMB OVERLAP TOL         (T1) 10**  -12
 NUMBER OF SHELLS           396  COULOMB PENETRATION TOL     (T2) 10**  -12
 NUMBER OF AO              1000  EXCHANGE OVERLAP TOL        (T3) 10**   20
 N. OF ELECTRONS PER CELL   424  EXCHANGE PSEUDO OVP (F(G))  (T4) 10**   20
 CORE ELECTRONS PER CELL    164  EXCHANGE PSEUDO OVP (P(G))  (T5) 10**   20
 N. OF SYMMETRY OPERATORS     4  POLE ORDER IN MONO ZONE                  4
 *******************************************************************************
 TYPE OF CALCULATION :  RESTRICTED CLOSED SHELL
 KOHN-SHAM HAMILTONIAN

 (EXCHANGE)[CORRELATION] FUNCTIONAL:(PERDEW-BURKE-ERNZERHOF)[PERDEW-BURKE-ERNZERHOF]


 CAPPA:IS1  3;IS2  3;IS3  3; K PTS MONK NET   6; SYMMOPS:K SPACE   8;G SPACE   4

 *******************************************************************************
 MAX NUMBER OF SCF CYCLES      50  CONVERGENCE ON DELTAP        10**-16
 WEIGHT OF F(I) IN F(I+1)      30% CONVERGENCE ON ENERGY        10**- 6
 SHRINK. FACT.(MONKH.)    3  3  3  NUMBER OF K POINTS IN THE IBZ      6
 SHRINKING FACTOR(GILAT NET)    3  NUMBER OF K POINTS(GILAT NET)      6
 *******************************************************************************
 *** K POINTS COORDINATES (OBLIQUE COORDINATES IN UNITS OF IS =  3)
   1-R(  0  0  0)   2-C(  1  0  0)   3-C(  1  1  0)   4-C(  2  1  0)
   5-C(  2  1  1)   6-C(  2  2  1)

 DIRECT LATTICE VECTORS COMPON. (A.U.)     RECIP. LATTICE VECTORS COMPON. (A.U.) 
        X            Y            Z              X            Y            Z
  -10.1591841   10.1591841   11.9212112      0.0000000    0.3092367    0.2635297
   10.1591841  -10.1591841   11.9212112      0.3092367    0.0000000    0.2635297
   10.1591841   10.1591841  -11.9212112      0.3092367    0.3092367    0.0000000

 DISK SPACE FOR EIGENVECTORS (FTN 10)    11000000 REALS

 SYMMETRY ADAPTION OF THE BLOCH FUNCTIONS ENABLED
 TTTTTTTTTTTTTTTTTTTTTTTTTTTTTT gordsh1     TELAPSE        4.47 TCPU        0.06

 MATRIX SIZE: P(G) 1838888, F(G)  920208, P(G) IRR  232554, F(G) IRR  232554
 MAX G-VECTOR INDEX FOR 1- AND 2-ELECTRON INTEGRALS  59

 TTTTTTTTTTTTTTTTTTTTTTTTTTTTTT INPUT       TELAPSE        4.86 TCPU        0.44

 NEIGHBORS OF THE NON-EQUIVALENT ATOMS

 N = NUMBER OF NEIGHBORS AT DISTANCE R
    ATOM  N     R/ANG      R/AU   NEIGHBORS (ATOM LABELS AND CELL INDICES)
   1 H    1     1.0927     2.0650   21 C    0 1 0
   1 H    1     2.1543     4.0711   34 C    0 1 0
   1 H    1     2.1796     4.1188   13 C    0 1 0
   1 H    1     2.5140     4.7508    9 H    0 1 0
   1 H    1     2.7326     5.1639   17 C    0 0 0
   1 H    1     2.7723     5.2389   45 N    0 0 0

   5 H    1     1.0961     2.0713   29 C    0 0 0
   5 H    1     2.0631     3.8987   53 N    0 0 0
   5 H    1     2.1889     4.1363   13 C    0 0 0
   5 H    1     2.7350     5.1684   42 N    0 0 0
   5 H    1     2.7380     5.1741   17 C    0-1 0
   5 H    1     2.7688     5.2322   37 N    0-1 0

   9 H    1     1.0896     2.0590   34 C    0 0 0
   9 H    1     2.0530     3.8797   10 H    0-1-1
   9 H    1     2.1687     4.0982   25 C    0 0 0
   9 H    1     2.1714     4.1034   21 C    0 0 0
   9 H    1     2.5140     4.7508    1 H    0-1 0
   9 H    1     2.8354     5.3581   57 CL   0 0 0

  13 C    1     1.4059     2.6567   29 C    0 0 0
  13 C    1     1.4073     2.6594   21 C    0 0 0
  13 C    1     1.4481     2.7366   17 C    0-1 0
  13 C    1     2.1796     4.1188    1 H    0-1 0
  13 C    1     2.1889     4.1363    5 H    0 0 0
  13 C    1     2.4079     4.5504   34 C    0 0 0

  17 C    1     1.3572     2.5648   45 N    0 0 0
  17 C    1     1.3602     2.5703   37 N    0 0 0
  17 C    1     1.4481     2.7366   13 C    0 1 0
  17 C    1     2.1964     4.1505   41 N    1 1 1
  17 C    1     2.1984     4.1545   49 N    1 1 1
  17 C    1     2.4793     4.6851   29 C    0 1 0

  21 C    1     1.0927     2.0650    1 H    0-1 0
  21 C    1     1.3874     2.6218   34 C    0 0 0
  21 C    1     1.4073     2.6594   13 C    0 0 0
  21 C    1     2.1714     4.1034    9 H    0 0 0
  21 C    1     2.3894     4.5154   25 C    0 0 0
  21 C    1     2.4136     4.5610   29 C    0 0 0

  25 C    1     1.3289     2.5113   53 N    0 0 0
  25 C    1     1.4050     2.6551   34 C    0 0 0
  25 C    1     1.7357     3.2801   57 CL   0 0 0
  25 C    1     2.1687     4.0982    9 H    0 0 0
  25 C    1     2.2839     4.3159   29 C    0 0 0
  25 C    1     2.3894     4.5154   21 C    0 0 0

  29 C    1     1.0961     2.0713    5 H    0 0 0
  29 C    1     1.3383     2.5291   53 N    0 0 0
  29 C    1     1.4059     2.6567   13 C    0 0 0
  29 C    1     2.2839     4.3159   25 C    0 0 0
  29 C    1     2.4136     4.5610   21 C    0 0 0
  29 C    1     2.4793     4.6851   17 C    0-1 0

  33 C    1     1.0896     2.0590   10 H    0 0 0
  33 C    1     1.3874     2.6218   22 C    0 0 0
  33 C    1     1.4050     2.6551   26 C    0 0 0
  33 C    1     2.1543     4.0711    2 H   -1 0 0
  33 C    1     2.4079     4.5504   14 C    0 0 0
  33 C    1     2.4169     4.5672   54 N    0 0 0

  37 N    1     1.3602     2.5703   17 C    0 0 0
  37 N    1     1.3778     2.6036   41 N    1 1 1
  37 N    1     2.0389     3.8529   61 ZN   1 1 0
  37 N    1     2.1941     4.1463   49 N    1 1 1
  37 N    1     2.2067     4.1701   45 N    0 0 0
  37 N    1     2.4925     4.7101   13 C    0 1 0

  41 N    1     1.3163     2.4874   49 N    0 0 0
  41 N    1     1.3778     2.6036   37 N   -1-1-1
  41 N    1     2.1887     4.1360   45 N   -1-1-1
  41 N    1     2.1964     4.1505   17 C   -1-1-1
  41 N    1     2.7350     5.1684    6 H    0 0 0
  41 N    1     2.7955     5.2828   57 CL   0 0 0

  45 N    1     1.3572     2.5648   17 C    0 0 0
  45 N    1     1.3774     2.6030   49 N    1 1 1
  45 N    1     2.0212     3.8195   62 ZN   0 0 0
  45 N    1     2.1887     4.1360   41 N    1 1 1
  45 N    1     2.2067     4.1701   37 N    0 0 0
  45 N    1     2.5029     4.7297   13 C    0 1 0

  49 N    1     1.3163     2.4874   41 N    0 0 0
  49 N    1     1.3774     2.6030   45 N   -1-1-1
  49 N    1     2.1941     4.1463   37 N   -1-1-1
  49 N    1     2.1984     4.1545   17 C   -1-1-1
  49 N    1     2.8021     5.2953    2 H   -1-1-1
  49 N    1     2.8453     5.3769   62 ZN  -1-1-1

  53 N    1     1.3289     2.5113   25 C    0 0 0
  53 N    1     1.3383     2.5291   29 C    0 0 0
  53 N    1     2.0631     3.8987    5 H    0 0 0
  53 N    1     2.4109     4.5560   13 C    0 0 0
  53 N    1     2.4169     4.5672   34 C    0 0 0
  53 N    1     2.6296     4.9693   57 CL   0 0 0

  57 CL   1     1.7357     3.2801   25 C    0 0 0
  57 CL   1     2.6296     4.9693   53 N    0 0 0
  57 CL   1     2.6998     5.1018   34 C    0 0 0
  57 CL   1     2.7955     5.2828   41 N    0 0 0
  57 CL   1     2.8354     5.3581    9 H    0 0 0
  57 CL   1     3.0652     5.7924    3 H    0 0 0

  61 ZN   4     2.0389     3.8529   37 N   -1-1 0   38 N   -1 0 1   39 N    0 0 1
                                    40 N   -1 0 0
  61 ZN   4     2.8291     5.3463    5 H   -1 0 0    6 H    0 0 1    7 H   -1-1 0
                                     8 H   -1 0 1
  61 ZN   4     2.8963     5.4733   41 N    0 0 1   42 N   -1 0 0   43 N   -1 0 1
                                    44 N   -1-1 0
  61 ZN   4     3.1787     6.0069   17 C   -1-1 0   18 C   -1 0 1   19 C    0 0 1
                                    20 C   -1 0 0
  61 ZN   4     3.4748     6.5664   29 C   -1 0 0   30 C    0 0 1   31 C   -1-1 0
                                    32 C   -1 0 1
  61 ZN   4     3.7130     7.0165   13 C   -1 0 0   14 C    0 0 1   15 C   -1-1 0
                                    16 C   -1 0 1

  62 ZN   4     2.0212     3.8195   45 N    0 0 0   46 N    0 0 0   47 N    1 1 0
                                    48 N    1 1 0
  62 ZN   4     2.8453     5.3769   49 N    1 1 1   50 N    0 0-1   51 N    0 1 0
                                    52 N    1 0 0
  62 ZN   4     2.9211     5.5201    1 H    0 0 0    2 H    0 0 0    3 H    1 1 0
                                     4 H    1 1 0
  62 ZN   4     3.1777     6.0050   17 C    0 0 0   18 C    0 0 0   19 C    1 1 0
                                    20 C    1 1 0
  62 ZN   4     3.6184     6.8378   21 C    0 1 0   22 C    1 0 0   23 C    0 0-1
                                    24 C    1 1 1
  62 ZN   4     3.7708     7.1258   13 C    0 1 0   14 C    1 0 0   15 C    0 0-1
                                    16 C    1 1 1


 SYMMETRY ALLOWED INTERNAL DEGREE(S) OF FREEDOM:  45
 TTTTTTTTTTTTTTTTTTTTTTTTTTTTTT SYMM        TELAPSE        5.63 TCPU        1.21
 TTTTTTTTTTTTTTTTTTTTTTTTTTTTTT INT_SCREEN  TELAPSE        5.64 TCPU        1.21
 INFORMATION **** EXCBUF **** EXCH. BIPO BUFFER: WORDS USED =           0

 DFT PARAMETERS

     ATOM       ELECTRONS   NET CHARGE   R(ANGSTROM)
   1   1  H       1.0000      0.0000     1.11000000
  13   6  C       6.0000      0.0000     0.77000000
  37   7  N       7.0000      0.0000     0.74000000
  57  17  CL     17.0000      0.0000     0.99000000
  61  30  ZN     30.0000      0.0000     1.37000000

 SIZE OF GRID=     456374
 TTTTTTTTTTTTTTTTTTTTTTTTTTTTTT MAKE_GRID2  TELAPSE        6.57 TCPU        2.15
 BECKE WEIGHT FUNCTION
 RADSAFE =     2.00
 TOLERANCES - DENSITY:10**- 6; POTENTIAL:10**- 9; GRID WGT:10**-14

 RADIAL INTEGRATION  - INTERVALS (POINTS,UPPER LIMIT):            1( 75,  4.0*R)

 ANGULAR INTEGRATION - INTERVALS (ACCURACY LEVEL [N. POINTS] UPPER LIMIT):
  1(  4[  86]   0.2)  2(  8[ 194]   0.5)  3( 12[ 350]   0.9)  4( 16[ 974]   3.5)
  5( 12[ 350]9999.0)
 TTTTTTTTTTTTTTTTTTTTTTTTTTTTTT INT_CALC    TELAPSE        6.62 TCPU        2.19
 EEEEEEEEEE INT_CALC TERMINATION  DATE 03 12 2023 TIME 12:50:24.9

 *******************************************************************************
 Z:\home\sanoj\Downloads\tmp_p\newconn.mol                                       
 CRYSTAL - SCF - TYPE OF CALCULATION :  RESTRICTED CLOSED SHELL
 *******************************************************************************

 CAPPA:IS1  3;IS2  3;IS3  3; K PTS MONK NET   6; SYMMOPS:K SPACE   8;G SPACE   4

 TTTTTTTTTTTTTTTTTTTTTTTTTTTTTT SDIK        TELAPSE        6.84 TCPU        2.41

 AAAAAAAAAAAAAAAAAAAAAAAAAAAAAAAAAAAAAAAAAAAAAAAAAAAAAAAAAAAAAAAAAAAAAAAAAAAAAAA
         ATOMIC WAVEFUNCTION(S)


 NUCLEAR CHARGE  1.0  SYMMETRY SPECIES            S
 N. ELECTRONS    1.0  NUMBER OF PRIMITIVE GTOS    4
                      NUMBER OF CONTRACTED GTOS   2
                      NUMBER OF CLOSED SHELLS     0
                      OPEN SHELL OCCUPATION       1

  ZNUC SCFIT  TOTAL HF ENERGY   KINETIC ENERGY   VIRIAL THEOREM ACCURACY
   1.0   1   -4.946643675E-01  4.917913167E-01 -2.005842012E+00  9.4E-17

 NUCLEAR CHARGE  6.0  SYMMETRY SPECIES            S    P
 N. ELECTRONS    6.0  NUMBER OF PRIMITIVE GTOS    7    4
                      NUMBER OF CONTRACTED GTOS   3    2
                      NUMBER OF CLOSED SHELLS     2    0
                      OPEN SHELL OCCUPATION       0    2

  ZNUC SCFIT  TOTAL HF ENERGY   KINETIC ENERGY   VIRIAL THEOREM ACCURACY
   6.0   6   -3.750912652E+01  3.905246519E+01 -1.960480378E+00  3.7E-06

 NUCLEAR CHARGE  7.0  SYMMETRY SPECIES            S    P
 N. ELECTRONS    7.0  NUMBER OF PRIMITIVE GTOS    7    4
                      NUMBER OF CONTRACTED GTOS   3    2
                      NUMBER OF CLOSED SHELLS     2    0
                      OPEN SHELL OCCUPATION       0    3

  ZNUC SCFIT  TOTAL HF ENERGY   KINETIC ENERGY   VIRIAL THEOREM ACCURACY
   7.0   9   -5.432196661E+01  5.425066284E+01 -2.001314339E+00  1.2E-06

 NUCLEAR CHARGE 17.0  SYMMETRY SPECIES            S    P
 N. ELECTRONS   17.0  NUMBER OF PRIMITIVE GTOS   10    7
                      NUMBER OF CONTRACTED GTOS   4    3
                      NUMBER OF CLOSED SHELLS     3    1
                      OPEN SHELL OCCUPATION       0    5

  ZNUC SCFIT  TOTAL HF ENERGY   KINETIC ENERGY   VIRIAL THEOREM ACCURACY
  17.0   9   -4.593005957E+02  4.593991532E+02 -1.999785464E+00  2.3E-06

 NUCLEAR CHARGE 30.0  SYMMETRY SPECIES            S    P    D
 N. ELECTRONS   30.0  NUMBER OF PRIMITIVE GTOS   14    9    5
                      NUMBER OF CONTRACTED GTOS   5    3    2
                      NUMBER OF CLOSED SHELLS     4    2    1
                      OPEN SHELL OCCUPATION       0    0    0

  ZNUC SCFIT  TOTAL HF ENERGY   KINETIC ENERGY   VIRIAL THEOREM ACCURACY
  30.0  10   -1.777404290E+03  1.777325716E+03 -2.000044209E+00  2.5E-06

 AAAAAAAAAAAAAAAAAAAAAAAAAAAAAAAAAAAAAAAAAAAAAAAAAAAAAAAAAAAAAAAAAAAAAAAAAAAAAAA

 TOTAL ATOMIC CHARGES:
   1.0000000   1.0000000   1.0000000   1.0000000   1.0000000   1.0000000
   1.0000000   1.0000000   1.0000000   1.0000000   1.0000000   1.0000000
   6.0000000   6.0000000   6.0000000   6.0000000   6.0000000   6.0000000
   6.0000000   6.0000000   6.0000000   6.0000000   6.0000000   6.0000000
   6.0000000   6.0000000   6.0000000   6.0000000   6.0000000   6.0000000
   6.0000000   6.0000000   6.0000000   6.0000000   6.0000000   6.0000000
   7.0000000   7.0000000   7.0000000   7.0000000   7.0000000   7.0000000
   7.0000000   7.0000000   7.0000000   7.0000000   7.0000000   7.0000000
   7.0000000   7.0000000   7.0000000   7.0000000   7.0000000   7.0000000
   7.0000000   7.0000000  17.0000000  17.0000000  17.0000000  17.0000000
  30.0000000  30.0000000
 TTTTTTTTTTTTTTTTTTTTTTTTTTTTTT MOQGAD      TELAPSE        8.72 TCPU        4.26
 TTTTTTTTTTTTTTTTTTTTTTTTTTTTTT SHELLXN     TELAPSE       83.14 TCPU       76.03
 TTTTTTTTTTTTTTTTTTTTTTTTTTTTTT MONMO3      TELAPSE       94.98 TCPU       87.83
 NUMERICALLY INTEGRATED DENSITY    424.0000044293
 TTTTTTTTTTTTTTTTTTTTTTTTTTTTTT NUMDFT      TELAPSE       97.46 TCPU       90.30
 CYC   0 ETOT(AU) -7.413767336741E+03 DETOT -7.41E+03 tst  0.00E+00 PX  1.00E+00
 TTTTTTTTTTTTTTTTTTTTTTTTTTTTTT DIIS        TELAPSE       97.54 TCPU       90.38
 TTTTTTTTTTTTTTTTTTTTTTTTTTTTTT FDIK        TELAPSE      129.09 TCPU      120.65
 INSULATING STATE
 TOP OF VALENCE BANDS -    BAND    212; K    4; EIG -1.3473604E-01 AU
 TOP OF VALENCE BANDS -    BAND    212; K    1; EIG -1.3555671E-01 AU
 BOTTOM OF VIRTUAL BANDS - BAND    213; K    4; EIG -1.0201280E-01 AU
 DIRECT ENERGY BAND GAP:   0.8904 eV
 BOTTOM OF VIRTUAL BANDS - BAND    213; K    1; EIG -1.0171677E-01 AU
 TTTTTTTTTTTTTTTTTTTTTTTTTTTTTT PDIG        TELAPSE      129.67 TCPU      121.22
 TOTAL ATOMIC CHARGES:
   1.2411163   1.2411163   1.2411163   1.2411163   1.3266394   1.3266394
   1.3266394   1.3266394   1.0943920   1.0943920   1.0943920   1.0943920
   6.0705512   6.0705512   6.0705512   6.0705512   5.4448271   5.4448271
   5.4448271   5.4448271   6.0586697   6.0586697   6.0586697   6.0586697
   4.9821634   4.9821634   4.9821634   4.9821634   5.7644055   5.7644055
   5.7644055   5.7644055   6.1676810   6.1676810   6.1676810   6.1676810
   7.3875835   7.3875835   7.3875835   7.3875835   7.1646499   7.1646499
   7.1646499   7.1646499   7.3804498   7.3804498   7.3804498   7.3804498
   7.1664108   7.1664108   7.1664108   7.1664108   7.5697781   7.5697781
   7.5697781   7.5697781  17.2866266  17.2866266  17.2866266  17.2866266
  27.7720269  27.8041954
 TTTTTTTTTTTTTTTTTTTTTTTTTTTTTT MOQGAD      TELAPSE      129.72 TCPU      121.27
 TTTTTTTTTTTTTTTTTTTTTTTTTTTTTT SHELLXN     TELAPSE      215.88 TCPU      204.99
 TTTTTTTTTTTTTTTTTTTTTTTTTTTTTT MONMO3      TELAPSE      228.16 TCPU      217.25
 NUMERICALLY INTEGRATED DENSITY    424.0000237855
 TTTTTTTTTTTTTTTTTTTTTTTTTTTTTT NUMDFT      TELAPSE      235.28 TCPU      224.34
 CYC   1 ETOT(AU) -7.408857803318E+03 DETOT  4.91E+00 tst  0.00E+00 PX  1.00E+00
 TTTTTTTTTTTTTTTTTTTTTTTTTTTTTT DIIS        TELAPSE      235.76 TCPU      224.82
 DIIS TEST: 0.11583E+02 AT SCF   CYCLE   1 - MIX   30 %
 TTTTTTTTTTTTTTTTTTTTTTTTTTTTTT FDIK        TELAPSE      249.28 TCPU      236.13
 INSULATING STATE
 TOP OF VALENCE BANDS -    BAND    212; K    2; EIG -1.5484293E-01 AU
 TOP OF VALENCE BANDS -    BAND    212; K    1; EIG -1.5487428E-01 AU
 BOTTOM OF VIRTUAL BANDS - BAND    213; K    5; EIG -1.2292786E-01 AU
 INDIRECT ENERGY BAND GAP:   0.8685 eV
 BOTTOM OF VIRTUAL BANDS - BAND    213; K    1; EIG -1.2021649E-01 AU
 TTTTTTTTTTTTTTTTTTTTTTTTTTTTTT PDIG        TELAPSE      249.85 TCPU      236.71
 TOTAL ATOMIC CHARGES:
   1.2130508   1.2130508   1.2130508   1.2130508   1.3295467   1.3295467
   1.3295467   1.3295467   1.0647864   1.0647864   1.0647864   1.0647864
   6.0919214   6.0919214   6.0919214   6.0919214   6.1504753   6.1504753
   6.1504753   6.1504753   6.2045119   6.2045119   6.2045119   6.2045119
   6.0660608   6.0660608   6.0660608   6.0660608   6.2210656   6.2210656
   6.2210656   6.2210656   5.9452962   5.9452962   5.9452962   5.9452962
   6.9621906   6.9621906   6.9621906   6.9621906   6.8467741   6.8467741
   6.8467741   6.8467741   6.9211851   6.9211851   6.9211851   6.9211851
   6.8373385   6.8373385   6.8373385   6.8373385   6.1522404   6.1522404
   6.1522404   6.1522404  17.1262065  17.1262065  17.1262065  17.1262065
  29.7542653  29.7151335
 TTTTTTTTTTTTTTTTTTTTTTTTTTTTTT MOQGAD      TELAPSE      249.90 TCPU      236.75
 TTTTTTTTTTTTTTTTTTTTTTTTTTTTTT SHELLXN     TELAPSE      336.13 TCPU      320.51
 TTTTTTTTTTTTTTTTTTTTTTTTTTTTTT MONMO3      TELAPSE      349.08 TCPU      333.43
 NUMERICALLY INTEGRATED DENSITY    424.0000249506
 TTTTTTTTTTTTTTTTTTTTTTTTTTTTTT NUMDFT      TELAPSE      356.20 TCPU      340.53
 CYC   2 ETOT(AU) -7.408055403514E+03 DETOT  8.02E-01 tst  5.27E-02 PX  7.54E-01
 TTTTTTTTTTTTTTTTTTTTTTTTTTTTTT DIIS        TELAPSE      356.75 TCPU      341.07
 DIIS TEST: 0.14230E+02 AT SCF   CYCLE   2 - DIIS ACTIVE - HISTORY:     2 CYCLES
 TTTTTTTTTTTTTTTTTTTTTTTTTTTTTT FDIK        TELAPSE      370.31 TCPU      352.26
 INSULATING STATE
 TOP OF VALENCE BANDS -    BAND    212; K    4; EIG -2.4277211E-01 AU
 TOP OF VALENCE BANDS -    BAND    212; K    1; EIG -2.4301381E-01 AU
 BOTTOM OF VIRTUAL BANDS - BAND    213; K    1; EIG -1.1991954E-01 AU
 INDIRECT ENERGY BAND GAP:   3.3430 eV
 TTTTTTTTTTTTTTTTTTTTTTTTTTTTTT PDIG        TELAPSE      370.89 TCPU      352.84
 TOTAL ATOMIC CHARGES:
   1.1675460   1.1675460   1.1675460   1.1675460   1.2464814   1.2464814
   1.2464814   1.2464814   1.0363434   1.0363434   1.0363434   1.0363434
   5.8951958   5.8951958   5.8951958   5.8951958   5.6930673   5.6930673
   5.6930673   5.6930673   5.9959360   5.9959360   5.9959360   5.9959360
   5.4674763   5.4674763   5.4674763   5.4674763   5.9627395   5.9627395
   5.9627395   5.9627395   5.9940064   5.9940064   5.9940064   5.9940064
   7.0815659   7.0815659   7.0815659   7.0815659   7.1453097   7.1453097
   7.1453097   7.1453097   7.0819010   7.0819010   7.0819010   7.0819010
   7.1190229   7.1190229   7.1190229   7.1190229   7.4542129   7.4542129
   7.4542129   7.4542129  17.1506618  17.1506618  17.1506618  17.1506618
  29.0143295  29.0198051
 TTTTTTTTTTTTTTTTTTTTTTTTTTTTTT MOQGAD      TELAPSE      370.94 TCPU      352.88
 TTTTTTTTTTTTTTTTTTTTTTTTTTTTTT SHELLXN     TELAPSE      456.67 TCPU      435.85
 TTTTTTTTTTTTTTTTTTTTTTTTTTTTTT MONMO3      TELAPSE      471.19 TCPU      450.34
 NUMERICALLY INTEGRATED DENSITY    424.0000221537
 TTTTTTTTTTTTTTTTTTTTTTTTTTTTTT NUMDFT      TELAPSE      478.34 TCPU      457.46
 CYC   3 ETOT(AU) -7.410514195808E+03 DETOT -2.46E+00 tst  5.23E-03 PX  6.75E-01
 TTTTTTTTTTTTTTTTTTTTTTTTTTTTTT DIIS        TELAPSE      478.50 TCPU      457.63
 DIIS TEST: 0.23045E+01 AT SCF   CYCLE   3 - DIIS ACTIVE - HISTORY:     3 CYCLES
 TTTTTTTTTTTTTTTTTTTTTTTTTTTTTT FDIK        TELAPSE      490.88 TCPU      468.72
 INSULATING STATE
 TOP OF VALENCE BANDS -    BAND    212; K    1; EIG -2.1931576E-01 AU
 BOTTOM OF VIRTUAL BANDS - BAND    213; K    3; EIG -1.2406398E-01 AU
 INDIRECT ENERGY BAND GAP:   2.5919 eV
 BOTTOM OF VIRTUAL BANDS - BAND    213; K    1; EIG -1.1950268E-01 AU
 TTTTTTTTTTTTTTTTTTTTTTTTTTTTTT PDIG        TELAPSE      491.45 TCPU      469.29
 TOTAL ATOMIC CHARGES:
   1.1557642   1.1557642   1.1557642   1.1557642   1.2722003   1.2722003
   1.2722003   1.2722003   1.0527092   1.0527092   1.0527092   1.0527092
   6.0923581   6.0923581   6.0923581   6.0923581   5.7323591   5.7323591
   5.7323591   5.7323591   6.2389896   6.2389896   6.2389896   6.2389896
   5.3576851   5.3576851   5.3576851   5.3576851   5.9227998   5.9227998
   5.9227998   5.9227998   6.1426809   6.1426809   6.1426809   6.1426809
   7.2226433   7.2226433   7.2226433   7.2226433   7.0219547   7.0219547
   7.0219547   7.0219547   7.2141740   7.2141740   7.2141740   7.2141740
   7.0500679   7.0500679   7.0500679   7.0500679   6.9414971   6.9414971
   6.9414971   6.9414971  17.2087145  17.2087145  17.2087145  17.2087145
  28.7352025  28.7584068
 TTTTTTTTTTTTTTTTTTTTTTTTTTTTTT MOQGAD      TELAPSE      491.50 TCPU      469.34
 TTTTTTTTTTTTTTTTTTTTTTTTTTTTTT SHELLXN     TELAPSE      576.92 TCPU      552.28
 TTTTTTTTTTTTTTTTTTTTTTTTTTTTTT MONMO3      TELAPSE      589.94 TCPU      565.26
 NUMERICALLY INTEGRATED DENSITY    424.0000268847
 TTTTTTTTTTTTTTTTTTTTTTTTTTTTTT NUMDFT      TELAPSE      597.00 TCPU      572.29
 CYC   4 ETOT(AU) -7.410655530855E+03 DETOT -1.41E-01 tst  1.81E-03 PX  1.57E-01
 TTTTTTTTTTTTTTTTTTTTTTTTTTTTTT DIIS        TELAPSE      597.16 TCPU      572.44
 DIIS TEST: 0.11506E+01 AT SCF   CYCLE   4 - DIIS ACTIVE - HISTORY:     4 CYCLES
 TTTTTTTTTTTTTTTTTTTTTTTTTTTTTT FDIK        TELAPSE      609.13 TCPU      582.18
 INSULATING STATE
 TOP OF VALENCE BANDS -    BAND    212; K    2; EIG -2.4492009E-01 AU
 TOP OF VALENCE BANDS -    BAND    212; K    1; EIG -2.4555170E-01 AU
 BOTTOM OF VIRTUAL BANDS - BAND    213; K    3; EIG -1.2388068E-01 AU
 INDIRECT ENERGY BAND GAP:   3.2937 eV
 BOTTOM OF VIRTUAL BANDS - BAND    213; K    1; EIG -1.1969630E-01 AU
 TTTTTTTTTTTTTTTTTTTTTTTTTTTTTT PDIG        TELAPSE      609.72 TCPU      582.76
 TOTAL ATOMIC CHARGES:
   1.1653372   1.1653372   1.1653372   1.1653372   1.2607753   1.2607753
   1.2607753   1.2607753   1.0473817   1.0473817   1.0473817   1.0473817
   6.0243340   6.0243340   6.0243340   6.0243340   5.7455936   5.7455936
   5.7455936   5.7455936   6.1257806   6.1257806   6.1257806   6.1257806
   5.5004593   5.5004593   5.5004593   5.5004593   5.9958341   5.9958341
   5.9958341   5.9958341   6.0688815   6.0688815   6.0688815   6.0688815
   7.1817136   7.1817136   7.1817136   7.1817136   7.0684001   7.0684001
   7.0684001   7.0684001   7.1165077   7.1165077   7.1165077   7.1165077
   7.0269427   7.0269427   7.0269427   7.0269427   7.0777668   7.0777668
   7.0777668   7.0777668  17.1889905  17.1889905  17.1889905  17.1889905
  28.8098839  28.8113216
 TTTTTTTTTTTTTTTTTTTTTTTTTTTTTT MOQGAD      TELAPSE      609.76 TCPU      582.81
 TTTTTTTTTTTTTTTTTTTTTTTTTTTTTT SHELLXN     TELAPSE      695.88 TCPU      665.88
 TTTTTTTTTTTTTTTTTTTTTTTTTTTTTT MONMO3      TELAPSE      709.02 TCPU      678.99
 NUMERICALLY INTEGRATED DENSITY    424.0000263925
 TTTTTTTTTTTTTTTTTTTTTTTTTTTTTT NUMDFT      TELAPSE      716.09 TCPU      686.04
 CYC   5 ETOT(AU) -7.410816394374E+03 DETOT -1.61E-01 tst  4.59E-04 PX  1.06E-01
 TTTTTTTTTTTTTTTTTTTTTTTTTTTTTT DIIS        TELAPSE      726.01 TCPU      695.93
 DIIS TEST: 0.65499E-01 AT SCF   CYCLE   5 - DIIS ACTIVE - HISTORY:     5 CYCLES
 TTTTTTTTTTTTTTTTTTTTTTTTTTTTTT FDIK        TELAPSE      744.09 TCPU      703.87
 INSULATING STATE
 TOP OF VALENCE BANDS -    BAND    212; K    2; EIG -2.4257956E-01 AU
 TOP OF VALENCE BANDS -    BAND    212; K    1; EIG -2.4293327E-01 AU
 BOTTOM OF VIRTUAL BANDS - BAND    213; K    4; EIG -1.2356831E-01 AU
 INDIRECT ENERGY BAND GAP:   3.2385 eV
 BOTTOM OF VIRTUAL BANDS - BAND    213; K    1; EIG -1.1976690E-01 AU
 TTTTTTTTTTTTTTTTTTTTTTTTTTTTTT PDIG        TELAPSE      744.67 TCPU      704.45
 TOTAL ATOMIC CHARGES:
   1.1667155   1.1667155   1.1667155   1.1667155   1.2621230   1.2621230
   1.2621230   1.2621230   1.0492265   1.0492265   1.0492265   1.0492265
   6.0349307   6.0349307   6.0349307   6.0349307   5.7440056   5.7440056
   5.7440056   5.7440056   6.1482828   6.1482828   6.1482828   6.1482828
   5.4573999   5.4573999   5.4573999   5.4573999   5.9646943   5.9646943
   5.9646943   5.9646943   6.0559522   6.0559522   6.0559522   6.0559522
   7.1273294   7.1273294   7.1273294   7.1273294   7.0357708   7.0357708
   7.0357708   7.0357708   7.1698164   7.1698164   7.1698164   7.1698164
   7.0814142   7.0814142   7.0814142   7.0814142   7.0933316   7.0933316
   7.0933316   7.0933316  17.1866212  17.1866212  17.1866212  17.1866212
  28.8377856  28.8517584
 TTTTTTTTTTTTTTTTTTTTTTTTTTTTTT MOQGAD      TELAPSE      744.72 TCPU      704.49
 TTTTTTTTTTTTTTTTTTTTTTTTTTTTTT SHELLXN     TELAPSE      833.72 TCPU      787.71
 TTTTTTTTTTTTTTTTTTTTTTTTTTTTTT MONMO3      TELAPSE      849.46 TCPU      803.41
 NUMERICALLY INTEGRATED DENSITY    424.0000265438
 TTTTTTTTTTTTTTTTTTTTTTTTTTTTTT NUMDFT      TELAPSE      856.46 TCPU      810.39
 CYC   6 ETOT(AU) -7.410820590839E+03 DETOT -4.20E-03 tst  5.52E-05 PX  2.45E-02
 TTTTTTTTTTTTTTTTTTTTTTTTTTTTTT DIIS        TELAPSE      856.62 TCPU      810.54
 DIIS TEST: 0.43568E-01 AT SCF   CYCLE   6 - DIIS ACTIVE - HISTORY:     6 CYCLES
 TTTTTTTTTTTTTTTTTTTTTTTTTTTTTT FDIK        TELAPSE      866.56 TCPU      817.92
 INSULATING STATE
 TOP OF VALENCE BANDS -    BAND    212; K    2; EIG -2.4143910E-01 AU
 TOP OF VALENCE BANDS -    BAND    212; K    1; EIG -2.4169753E-01 AU
 BOTTOM OF VIRTUAL BANDS - BAND    213; K    3; EIG -1.2355761E-01 AU
 INDIRECT ENERGY BAND GAP:   3.2077 eV
 BOTTOM OF VIRTUAL BANDS - BAND    213; K    1; EIG -1.1955641E-01 AU
 TTTTTTTTTTTTTTTTTTTTTTTTTTTTTT PDIG        TELAPSE      867.14 TCPU      818.50
 TOTAL ATOMIC CHARGES:
   1.1663481   1.1663481   1.1663481   1.1663481   1.2651518   1.2651518
   1.2651518   1.2651518   1.0470825   1.0470825   1.0470825   1.0470825
   6.0267785   6.0267785   6.0267785   6.0267785   5.7489680   5.7489680
   5.7489680   5.7489680   6.1376079   6.1376079   6.1376079   6.1376079
   5.4639603   5.4639603   5.4639603   5.4639603   5.9742349   5.9742349
   5.9742349   5.9742349   6.0624827   6.0624827   6.0624827   6.0624827
   7.1764638   7.1764638   7.1764638   7.1764638   7.0755380   7.0755380
   7.0755380   7.0755380   7.1259926   7.1259926   7.1259926   7.1259926
   7.0392844   7.0392844   7.0392844   7.0392844   7.0833215   7.0833215
   7.0833215   7.0833215  17.1821602  17.1821602  17.1821602  17.1821602
  28.8453480  28.8531514
 TTTTTTTTTTTTTTTTTTTTTTTTTTTTTT MOQGAD      TELAPSE      867.19 TCPU      818.55
 TTTTTTTTTTTTTTTTTTTTTTTTTTTTTT SHELLXN     TELAPSE      952.81 TCPU      901.65
 TTTTTTTTTTTTTTTTTTTTTTTTTTTTTT MONMO3      TELAPSE      965.72 TCPU      914.53
 NUMERICALLY INTEGRATED DENSITY    424.0000258371
 TTTTTTTTTTTTTTTTTTTTTTTTTTTTTT NUMDFT      TELAPSE      972.82 TCPU      921.60
 CYC   7 ETOT(AU) -7.410824782563E+03 DETOT -4.19E-03 tst  4.27E-05 PX  1.40E-02
 TTTTTTTTTTTTTTTTTTTTTTTTTTTTTT DIIS        TELAPSE      977.19 TCPU      925.96
 DIIS TEST: 0.13312E-01 AT SCF   CYCLE   7 - DIIS ACTIVE - HISTORY:     7 CYCLES
 TTTTTTTTTTTTTTTTTTTTTTTTTTTTTT FDIK        TELAPSE      989.59 TCPU      935.01
 INSULATING STATE
 TOP OF VALENCE BANDS -    BAND    212; K    2; EIG -2.4196245E-01 AU
 TOP OF VALENCE BANDS -    BAND    212; K    1; EIG -2.4224035E-01 AU
 BOTTOM OF VIRTUAL BANDS - BAND    213; K    3; EIG -1.2366325E-01 AU
 INDIRECT ENERGY BAND GAP:   3.2191 eV
 BOTTOM OF VIRTUAL BANDS - BAND    213; K    1; EIG -1.1982616E-01 AU
 TTTTTTTTTTTTTTTTTTTTTTTTTTTTTT PDIG        TELAPSE      990.16 TCPU      935.58
 TOTAL ATOMIC CHARGES:
   1.1656988   1.1656988   1.1656988   1.1656988   1.2623810   1.2623810
   1.2623810   1.2623810   1.0457220   1.0457220   1.0457220   1.0457220
   6.0206768   6.0206768   6.0206768   6.0206768   5.7501010   5.7501010
   5.7501010   5.7501010   6.1352964   6.1352964   6.1352964   6.1352964
   5.4843097   5.4843097   5.4843097   5.4843097   5.9790772   5.9790772
   5.9790772   5.9790772   6.0638202   6.0638202   6.0638202   6.0638202
   7.1577147   7.1577147   7.1577147   7.1577147   7.0526574   7.0526574
   7.0526574   7.0526574   7.1415875   7.1415875   7.1415875   7.1415875
   7.0547205   7.0547205   7.0547205   7.0547205   7.0800878   7.0800878
   7.0800878   7.0800878  17.1819683  17.1819683  17.1819683  17.1819683
  28.8435810  28.8531424
 TTTTTTTTTTTTTTTTTTTTTTTTTTTTTT MOQGAD      TELAPSE      990.21 TCPU      935.63
 TTTTTTTTTTTTTTTTTTTTTTTTTTTTTT SHELLXN     TELAPSE     1073.81 TCPU     1018.85
 TTTTTTTTTTTTTTTTTTTTTTTTTTTTTT MONMO3      TELAPSE     1088.97 TCPU     1033.98
 NUMERICALLY INTEGRATED DENSITY    424.0000258624
 TTTTTTTTTTTTTTTTTTTTTTTTTTTTTT NUMDFT      TELAPSE     1096.03 TCPU     1041.01
 CYC   8 ETOT(AU) -7.410826774751E+03 DETOT -1.99E-03 tst  7.97E-06 PX  7.53E-03
 TTTTTTTTTTTTTTTTTTTTTTTTTTTTTT DIIS        TELAPSE     1096.50 TCPU     1041.48
 DIIS TEST: 0.14464E-02 AT SCF   CYCLE   8 - DIIS ACTIVE - HISTORY:     8 CYCLES
 TTTTTTTTTTTTTTTTTTTTTTTTTTTTTT FDIK        TELAPSE     1106.04 TCPU     1049.72
 INSULATING STATE
 TOP OF VALENCE BANDS -    BAND    212; K    2; EIG -2.4227474E-01 AU
 TOP OF VALENCE BANDS -    BAND    212; K    1; EIG -2.4257017E-01 AU
 BOTTOM OF VIRTUAL BANDS - BAND    213; K    3; EIG -1.2357865E-01 AU
 INDIRECT ENERGY BAND GAP:   3.2299 eV
 BOTTOM OF VIRTUAL BANDS - BAND    213; K    1; EIG -1.1968847E-01 AU
 TTTTTTTTTTTTTTTTTTTTTTTTTTTTTT PDIG        TELAPSE     1106.62 TCPU     1050.29
 TOTAL ATOMIC CHARGES:
   1.1648703   1.1648703   1.1648703   1.1648703   1.2613870   1.2613870
   1.2613870   1.2613870   1.0467829   1.0467829   1.0467829   1.0467829
   6.0284013   6.0284013   6.0284013   6.0284013   5.7465536   5.7465536
   5.7465536   5.7465536   6.1373537   6.1373537   6.1373537   6.1373537
   5.4715301   5.4715301   5.4715301   5.4715301   5.9799806   5.9799806
   5.9799806   5.9799806   6.0589854   6.0589854   6.0589854   6.0589854
   7.1585076   7.1585076   7.1585076   7.1585076   7.0569800   7.0569800
   7.0569800   7.0569800   7.1408623   7.1408623   7.1408623   7.1408623
   7.0505031   7.0505031   7.0505031   7.0505031   7.0851654   7.0851654
   7.0851654   7.0851654  17.1861903  17.1861903  17.1861903  17.1861903
  28.8474702  28.8563152
 TTTTTTTTTTTTTTTTTTTTTTTTTTTTTT MOQGAD      TELAPSE     1106.67 TCPU     1050.34
 TTTTTTTTTTTTTTTTTTTTTTTTTTTTTT SHELLXN     TELAPSE     1190.79 TCPU     1133.36
 TTTTTTTTTTTTTTTTTTTTTTTTTTTTTT MONMO3      TELAPSE     1203.23 TCPU     1145.74
 NUMERICALLY INTEGRATED DENSITY    424.0000260615
 TTTTTTTTTTTTTTTTTTTTTTTTTTTTTT NUMDFT      TELAPSE     1210.20 TCPU     1152.68
 CYC   9 ETOT(AU) -7.410826965274E+03 DETOT -1.91E-04 tst  6.04E-07 PX  3.44E-03
 TTTTTTTTTTTTTTTTTTTTTTTTTTTTTT DIIS        TELAPSE     1210.37 TCPU     1152.84
 DIIS TEST: 0.31468E-03 AT SCF   CYCLE   9 - DIIS ACTIVE - HISTORY:     9 CYCLES
 TTTTTTTTTTTTTTTTTTTTTTTTTTTTTT FDIK        TELAPSE     1219.11 TCPU     1161.47
 INSULATING STATE
 TOP OF VALENCE BANDS -    BAND    212; K    2; EIG -2.4217277E-01 AU
 TOP OF VALENCE BANDS -    BAND    212; K    1; EIG -2.4247082E-01 AU
 BOTTOM OF VIRTUAL BANDS - BAND    213; K    3; EIG -1.2356574E-01 AU
 INDIRECT ENERGY BAND GAP:   3.2275 eV
 BOTTOM OF VIRTUAL BANDS - BAND    213; K    1; EIG -1.1965444E-01 AU
 TTTTTTTTTTTTTTTTTTTTTTTTTTTTTT PDIG        TELAPSE     1219.70 TCPU     1162.06
 TOTAL ATOMIC CHARGES:
   1.1649846   1.1649846   1.1649846   1.1649846   1.2620212   1.2620212
   1.2620212   1.2620212   1.0466097   1.0466097   1.0466097   1.0466097
   6.0250265   6.0250265   6.0250265   6.0250265   5.7466237   5.7466237
   5.7466237   5.7466237   6.1372579   6.1372579   6.1372579   6.1372579
   5.4747721   5.4747721   5.4747721   5.4747721   5.9760226   5.9760226
   5.9760226   5.9760226   6.0624562   6.0624562   6.0624562   6.0624562
   7.1592464   7.1592464   7.1592464   7.1592464   7.0568428   7.0568428
   7.0568428   7.0568428   7.1400940   7.1400940   7.1400940   7.1400940
   7.0532390   7.0532390   7.0532390   7.0532390   7.0849629   7.0849629
   7.0849629   7.0849629  17.1843472  17.1843472  17.1843472  17.1843472
  28.8465041  28.8554689
 TTTTTTTTTTTTTTTTTTTTTTTTTTTTTT MOQGAD      TELAPSE     1219.75 TCPU     1162.10
 TTTTTTTTTTTTTTTTTTTTTTTTTTTTTT SHELLXN     TELAPSE     1303.25 TCPU     1245.28
 TTTTTTTTTTTTTTTTTTTTTTTTTTTTTT MONMO3      TELAPSE     1315.93 TCPU     1257.93
 NUMERICALLY INTEGRATED DENSITY    424.0000260138
 TTTTTTTTTTTTTTTTTTTTTTTTTTTTTT NUMDFT      TELAPSE     1322.86 TCPU     1264.84
 CYC  10 ETOT(AU) -7.410826999333E+03 DETOT -3.41E-05 tst  1.75E-07 PX  1.32E-03
 TTTTTTTTTTTTTTTTTTTTTTTTTTTTTT DIIS        TELAPSE     1344.88 TCPU     1286.79
 DIIS TEST: 0.91845E-04 AT SCF   CYCLE  10 - DIIS ACTIVE - HISTORY:    10 CYCLES
 TTTTTTTTTTTTTTTTTTTTTTTTTTTTTT FDIK        TELAPSE     1379.89 TCPU     1309.84
 INSULATING STATE
 TOP OF VALENCE BANDS -    BAND    212; K    2; EIG -2.4219256E-01 AU
 TOP OF VALENCE BANDS -    BAND    212; K    1; EIG -2.4248924E-01 AU
 BOTTOM OF VIRTUAL BANDS - BAND    213; K    3; EIG -1.2362962E-01 AU
 INDIRECT ENERGY BAND GAP:   3.2263 eV
 BOTTOM OF VIRTUAL BANDS - BAND    213; K    1; EIG -1.1975911E-01 AU
 TTTTTTTTTTTTTTTTTTTTTTTTTTTTTT PDIG        TELAPSE     1380.47 TCPU     1310.42
 TOTAL ATOMIC CHARGES:
   1.1651200   1.1651200   1.1651200   1.1651200   1.2618541   1.2618541
   1.2618541   1.2618541   1.0465743   1.0465743   1.0465743   1.0465743
   6.0253806   6.0253806   6.0253806   6.0253806   5.7481544   5.7481544
   5.7481544   5.7481544   6.1369130   6.1369130   6.1369130   6.1369130
   5.4750001   5.4750001   5.4750001   5.4750001   5.9784355   5.9784355
   5.9784355   5.9784355   6.0604696   6.0604696   6.0604696   6.0604696
   7.1586611   7.1586611   7.1586611   7.1586611   7.0561913   7.0561913
   7.0561913   7.0561913   7.1409672   7.1409672   7.1409672   7.1409672
   7.0526818   7.0526818   7.0526818   7.0526818   7.0844773   7.0844773
   7.0844773   7.0844773  17.1841173  17.1841173  17.1841173  17.1841173
  28.8455627  28.8544469
 TTTTTTTTTTTTTTTTTTTTTTTTTTTTTT MOQGAD      TELAPSE     1380.52 TCPU     1310.47
 TTTTTTTTTTTTTTTTTTTTTTTTTTTTTT SHELLXN     TELAPSE     1468.42 TCPU     1393.60
 TTTTTTTTTTTTTTTTTTTTTTTTTTTTTT MONMO3      TELAPSE     1481.32 TCPU     1406.47
 NUMERICALLY INTEGRATED DENSITY    424.0000259760
 TTTTTTTTTTTTTTTTTTTTTTTTTTTTTT NUMDFT      TELAPSE     1488.25 TCPU     1413.37
 CYC  11 ETOT(AU) -7.410827010278E+03 DETOT -1.09E-05 tst  5.06E-08 PX  7.53E-04
 TTTTTTTTTTTTTTTTTTTTTTTTTTTTTT DIIS        TELAPSE     1488.47 TCPU     1413.59
 DIIS TEST: 0.14895E-04 AT SCF   CYCLE  11 - DIIS ACTIVE - HISTORY:    11 CYCLES
 TTTTTTTTTTTTTTTTTTTTTTTTTTTTTT FDIK        TELAPSE     1497.98 TCPU     1421.84
 INSULATING STATE
 TOP OF VALENCE BANDS -    BAND    212; K    2; EIG -2.4219412E-01 AU
 TOP OF VALENCE BANDS -    BAND    212; K    1; EIG -2.4249100E-01 AU
 BOTTOM OF VIRTUAL BANDS - BAND    213; K    3; EIG -1.2358416E-01 AU
 INDIRECT ENERGY BAND GAP:   3.2275 eV
 BOTTOM OF VIRTUAL BANDS - BAND    213; K    1; EIG -1.1969165E-01 AU
 TTTTTTTTTTTTTTTTTTTTTTTTTTTTTT PDIG        TELAPSE     1498.55 TCPU     1422.41
 TOTAL ATOMIC CHARGES:
   1.1650724   1.1650724   1.1650724   1.1650724   1.2618751   1.2618751
   1.2618751   1.2618751   1.0464860   1.0464860   1.0464860   1.0464860
   6.0255598   6.0255598   6.0255598   6.0255598   5.7472375   5.7472375
   5.7472375   5.7472375   6.1372739   6.1372739   6.1372739   6.1372739
   5.4745372   5.4745372   5.4745372   5.4745372   5.9778873   5.9778873
   5.9778873   5.9778873   6.0612490   6.0612490   6.0612490   6.0612490
   7.1584877   7.1584877   7.1584877   7.1584877   7.0567304   7.0567304
   7.0567304   7.0567304   7.1404117   7.1404117   7.1404117   7.1404117
   7.0527490   7.0527490   7.0527490   7.0527490   7.0845462   7.0845462
   7.0845462   7.0845462  17.1845809  17.1845809  17.1845809  17.1845809
  28.8460898  28.8551737
 TTTTTTTTTTTTTTTTTTTTTTTTTTTTTT MOQGAD      TELAPSE     1498.60 TCPU     1422.46
 TTTTTTTTTTTTTTTTTTTTTTTTTTTTTT SHELLXN     TELAPSE     1582.11 TCPU     1505.47
 TTTTTTTTTTTTTTTTTTTTTTTTTTTTTT MONMO3      TELAPSE     1595.56 TCPU     1518.89
 NUMERICALLY INTEGRATED DENSITY    424.0000260038
 TTTTTTTTTTTTTTTTTTTTTTTTTTTTTT NUMDFT      TELAPSE     1602.45 TCPU     1525.76
 CYC  12 ETOT(AU) -7.410827011550E+03 DETOT -1.27E-06 tst  6.85E-09 PX  2.81E-04
 TTTTTTTTTTTTTTTTTTTTTTTTTTTTTT DIIS        TELAPSE     1602.67 TCPU     1525.97
 DIIS TEST: 0.46640E-05 AT SCF   CYCLE  12 - DIIS ACTIVE - HISTORY:    12 CYCLES
 TTTTTTTTTTTTTTTTTTTTTTTTTTTTTT FDIK        TELAPSE     1614.04 TCPU     1535.14
 INSULATING STATE
 TOP OF VALENCE BANDS -    BAND    212; K    2; EIG -2.4219688E-01 AU
 TOP OF VALENCE BANDS -    BAND    212; K    1; EIG -2.4249409E-01 AU
 BOTTOM OF VIRTUAL BANDS - BAND    213; K    3; EIG -1.2359713E-01 AU
 INDIRECT ENERGY BAND GAP:   3.2273 eV
 BOTTOM OF VIRTUAL BANDS - BAND    213; K    1; EIG -1.1970992E-01 AU
 TTTTTTTTTTTTTTTTTTTTTTTTTTTTTT PDIG        TELAPSE     1614.61 TCPU     1535.71
 TOTAL ATOMIC CHARGES:
   1.1651052   1.1651052   1.1651052   1.1651052   1.2618774   1.2618774
   1.2618774   1.2618774   1.0465693   1.0465693   1.0465693   1.0465693
   6.0256213   6.0256213   6.0256213   6.0256213   5.7473961   5.7473961
   5.7473961   5.7473961   6.1369997   6.1369997   6.1369997   6.1369997
   5.4745944   5.4745944   5.4745944   5.4745944   5.9777290   5.9777290
   5.9777290   5.9777290   6.0610629   6.0610629   6.0610629   6.0610629
   7.1590100   7.1590100   7.1590100   7.1590100   7.0561473   7.0561473
   7.0561473   7.0561473   7.1408113   7.1408113   7.1408113   7.1408113
   7.0526023   7.0526023   7.0526023   7.0526023   7.0847346   7.0847346
   7.0847346   7.0847346  17.1844937  17.1844937  17.1844937  17.1844937
[...]
 TTTTTTTTTTTTTTTTTTTTTTTTTTTTTT CP_SC       TELAPSE   354113.17 TCPU   350733.68

 *******************************************************************************

 ELECTRIC FIELD APPLIED ALONG CARTESIAN DIRECTION Z

 *******************************************************************************
 THE NUMBER OF SYMMETRY OPERATORS HAS BEEN REDUCED FROM  4 TO  2

 NEW GRID IN RECIPROCAL SPACE
 *******************************************************************************
 POINTS IN THE IBZ                  10 SHRINKING FACTORS               3  3  3
 *******************************************************************************
 *** K POINTS COORDINATES (OBLIQUE COORDINATES IN UNITS OF SHRINK FAC. )
   1-R(  0  0  0)   2-C(  1  0  0)   3-C(  2  0  1)   4-C(  1  1  0)
   5-C(  1  0  1)   6-C(  2  1  0)   7-C(  0  0  2)   8-C(  2  1  1)
   9-C(  2  1  2)  10-C(  2  2  1)

 GCALCO - MAX INDICES DIRECT LATTICE VECTOR    14    14    16
 NO.OF VECTORS CREATED 6999 STARS  486 RMAX   202.59781 BOHR
 TTTTTTTTTTTTTTTTTTTTTTTTTTTTTT gordsh1     TELAPSE   354113.18 TCPU   350733.69

 MATRIX SIZE: P(G) 1838888, F(G)  920208, P(G) IRR  463484, F(G) IRR  463484
 MAX G-VECTOR INDEX FOR 1- AND 2-ELECTRON INTEGRALS  59

 TTTTTTTTTTTTTTTTTTTTTTTTTTTTTT INPUT       TELAPSE   354113.27 TCPU   350733.78
 TTTTTTTTTTTTTTTTTTTTTTTTTTTTTT SYMM        TELAPSE   354113.27 TCPU   350733.78

 ***** NEW REFERENCE GEOMETRY *****
 TTTTTTTTTTTTTTTTTTTTTTTTTTTTTT INT_SCREEN  TELAPSE   354113.28 TCPU   350733.79
 INFORMATION **** EXCBUF **** EXCH. BIPO BUFFER: WORDS USED =           0

 DFT PARAMETERS

     ATOM       ELECTRONS   NET CHARGE   R(ANGSTROM)
   1   1  H       1.0000      0.0000     1.11000000
  13   6  C       6.0000      0.0000     0.77000000
  37   7  N       7.0000      0.0000     0.74000000
  57  17  CL     17.0000      0.0000     0.99000000
  61  30  ZN     30.0000      0.0000     1.37000000

 SIZE OF GRID=     912748
 TTTTTTTTTTTTTTTTTTTTTTTTTTTTTT MAKE_GRID2  TELAPSE   354114.77 TCPU   350735.27
 BECKE WEIGHT FUNCTION
 RADSAFE =     2.00
 TOLERANCES - DENSITY:10**- 6; POTENTIAL:10**- 9; GRID WGT:10**-14

 RADIAL INTEGRATION  - INTERVALS (POINTS,UPPER LIMIT):            1( 75,  4.0*R)

 ANGULAR INTEGRATION - INTERVALS (ACCURACY LEVEL [N. POINTS] UPPER LIMIT):
  1(  4[  86]   0.2)  2(  8[ 194]   0.5)  3( 12[ 350]   0.9)  4( 16[ 974]   3.5)
  5( 12[ 350]9999.0)
 TTTTTTTTTTTTTTTTTTTTTTTTTTTTTT INT_CALC    TELAPSE   354114.85 TCPU   350735.35
 CYCLE   0   ALPHA  629.324699  EPSILON    2.606892  DELTA    6.2932E+02
 TTTTTTTTTTTTTTTTTTTTTTTTTTTTTT MOQGAD      TELAPSE   354907.22 TCPU   351524.49
 TTTTTTTTTTTTTTTTTTTTTTTTTTTTTT CP_MONMON   TELAPSE   354924.74 TCPU   351541.93
 DIIS TEST: 0.66426E+02 AT CPHF  CYCLE   1 - MIX    0 %
 CYCLE   1   ALPHA  352.330912  EPSILON    1.899627  DELTA   -2.7699E+02
 TTTTTTTTTTTTTTTTTTTTTTTTTTTTTT MOQGAD      TELAPSE   355723.02 TCPU   352334.20
 TTTTTTTTTTTTTTTTTTTTTTTTTTTTTT CP_MONMON   TELAPSE   355740.40 TCPU   352351.55
 DIIS TEST: 0.43291E+03 AT CPHF  CYCLE   2 - DIIS ACTIVE - HISTORY:     2 CYCLES
 CYCLE   2   ALPHA  469.811597  EPSILON    2.199598  DELTA    1.1748E+02
 TTTTTTTTTTTTTTTTTTTTTTTTTTTTTT MOQGAD      TELAPSE   356540.66 TCPU   353143.58
 TTTTTTTTTTTTTTTTTTTTTTTTTTTTTT CP_MONMON   TELAPSE   356558.21 TCPU   353161.04
 DIIS TEST: 0.28242E+02 AT CPHF  CYCLE   3 - DIIS ACTIVE - HISTORY:     3 CYCLES
 CYCLE   3   ALPHA  502.041410  EPSILON    2.281892  DELTA    3.2230E+01
 TTTTTTTTTTTTTTTTTTTTTTTTTTTTTT MOQGAD      TELAPSE   357361.89 TCPU   353958.17
 TTTTTTTTTTTTTTTTTTTTTTTTTTTTTT CP_MONMON   TELAPSE   357379.28 TCPU   353975.51
 DIIS TEST: 0.16884E+03 AT CPHF  CYCLE   4 - DIIS ACTIVE - HISTORY:     4 CYCLES
 CYCLE   4   ALPHA  502.320913  EPSILON    2.282605  DELTA    2.7950E-01
 TTTTTTTTTTTTTTTTTTTTTTTTTTTTTT MOQGAD      TELAPSE   358183.12 TCPU   354772.47
 TTTTTTTTTTTTTTTTTTTTTTTTTTTTTT CP_MONMON   TELAPSE   358200.52 TCPU   354789.83
 DIIS TEST: 0.75824E+01 AT CPHF  CYCLE   5 - DIIS ACTIVE - HISTORY:     5 CYCLES
 CYCLE   5   ALPHA  503.125325  EPSILON    2.284659  DELTA    8.0441E-01
 TTTTTTTTTTTTTTTTTTTTTTTTTTTTTT MOQGAD      TELAPSE   358997.26 TCPU   355580.03
 TTTTTTTTTTTTTTTTTTTTTTTTTTTTTT CP_MONMON   TELAPSE   359014.65 TCPU   355597.32
 DIIS TEST: 0.24407E+00 AT CPHF  CYCLE   6 - DIIS ACTIVE - HISTORY:     6 CYCLES
 CYCLE   6   ALPHA  503.302237  EPSILON    2.285111  DELTA    1.7691E-01
 TTTTTTTTTTTTTTTTTTTTTTTTTTTTTT MOQGAD      TELAPSE   359820.52 TCPU   356395.00
 TTTTTTTTTTTTTTTTTTTTTTTTTTTTTT CP_MONMON   TELAPSE   359838.03 TCPU   356412.47
 DIIS TEST: 0.12815E+01 AT CPHF  CYCLE   7 - DIIS ACTIVE - HISTORY:     7 CYCLES
 CYCLE   7   ALPHA  503.302923  EPSILON    2.285113  DELTA    6.8675E-04
 TTTTTTTTTTTTTTTTTTTTTTTTTTTTTT CP_SC       TELAPSE   359873.89 TCPU   356443.29

 *******************************************************************************

 POLARIZABILITY (ALPHA), DIELECTRIC (EPSILON) AND FIRST-ORDER ELECTRIC
 SUSCEPTIBILITY (CHI(1)) TENSORS (INDEPENDENT COMPONENTS)

  FR.(eV) COMP.   ALPHA(Re,Im)           EPSILON(Re,Im)                CHI(1)
  1.435   XX    1084.8168       0.0000       3.7699       0.0000       2.7699
  1.435   ZZ     503.3029       0.0000       2.2851       0.0000       1.2851

 DIELECTRIC TENSOR

 TENSOR IN PRINCIPAL AXES SYSTEM
 AA  3.769926E+00 BB  3.769926E+00 CC  2.285113E+00

 REFRACTIVE INDICES 
 AA  1.511659E+00 BB  1.941630E+00 CC  1.941630E+00

 OPTICALLY ANISOTROPIC - UNIAXIAL CRYSTAL

 BIREFRINGENCE =  0.4300 (NEGATIVE) - OBLATE OPTICAL ELLIPSOID

 EPSILON=N**2=1+CHI(1)=1+ALPHA*4*PI/V,   4*PI/V=   0.00255 BOHR**(-3)
 ALPHA IN BOHR**3; EPSILON AND CHI(1) ARE DIMENSIONLESS.
 *******************************************************************************

 DYNAMIC FIELD: RUN 10/ 10 - RADIATION WAVELENGTH: 1064.0000 NM

 *******************************************************************************

 ELECTRIC FIELD APPLIED ALONG CARTESIAN DIRECTION X

 *******************************************************************************
 THE NUMBER OF SYMMETRY OPERATORS HAS BEEN REDUCED FROM  4 TO  1

 NEW GRID IN RECIPROCAL SPACE
 *******************************************************************************
 POINTS IN THE IBZ                  14 SHRINKING FACTORS               3  3  3
 *******************************************************************************
 *** K POINTS COORDINATES (OBLIQUE COORDINATES IN UNITS OF SHRINK FAC. )
   1-R(  0  0  0)   2-C(  1  0  0)   3-C(  0  1  2)   4-C(  2  0  1)
   5-C(  0  2  0)   6-C(  1  1  0)   7-C(  1  1  1)   8-C(  1  0  1)
   9-C(  0  1  1)  10-C(  2  1  0)  11-C(  0  0  2)  12-C(  2  1  1)
  13-C(  2  1  2)  14-C(  2  2  1)

 GCALCO - MAX INDICES DIRECT LATTICE VECTOR    14    14    16
 NO.OF VECTORS CREATED 6999 STARS  486 RMAX   202.59781 BOHR
 TTTTTTTTTTTTTTTTTTTTTTTTTTTTTT gordsh1     TELAPSE   359873.90 TCPU   356443.30

 MATRIX SIZE: P(G) 1838888, F(G)  920208, P(G) IRR  921914, F(G) IRR  921914
 MAX G-VECTOR INDEX FOR 1- AND 2-ELECTRON INTEGRALS  59

 TTTTTTTTTTTTTTTTTTTTTTTTTTTTTT INPUT       TELAPSE   359874.24 TCPU   356443.63
 TTTTTTTTTTTTTTTTTTTTTTTTTTTTTT SYMM        TELAPSE   359874.24 TCPU   356443.63

 ***** NEW REFERENCE GEOMETRY *****
 TTTTTTTTTTTTTTTTTTTTTTTTTTTTTT INT_SCREEN  TELAPSE   359874.25 TCPU   356443.65
 INFORMATION **** EXCBUF **** EXCH. BIPO BUFFER: WORDS USED =           0

 DFT PARAMETERS

     ATOM       ELECTRONS   NET CHARGE   R(ANGSTROM)
   1   1  H       1.0000      0.0000     1.11000000
  13   6  C       6.0000      0.0000     0.77000000
  37   7  N       7.0000      0.0000     0.74000000
  57  17  CL     17.0000      0.0000     0.99000000
  61  30  ZN     30.0000      0.0000     1.37000000

 SIZE OF GRID=    1825264
 TTTTTTTTTTTTTTTTTTTTTTTTTTTTTT MAKE_GRID2  TELAPSE   359876.64 TCPU   356446.03
 BECKE WEIGHT FUNCTION
 RADSAFE =     2.00
 TOLERANCES - DENSITY:10**- 6; POTENTIAL:10**- 9; GRID WGT:10**-14

 RADIAL INTEGRATION  - INTERVALS (POINTS,UPPER LIMIT):            1( 75,  4.0*R)

 ANGULAR INTEGRATION - INTERVALS (ACCURACY LEVEL [N. POINTS] UPPER LIMIT):
  1(  4[  86]   0.2)  2(  8[ 194]   0.5)  3( 12[ 350]   0.9)  4( 16[ 974]   3.5)
  5( 12[ 350]9999.0)
 TTTTTTTTTTTTTTTTTTTTTTTTTTTTTT INT_CALC    TELAPSE   359876.76 TCPU   356446.15
 CYCLE   0   ALPHA 1439.919784  EPSILON    4.676632  DELTA    1.4399E+03
 TTTTTTTTTTTTTTTTTTTTTTTTTTTTTT MOQGAD      TELAPSE   361453.25 TCPU   358017.28
 TTTTTTTTTTTTTTTTTTTTTTTTTTTTTT CP_MONMON   TELAPSE   361486.06 TCPU   358050.01
 DIIS TEST: 0.32901E+03 AT CPHF  CYCLE   1 - MIX    0 %
 CYCLE   1   ALPHA  282.417001  EPSILON    1.721112  DELTA   -1.1575E+03
 TTTTTTTTTTTTTTTTTTTTTTTTTTTTTT MOQGAD      TELAPSE   363074.01 TCPU   359630.91
 TTTTTTTTTTTTTTTTTTTTTTTTTTTTTT CP_MONMON   TELAPSE   363106.91 TCPU   359663.69
 DIIS TEST: 0.28342E+04 AT CPHF  CYCLE   2 - DIIS ACTIVE - HISTORY:     2 CYCLES
 CYCLE   2   ALPHA  985.525377  EPSILON    3.516400  DELTA    7.0311E+02
 TTTTTTTTTTTTTTTTTTTTTTTTTTTTTT MOQGAD      TELAPSE   364677.51 TCPU   361227.56
 TTTTTTTTTTTTTTTTTTTTTTTTTTTTTT CP_MONMON   TELAPSE   364710.35 TCPU   361260.27
 DIIS TEST: 0.79130E+02 AT CPHF  CYCLE   3 - DIIS ACTIVE - HISTORY:     3 CYCLES
 CYCLE   3   ALPHA 1044.277895  EPSILON    3.666416  DELTA    5.8753E+01
 TTTTTTTTTTTTTTTTTTTTTTTTTTTTTT MOQGAD      TELAPSE   366299.39 TCPU   362837.54
 TTTTTTTTTTTTTTTTTTTTTTTTTTTTTT CP_MONMON   TELAPSE   366332.48 TCPU   362870.49
 DIIS TEST: 0.68760E+01 AT CPHF  CYCLE   4 - DIIS ACTIVE - HISTORY:     4 CYCLES
 CYCLE   4   ALPHA 1057.081905  EPSILON    3.699109  DELTA    1.2804E+01
 TTTTTTTTTTTTTTTTTTTTTTTTTTTTTT MOQGAD      TELAPSE   367913.96 TCPU   364442.91
 TTTTTTTTTTTTTTTTTTTTTTTTTTTTTT CP_MONMON   TELAPSE   367946.78 TCPU   364475.63
 DIIS TEST: 0.82868E+00 AT CPHF  CYCLE   5 - DIIS ACTIVE - HISTORY:     5 CYCLES
 CYCLE   5   ALPHA 1061.361423  EPSILON    3.710036  DELTA    4.2795E+00
 TTTTTTTTTTTTTTTTTTTTTTTTTTTTTT MOQGAD      TELAPSE   369560.53 TCPU   366079.32
 TTTTTTTTTTTTTTTTTTTTTTTTTTTTTT CP_MONMON   TELAPSE   369593.57 TCPU   366112.20
 DIIS TEST: 0.12688E+00 AT CPHF  CYCLE   6 - DIIS ACTIVE - HISTORY:     6 CYCLES
 CYCLE   6   ALPHA 1063.039309  EPSILON    3.714321  DELTA    1.6779E+00
 TTTTTTTTTTTTTTTTTTTTTTTTTTTTTT MOQGAD      TELAPSE   371238.72 TCPU   367748.06
 TTTTTTTTTTTTTTTTTTTTTTTTTTTTTT CP_MONMON   TELAPSE   371271.46 TCPU   367780.69
 DIIS TEST: 0.61586E-01 AT CPHF  CYCLE   7 - DIIS ACTIVE - HISTORY:     7 CYCLES
 CYCLE   7   ALPHA 1063.065066  EPSILON    3.714386  DELTA    2.5757E-02
 TTTTTTTTTTTTTTTTTTTTTTTTTTTTTT MOQGAD      TELAPSE   372879.80 TCPU   369377.86
 TTTTTTTTTTTTTTTTTTTTTTTTTTTTTT CP_MONMON   TELAPSE   372912.59 TCPU   369410.48
 DIIS TEST: 0.13803E+00 AT CPHF  CYCLE   8 - DIIS ACTIVE - HISTORY:     8 CYCLES
 CYCLE   8   ALPHA 1063.277564  EPSILON    3.714929  DELTA    2.1250E-01
 TTTTTTTTTTTTTTTTTTTTTTTTTTTTTT MOQGAD      TELAPSE   374475.58 TCPU   370967.31
 TTTTTTTTTTTTTTTTTTTTTTTTTTTTTT CP_MONMON   TELAPSE   374508.32 TCPU   370999.98
 DIIS TEST: 0.18179E-02 AT CPHF  CYCLE   9 - DIIS ACTIVE - HISTORY:     9 CYCLES
 CYCLE   9   ALPHA 1063.378409  EPSILON    3.715187  DELTA    1.0084E-01
 TTTTTTTTTTTTTTTTTTTTTTTTTTTTTT MOQGAD      TELAPSE   376082.52 TCPU   372564.51
 TTTTTTTTTTTTTTTTTTTTTTTTTTTTTT CP_MONMON   TELAPSE   376115.36 TCPU   372597.22
 DIIS TEST: 0.27635E-03 AT CPHF  CYCLE  10 - DIIS ACTIVE - HISTORY:    10 CYCLES
 CYCLE  10   ALPHA 1063.360365  EPSILON    3.715140  DELTA   -1.8044E-02
 TTTTTTTTTTTTTTTTTTTTTTTTTTTTTT MOQGAD      TELAPSE   377719.44 TCPU   374192.48
 TTTTTTTTTTTTTTTTTTTTTTTTTTTTTT CP_MONMON   TELAPSE   377752.27 TCPU   374225.18
 DIIS TEST: 0.28424E-04 AT CPHF  CYCLE  11 - DIIS ACTIVE - HISTORY:    11 CYCLES
 CYCLE  11   ALPHA 1063.341531  EPSILON    3.715092  DELTA   -1.8834E-02
 TTTTTTTTTTTTTTTTTTTTTTTTTTTTTT MOQGAD      TELAPSE   379346.60 TCPU   375810.84
 TTTTTTTTTTTTTTTTTTTTTTTTTTTTTT CP_MONMON   TELAPSE   379379.36 TCPU   375843.48
 DIIS TEST: 0.52986E-05 AT CPHF  CYCLE  12 - DIIS ACTIVE - HISTORY:    12 CYCLES
 CYCLE  12   ALPHA 1063.334741  EPSILON    3.715075  DELTA   -6.7907E-03
 TTTTTTTTTTTTTTTTTTTTTTTTTTTTTT MOQGAD      TELAPSE   381045.01 TCPU   377499.15
 TTTTTTTTTTTTTTTTTTTTTTTTTTTTTT CP_MONMON   TELAPSE   381077.82 TCPU   377531.89
 DIIS TEST: 0.81182E-06 AT CPHF  CYCLE  13 - DIIS ACTIVE - HISTORY:    13 CYCLES
 CYCLE  13   ALPHA 1063.333377  EPSILON    3.715072  DELTA   -1.3638E-03
 TTTTTTTTTTTTTTTTTTTTTTTTTTTTTT MOQGAD      TELAPSE   382640.63 TCPU   379084.38
 TTTTTTTTTTTTTTTTTTTTTTTTTTTTTT CP_MONMON   TELAPSE   382673.70 TCPU   379117.34
 DIIS TEST: 0.51910E-07 AT CPHF  CYCLE  14 - DIIS ACTIVE - HISTORY:    14 CYCLES
 CYCLE  14   ALPHA 1063.332864  EPSILON    3.715070  DELTA   -5.1327E-04
 TTTTTTTTTTTTTTTTTTTTTTTTTTTTTT CP_SC       TELAPSE   382722.81 TCPU   379164.32

 *******************************************************************************

 ELECTRIC FIELD APPLIED ALONG CARTESIAN DIRECTION Z

 *******************************************************************************
 THE NUMBER OF SYMMETRY OPERATORS HAS BEEN REDUCED FROM  4 TO  2

 NEW GRID IN RECIPROCAL SPACE
 *******************************************************************************
 POINTS IN THE IBZ                  10 SHRINKING FACTORS               3  3  3
 *******************************************************************************
 *** K POINTS COORDINATES (OBLIQUE COORDINATES IN UNITS OF SHRINK FAC. )
   1-R(  0  0  0)   2-C(  1  0  0)   3-C(  2  0  1)   4-C(  1  1  0)
   5-C(  1  0  1)   6-C(  2  1  0)   7-C(  0  0  2)   8-C(  2  1  1)
   9-C(  2  1  2)  10-C(  2  2  1)

 GCALCO - MAX INDICES DIRECT LATTICE VECTOR    14    14    16
 NO.OF VECTORS CREATED 6999 STARS  486 RMAX   202.59781 BOHR
 TTTTTTTTTTTTTTTTTTTTTTTTTTTTTT gordsh1     TELAPSE   382722.82 TCPU   379164.33

 MATRIX SIZE: P(G) 1838888, F(G)  920208, P(G) IRR  463484, F(G) IRR  463484
 MAX G-VECTOR INDEX FOR 1- AND 2-ELECTRON INTEGRALS  59

 TTTTTTTTTTTTTTTTTTTTTTTTTTTTTT INPUT       TELAPSE   382722.92 TCPU   379164.42
 TTTTTTTTTTTTTTTTTTTTTTTTTTTTTT SYMM        TELAPSE   382722.92 TCPU   379164.42

 ***** NEW REFERENCE GEOMETRY *****
 TTTTTTTTTTTTTTTTTTTTTTTTTTTTTT INT_SCREEN  TELAPSE   382722.93 TCPU   379164.43
 INFORMATION **** EXCBUF **** EXCH. BIPO BUFFER: WORDS USED =           0

 DFT PARAMETERS

     ATOM       ELECTRONS   NET CHARGE   R(ANGSTROM)
   1   1  H       1.0000      0.0000     1.11000000
  13   6  C       6.0000      0.0000     0.77000000
  37   7  N       7.0000      0.0000     0.74000000
  57  17  CL     17.0000      0.0000     0.99000000
  61  30  ZN     30.0000      0.0000     1.37000000

 SIZE OF GRID=     912748
 TTTTTTTTTTTTTTTTTTTTTTTTTTTTTT MAKE_GRID2  TELAPSE   382724.41 TCPU   379165.91
 BECKE WEIGHT FUNCTION
 RADSAFE =     2.00
 TOLERANCES - DENSITY:10**- 6; POTENTIAL:10**- 9; GRID WGT:10**-14

 RADIAL INTEGRATION  - INTERVALS (POINTS,UPPER LIMIT):            1( 75,  4.0*R)

 ANGULAR INTEGRATION - INTERVALS (ACCURACY LEVEL [N. POINTS] UPPER LIMIT):
  1(  4[  86]   0.2)  2(  8[ 194]   0.5)  3( 12[ 350]   0.9)  4( 16[ 974]   3.5)
  5( 12[ 350]9999.0)
 TTTTTTTTTTTTTTTTTTTTTTTTTTTTTT INT_CALC    TELAPSE   382724.49 TCPU   379165.99
 CYCLE   0   ALPHA  623.205193  EPSILON    2.591266  DELTA    6.2321E+02
 TTTTTTTTTTTTTTTTTTTTTTTTTTTTTT MOQGAD      TELAPSE   383515.32 TCPU   379954.71
 TTTTTTTTTTTTTTTTTTTTTTTTTTTTTT CP_MONMON   TELAPSE   383532.81 TCPU   379972.14
 DIIS TEST: 0.64531E+02 AT CPHF  CYCLE   1 - MIX    0 %
 CYCLE   1   ALPHA  352.517203  EPSILON    1.900103  DELTA   -2.7069E+02
 TTTTTTTTTTTTTTTTTTTTTTTTTTTTTT MOQGAD      TELAPSE   384341.81 TCPU   380773.29
 TTTTTTTTTTTTTTTTTTTTTTTTTTTTTT CP_MONMON   TELAPSE   384359.30 TCPU   380790.72
 DIIS TEST: 0.40130E+03 AT CPHF  CYCLE   2 - DIIS ACTIVE - HISTORY:     2 CYCLES
 CYCLE   2   ALPHA  466.608908  EPSILON    2.191420  DELTA    1.1409E+02
 TTTTTTTTTTTTTTTTTTTTTTTTTTTTTT MOQGAD      TELAPSE   385177.16 TCPU   381599.03
 TTTTTTTTTTTTTTTTTTTTTTTTTTTTTT CP_MONMON   TELAPSE   385194.66 TCPU   381616.47
 DIIS TEST: 0.27413E+02 AT CPHF  CYCLE   3 - DIIS ACTIVE - HISTORY:     3 CYCLES
 CYCLE   3   ALPHA  497.860239  EPSILON    2.271216  DELTA    3.1251E+01
 TTTTTTTTTTTTTTTTTTTTTTTTTTTTTT MOQGAD      TELAPSE   385994.05 TCPU   382410.63
 TTTTTTTTTTTTTTTTTTTTTTTTTTTTTT CP_MONMON   TELAPSE   386011.55 TCPU   382428.09
 DIIS TEST: 0.11876E+03 AT CPHF  CYCLE   4 - DIIS ACTIVE - HISTORY:     4 CYCLES
 CYCLE   4   ALPHA  498.034856  EPSILON    2.271662  DELTA    1.7462E-01
 TTTTTTTTTTTTTTTTTTTTTTTTTTTTTT MOQGAD      TELAPSE   386816.35 TCPU   383225.38
 TTTTTTTTTTTTTTTTTTTTTTTTTTTTTT CP_MONMON   TELAPSE   386833.84 TCPU   383242.79
 DIIS TEST: 0.74032E+01 AT CPHF  CYCLE   5 - DIIS ACTIVE - HISTORY:     5 CYCLES
 CYCLE   5   ALPHA  498.776582  EPSILON    2.273556  DELTA    7.4173E-01
 TTTTTTTTTTTTTTTTTTTTTTTTTTTTTT MOQGAD      TELAPSE   387635.77 TCPU   384035.38
 TTTTTTTTTTTTTTTTTTTTTTTTTTTTTT CP_MONMON   TELAPSE   387653.25 TCPU   384052.82
 DIIS TEST: 0.27671E+00 AT CPHF  CYCLE   6 - DIIS ACTIVE - HISTORY:     6 CYCLES
 CYCLE   6   ALPHA  498.947814  EPSILON    2.273993  DELTA    1.7123E-01
 TTTTTTTTTTTTTTTTTTTTTTTTTTTTTT MOQGAD      TELAPSE   388453.89 TCPU   384848.32
 TTTTTTTTTTTTTTTTTTTTTTTTTTTTTT CP_MONMON   TELAPSE   388471.37 TCPU   384865.75
 DIIS TEST: 0.13197E+01 AT CPHF  CYCLE   7 - DIIS ACTIVE - HISTORY:     7 CYCLES
 CYCLE   7   ALPHA  498.948039  EPSILON    2.273993  DELTA    2.2535E-04
 TTTTTTTTTTTTTTTTTTTTTTTTTTTTTT CP_SC       TELAPSE   388509.15 TCPU   384896.47

 *******************************************************************************

 POLARIZABILITY (ALPHA), DIELECTRIC (EPSILON) AND FIRST-ORDER ELECTRIC
 SUSCEPTIBILITY (CHI(1)) TENSORS (INDEPENDENT COMPONENTS)

  FR.(eV) COMP.   ALPHA(Re,Im)           EPSILON(Re,Im)                CHI(1)
  1.165   XX    1063.3329       0.0000       3.7151       0.0000       2.7151
  1.165   ZZ     498.9480       0.0000       2.2740       0.0000       1.2740

 DIELECTRIC TENSOR

 TENSOR IN PRINCIPAL AXES SYSTEM
 AA  3.715070E+00 BB  3.715070E+00 CC  2.273993E+00

 REFRACTIVE INDICES 
 AA  1.507977E+00 BB  1.927452E+00 CC  1.927452E+00

 OPTICALLY ANISOTROPIC - UNIAXIAL CRYSTAL

 BIREFRINGENCE =  0.4195 (NEGATIVE) - OBLATE OPTICAL ELLIPSOID

 EPSILON=N**2=1+CHI(1)=1+ALPHA*4*PI/V,   4*PI/V=   0.00255 BOHR**(-3)
 ALPHA IN BOHR**3; EPSILON AND CHI(1) ARE DIMENSIONLESS.
 *******************************************************************************


 GCALCO - MAX INDICES DIRECT LATTICE VECTOR    14    14    16
 NO.OF VECTORS CREATED 6999 STARS  486 RMAX   202.59781 BOHR

 CAPPA:IS1  3;IS2  3;IS3  3; K PTS MONK NET   6; SYMMOPS:K SPACE   8;G SPACE   4

 TTTTTTTTTTTTTTTTTTTTTTTTTTTTTT END         TELAPSE   388509.22 TCPU   384896.47
 EEEEEEEEEE TERMINATION  DATE 08 12 2023 TIME 00:45:27.5
NODE    0 CPU TIME =    384896.473
NODE    1 CPU TIME =    385811.126
NODE    2 CPU TIME =    385777.614
NODE    3 CPU TIME =    385540.003
NODE    4 CPU TIME =    385529.368
NODE    5 CPU TIME =    385749.049
NODE    6 CPU TIME =    385723.742
NODE    7 CPU TIME =    385544.533
NODE    8 CPU TIME =    385520.850
NODE    9 CPU TIME =    385730.624
NODE   10 CPU TIME =    385334.079
NODE   11 CPU TIME =    385211.000
NODE   12 CPU TIME =    385050.792
NODE   13 CPU TIME =    385442.122
NODE   14 CPU TIME =    385054.060
NODE   15 CPU TIME =    385011.631
NODE   16 CPU TIME =    384628.088
NODE   17 CPU TIME =    385027.262
NODE   18 CPU TIME =    384947.928
NODE   19 CPU TIME =    384753.755
NODE   20 CPU TIME =    384897.922
NODE   21 CPU TIME =    384954.571
NODE   22 CPU TIME =    384986.229
NODE   23 CPU TIME =    384183.609
    TOTAL CPU TIME =   9245306.430
trying normal rsh (/usr/bin/rsh)
exec: No such file or directory
trying normal rsh (/usr/bin/rsh)
exec: No such file or directory
trying normal rsh (/usr/bin/rsh)
exec: No such file or directory
trying normal rsh (/usr/bin/rsh)
exec: No such file or directory
