Loading crystal17/1.0.2/intel/19.0
  Loading requirement: intel/19.0 ompi/4.0.1/intel/19.0
 PROCESS            1  OF           24  WORKING
 PROCESS            4  OF           24  WORKING
 PROCESS            7  OF           24  WORKING
 PROCESS            8  OF           24  WORKING
 PROCESS            2  OF           24  WORKING
 PROCESS            5  OF           24  WORKING
 PROCESS            6  OF           24  WORKING
 PROCESS           11  OF           24  WORKING
 PROCESS           13  OF           24  WORKING
 PROCESS           15  OF           24  WORKING
 PROCESS           19  OF           24  WORKING
 PROCESS           21  OF           24  WORKING
 PROCESS           22  OF           24  WORKING
 PROCESS            0  OF           24  WORKING
 PROCESS           23  OF           24  WORKING
 PROCESS           10  OF           24  WORKING
 PROCESS           16  OF           24  WORKING
 PROCESS           17  OF           24  WORKING
 PROCESS           18  OF           24  WORKING
 PROCESS           20  OF           24  WORKING
 PROCESS            3  OF           24  WORKING

         
 *******************************************************************************
 *                                                                             *
 *                               CRYSTAL17                                     *
 *                      public : 1.0.2 - March 1st, 2018                       *
 *                       HTTP://WWW.CRYSTAL.UNITO.IT                           *
 *                                                                             *
 *                              MAIN AUTHORS                                   *
 *                                                                             *
 *  R. DOVESI(1,11), V.R. SAUNDERS(2), C. ROETTI(1,11), R. ORLANDO(1,11),      *
 *  C.M. ZICOVICH-WILSON(1,3), F. PASCALE(4), B. CIVALLERI(1,11),              *
 *  K. DOLL(5), N.M. HARRISON(2,6), I.J. BUSH(7), Ph. D'ARCO(8),               *
 *  M. LLUNELL(9), M. CAUSA'(10), Y. NOEL(8), L. MASCHIO(1,11), A. ERBA(1,11)  *
 *  M. RE'RAT(14), S. CASASSA(1,11)                                            *
 *                                                                             *
 *        CONTRIBUTIONS TO THE CODE HAVE ALSO BEEN GIVEN BY                    *
 *                                                                             *
 *  M. FERRABONE(1,11), M. DE LA PIERRE(1,11), M. FERRERO(1,11),               *
 *  J. BAIMA(1,11), E. ALBANESE(1,11), M.F. PEINTINGER(12), R. BAST(13),       *
 *  B. KIRTMAN(15), V. LACIVITA(1,11), R. DEMICHELIS(1,16)                     *
 *  G. BRANDEBURG(17), S. SALUSTRO(1,11), G. SANSONE(1,11)                     *
 *  M.T. RUGGIERO(18)                                                          *
 *                                                                             *
 * (1) THEORETICAL CHEMISTRY GROUP - UNIVERSITA' DI TORINO - TORINO (ITALY)    *
 * (2) COMPUTATIONAL SCIENCE & ENGINEERING DEPARTMENT - STFC DARESBURY (UK)    *
 * (3) UNIVERSIDAD AUTONOMA DEL ESTADO DE MORELOS - CUERNAVACA (MEXICO)        *
 * (4) UNIVERSITE' DE LORRAINE - NANCY (FRANCE)                                *
 * (5) UNIVERSITAET STUTTGART- STUTTGART (GERMANY)                             *
 * (6) IMPERIAL COLLEGE - LONDON (UK)                                          *
 * (7) OXFORD E-RESEARCH CENTRE - OXFORD (UK)                                  *
 * (8) UPMC - SORBONNE UNIVERSITES - PARIS (FRANCE)                            *
 * (9) UNIVERSIDAD DE BARCELONA - BARCELONA (SPAIN)                            *
 *(10) UNIVERSITA' DI NAPOLI "FEDERICO II" - NAPOLI (ITALY)                    *
 *(11) NIS - NANOSTRUCTURED INTERFACES AND SURFACES - TORINO (ITALY)           *
 *(12) MPI FUER CHEMISCHE ENERGIEKONVERSION - MUELHEIM AN DER RUHR (GERMANY)   *
 *(13) UNIVERSITY OF TROMSO - TROMSO (NORWAY)                                  *
 *(14) UNIVERSITE' DE PAU ET DES PAYS DE L'ADOUR - PAU (FRANCE)                *
 *(15) UNIVERSITY OF CALIFORNIA SANTA BARBARA - SANTA BARBARA (USA)            *
 *(16) CURTIN UNIVERSITY - PERTH (AUSTRALIA)                                   *
 *(17) UNIVERSITY COLLEGE LONDON - LONDON (UK)                                 *
 *(18) CAMBRIDGE UNIVERSITY - CAMBRIDGE (UK)                                   *
 *                                                                             *
 *******************************************************************************
 EEEEEEEEEE STARTING  DATE 04 12 2023 TIME 06:00:53.8
 Z:\home\sanoj\Downloads\tmp_p\newconn.mol                                       

 CRYSTAL CALCULATION
 (INPUT ACCORDING TO THE INTERNATIONAL TABLES FOR X-RAY CRYSTALLOGRAPHY)
 CRYSTAL FAMILY                       :  TETRAGONAL  
 CRYSTAL CLASS  (GROTH - 1921)        :  TETRAGONAL DISPHENOIDAL              

 SPACE GROUP (NONCENTROSYMMETRIC)     :  I -4            

 LATTICE PARAMETERS  (ANGSTROMS AND DEGREES) - CONVENTIONAL CELL
        A           B           C        ALPHA        BETA       GAMMA
    10.79977    10.79977    13.59453    90.00000    90.00000    90.00000


 NUMBER OF IRREDUCIBLE ATOMS IN THE CONVENTIONAL PROCESS            9  OF           24  WORKING
 PROCESS           12  OF           24  WORKING
 PROCESS           14  OF           24  WORKING
 CELL:   17

 INPUT COORDINATES

 ATOM AT. N.              COORDINATES
   1   1     1.488200000000E-01  5.041000000000E-01  3.427400000000E-01
   2   1     3.771500000000E-01  4.502500000000E-01  3.615200000000E-01
   3   6     2.705900000000E-01  7.925800000000E-01  3.841100000000E-01
   4   6     2.476600000000E-01 -7.411000000000E-02  3.727700000000E-01
   5   6     1.824700000000E-01  6.987900000000E-01  3.672800000000E-01
   6   6     3.424000000000E-01  5.450000000000E-01  3.687300000000E-01
   7   6     3.910600000000E-01  7.473600000000E-01  4.022900000000E-01
   8   6     7.820400000000E-01  4.247500000000E-01  3.570500000000E-01
   9   7     3.218000000000E-01 -1.120000000000E-03  3.155600000000E-01
  10   7     2.733900000000E-01  1.160900000000E-01  3.195100000000E-01
  11   7     1.551700000000E-01 -3.150000000000E-03  4.110000000000E-01
  12   7     1.754100000000E-01  1.154500000000E-01  3.767100000000E-01
  13   7     4.272100000000E-01  6.307600000000E-01  3.946800000000E-01
  14  17     2.747000000000E-02  7.373600000000E-01  3.621600000000E-01
  15  17     5.029700000000E-01  8.528200000000E-01  4.407200000000E-01
  16  30     0.000000000000E+00  5.000000000000E-01  7.500000000000E-01
  17  30     0.000000000000E+00  0.000000000000E+00  5.000000000000E-01

 *******************************************************************************

 << INFORMATION >>: FROM NOW ON, ALL COORDINATES REFER TO THE PRIMITIVE CELL

 *******************************************************************************

 LATTICE PARAMETERS  (ANGSTROMS AND DEGREES) - PRIMITIVE CELL
       A          B          C        ALPHA      BETA     GAMMA        VOLUME
   10.22352   10.22352   10.22352   116.23451 116.23451  96.65597    792.798979

 COORDINATES OF THE EQUIVALENT ATOMS (FRACTIONAL UNITS)

 N. ATOM EQUIV AT. N.          X                  Y                  Z

   1   1   1    1 H    -1.53160000000E-01  4.91560000000E-01 -3.47080000000E-01
   2   1   2    1 H    -1.61360000000E-01  1.93920000000E-01  3.47080000000E-01
   3   1   3    1 H    -4.91560000000E-01  1.61360000000E-01  3.55280000000E-01
   4   1   4    1 H    -1.93920000000E-01  1.53160000000E-01 -3.55280000000E-01

   5   2   1    1 H    -1.88230000000E-01 -2.61330000000E-01 -1.72600000000E-01
   6   2   2    1 H    -8.87300000000E-02 -1.56300000000E-02  1.72600000000E-01
   7   2   3    1 H     2.61330000000E-01  8.87300000000E-02  7.31000000000E-02
   8   2   4    1 H     1.56300000000E-02  1.88230000000E-01 -7.31000000000E-02

   9   3   1    6 C     1.76690000000E-01 -3.45300000000E-01  6.31700000000E-02
  10   3   2    6 C    -4.08470000000E-01  1.13520000000E-01 -6.31700000000E-02
  11   3   3    6 C     3.45300000000E-01  4.08470000000E-01 -4.78010000000E-01
  12   3   4    6 C    -1.13520000000E-01 -1.76690000000E-01  4.78010000000E-01

  13   4   1    6 C     2.98660000000E-01 -3.79570000000E-01  1.73550000000E-01
  14   4   2    6 C     4.46880000000E-01  1.25110000000E-01 -1.73550000000E-01
  15   4   3    6 C     3.79570000000E-01 -4.46880000000E-01 -3.21770000000E-01
  16   4   4    6 C    -1.25110000000E-01 -2.98660000000E-01  3.21770000000E-01

  17   5   1    6 C     6.60700000000E-02 -4.50250000000E-01 -1.18740000000E-01
  18   5   2    6 C    -3.31510000000E-01  1.84810000000E-01  1.18740000000E-01
  19   5   3    6 C     4.50250000000E-01  3.31510000000E-01 -4.83680000000E-01
  20   5   4    6 C    -1.84810000000E-01 -6.60700000000E-02  4.83680000000E-01

  21   6   1    6 C    -8.62700000000E-02 -2.88870000000E-01 -1.12600000000E-01
  22   6   2    6 C    -1.76270000000E-01  2.63300000000E-02  1.12600000000E-01
  23   6   3    6 C     2.88870000000E-01  1.76270000000E-01  2.02600000000E-01
  24   6   4    6 C    -2.63300000000E-02  8.62700000000E-02 -2.02600000000E-01

  25   7   1    6 C     1.49650000000E-01 -2.06650000000E-01  1.38420000000E-01
  26   7   2    6 C    -3.45070000000E-01  1.12300000000E-02 -1.38420000000E-01
  27   7   3    6 C     2.06650000000E-01  3.45070000000E-01  3.56300000000E-01
  28   7   4    6 C    -1.12300000000E-02 -1.49650000000E-01 -3.56300000000E-01

  29   8   1    6 C    -2.18200000000E-01  1.39090000000E-01  2.06790000000E-01
  30   8   2    6 C    -6.77000000000E-02 -4.24990000000E-01 -2.06790000000E-01
  31   8   3    6 C    -1.39090000000E-01  6.77000000000E-02 -3.57290000000E-01
  32   8   4    6 C     4.24990000000E-01  2.18200000000E-01  3.57290000000E-01

  33   9   1    7 N     3.14440000000E-01 -3.62640000000E-01  3.20680000000E-01
  34   9   2    7 N     3.16680000000E-01 -6.24000000000E-03 -3.20680000000E-01
  35   9   3    7 N     3.62640000000E-01 -3.16680000000E-01 -3.22920000000E-01
  36   9   4    7 N     6.24000000000E-03 -3.14440000000E-01  3.22920000000E-01

  37  10   1    7 N     4.35600000000E-01 -4.07100000000E-01  3.89480000000E-01
  38  10   2    7 N     2.03420000000E-01  4.61200000000E-02 -3.89480000000E-01
  39  10   3    7 N     4.07100000000E-01 -2.03420000000E-01 -1.57300000000E-01
  40  10   4    7 N    -4.61200000000E-02 -4.35600000000E-01  1.57300000000E-01

  41  11   1    7 N     4.07850000000E-01 -4.33830000000E-01  1.52020000000E-01
  42  11   2    7 N     4.14150000000E-01  2.55830000000E-01 -1.52020000000E-01
  43  11   3    7 N     4.33830000000E-01 -4.14150000000E-01 -1.58320000000E-01
  44  11   4    7 N    -2.55830000000E-01 -4.07850000000E-01  1.58320000000E-01

  45  12   1    7 N     4.92160000000E-01 -4.47880000000E-01  2.90860000000E-01
  46  12   2    7 N     2.61260000000E-01  2.01300000000E-01 -2.90860000000E-01
  47  12   3    7 N     4.47880000000E-01 -2.61260000000E-01 -5.99600000000E-02
  48  12   4    7 N    -2.01300000000E-01 -4.92160000000E-01  5.99600000000E-02

  49  13   1    7 N     2.54400000000E-02 -1.78110000000E-01  5.79700000000E-02
  50  13   2    7 N    -2.36080000000E-01 -3.25300000000E-02 -5.79700000000E-02
  51  13   3    7 N     1.78110000000E-01  2.36080000000E-01  2.03550000000E-01
  52  13   4    7 N     3.25300000000E-02 -2.54400000000E-02 -2.03550000000E-01

  53  14   1   17 CL    9.95200000000E-02  3.89630000000E-01 -2.35170000000E-01
  54  14   2   17 CL   -3.75200000000E-01  3.34690000000E-01  2.35170000000E-01
  55  14   3   17 CL   -3.89630000000E-01  3.75200000000E-01 -2.90110000000E-01
  56  14   4   17 CL   -3.34690000000E-01 -9.95200000000E-02  2.90110000000E-01

  57  15   1   17 CL    2.93540000000E-01 -5.63100000000E-02  3.55790000000E-01
  58  15   2   17 CL   -4.12100000000E-01 -6.22500000000E-02 -3.55790000000E-01
  59  15   3   17 CL    5.63100000000E-02  4.12100000000E-01  3.49850000000E-01
  60  15   4   17 CL    6.22500000000E-02 -2.93540000000E-01 -3.49850000000E-01

  61  16   1   30 ZN    2.50000000000E-01 -2.50000000000E-01 -5.00000000000E-01

  62  17   1   30 ZN   -5.00000000000E-01 -5.00000000000E-01  0.00000000000E+00

 NUMBER OF SYMMETRY OPERATORS         :    4
 *******************************************************************************
 * GEOMETRY EDITING - INPUT COORDINATES ARE GIVEN IN ANGSTROM         
 *******************************************************************************

 GEOMETRY NOW FULLY CONSISTENT WITH THE GROUP

 GCALCO - MAX INDICES DIRECT LATTICE VECTOR    14    14    16
 NO.OF VECTORS CREATED 6999 STARS  482 RMAX   207.74031 BOHR

 GEOMETRY FOR WAVE FUNCTION - DIMENSIONALITY OF THE SYSTEM    3
 (NON PERIODIC DIRECTION: LATTICE PARAMETER FORMALLY SET TO 500)
 *******************************************************************************
 LATTICE PARAMETERS (ANGSTROMS AND DEGREES) - BOHR = 0.5291772083 ANGSTROM
 PRIMITIVE CELL - CENTRING CODE 6/0 VOLUME=   792.798979 - DENSITY  2.060 g/cm^3
         A              B              C           ALPHA      BETA       GAMMA 
    10.22351751    10.22351751    10.22351751   116.234514 116.234514  96.655969
 *******************************************************************************
 ATOMS IN THE ASYMMETRIC UNIT   17 - ATOMS IN THE UNIT CELL:   62
     ATOM                 X/A                 Y/B                 Z/C    
 *******************************************************************************
      1 T   1 H    -1.531600000000E-01  4.915600000000E-01 -3.470800000000E-01
      2 F   1 H    -1.613600000000E-01  1.939200000000E-01  3.470800000000E-01
      3 F   1 H    -4.915600000000E-01  1.613600000000E-01  3.552800000000E-01
      4 F   1 H    -1.939200000000E-01  1.531600000000E-01 -3.552800000000E-01
      5 T   1 H    -1.882300000000E-01 -2.613300000000E-01 -1.726000000000E-01
      6 F   1 H    -8.873000000000E-02 -1.563000000000E-02  1.726000000000E-01
      7 F   1 H     2.613300000000E-01  8.873000000000E-02  7.310000000000E-02
      8 F   1 H     1.563000000000E-02  1.882300000000E-01 -7.310000000000E-02
      9 T   6 C     1.766900000000E-01 -3.453000000000E-01  6.317000000000E-02
     10 F   6 C    -4.084700000000E-01  1.135200000000E-01 -6.317000000000E-02
     11 F   6 C     3.453000000000E-01  4.084700000000E-01 -4.780100000000E-01
     12 F   6 C    -1.135200000000E-01 -1.766900000000E-01  4.780100000000E-01
     13 T   6 C     2.986600000000E-01 -3.795700000000E-01  1.735500000000E-01
     14 F   6 C     4.468800000000E-01  1.251100000000E-01 -1.735500000000E-01
     15 F   6 C     3.795700000000E-01 -4.468800000000E-01 -3.217700000000E-01
     16 F   6 C    -1.251100000000E-01 -2.986600000000E-01  3.217700000000E-01
     17 T   6 C     6.607000000000E-02 -4.502500000000E-01 -1.187400000000E-01
     18 F   6 C    -3.315100000000E-01  1.848100000000E-01  1.187400000000E-01
     19 F   6 C     4.502500000000E-01  3.315100000000E-01 -4.836800000000E-01
     20 F   6 C    -1.848100000000E-01 -6.607000000000E-02  4.836800000000E-01
     21 T   6 C    -8.627000000000E-02 -2.888700000000E-01 -1.126000000000E-01
     22 F   6 C    -1.762700000000E-01  2.633000000000E-02  1.126000000000E-01
     23 F   6 C     2.888700000000E-01  1.762700000000E-01  2.026000000000E-01
     24 F   6 C    -2.633000000000E-02  8.627000000000E-02 -2.026000000000E-01
     25 T   6 C     1.496500000000E-01 -2.066500000000E-01  1.384200000000E-01
     26 F   6 C    -3.450700000000E-01  1.123000000000E-02 -1.384200000000E-01
     27 F   6 C     2.066500000000E-01  3.450700000000E-01  3.563000000000E-01
     28 F   6 C    -1.123000000000E-02 -1.496500000000E-01 -3.563000000000E-01
     29 T   6 C    -2.182000000000E-01  1.390900000000E-01  2.067900000000E-01
     30 F   6 C    -6.770000000000E-02 -4.249900000000E-01 -2.067900000000E-01
     31 F   6 C    -1.390900000000E-01  6.770000000000E-02 -3.572900000000E-01
     32 F   6 C     4.249900000000E-01  2.182000000000E-01  3.572900000000E-01
     33 T   7 N     3.144400000000E-01 -3.626400000000E-01  3.206800000000E-01
     34 F   7 N     3.166800000000E-01 -6.240000000000E-03 -3.206800000000E-01
     35 F   7 N     3.626400000000E-01 -3.166800000000E-01 -3.229200000000E-01
     36 F   7 N     6.240000000000E-03 -3.144400000000E-01  3.229200000000E-01
     37 T   7 N     4.356000000000E-01 -4.071000000000E-01  3.894800000000E-01
     38 F   7 N     2.034200000000E-01  4.612000000000E-02 -3.894800000000E-01
     39 F   7 N     4.071000000000E-01 -2.034200000000E-01 -1.573000000000E-01
     40 F   7 N    -4.612000000000E-02 -4.356000000000E-01  1.573000000000E-01
     41 T   7 N     4.078500000000E-01 -4.338300000000E-01  1.520200000000E-01
     42 F   7 N     4.141500000000E-01  2.558300000000E-01 -1.520200000000E-01
     43 F   7 N     4.338300000000E-01 -4.141500000000E-01 -1.583200000000E-01
     44 F   7 N    -2.558300000000E-01 -4.078500000000E-01  1.583200000000E-01
     45 T   7 N     4.921600000000E-01 -4.478800000000E-01  2.908600000000E-01
     46 F   7 N     2.612600000000E-01  2.013000000000E-01 -2.908600000000E-01
     47 F   7 N     4.478800000000E-01 -2.612600000000E-01 -5.996000000000E-02
     48 F   7 N    -2.013000000000E-01 -4.921600000000E-01  5.996000000000E-02
     49 T   7 N     2.544000000000E-02 -1.781100000000E-01  5.797000000000E-02
     50 F   7 N    -2.360800000000E-01 -3.253000000000E-02 -5.797000000000E-02
     51 F   7 N     1.781100000000E-01  2.360800000000E-01  2.035500000000E-01
     52 F   7 N     3.253000000000E-02 -2.544000000000E-02 -2.035500000000E-01
     53 T  17 CL    9.952000000000E-02  3.896300000000E-01 -2.351700000000E-01
     54 F  17 CL   -3.752000000000E-01  3.346900000000E-01  2.351700000000E-01
     55 F  17 CL   -3.896300000000E-01  3.752000000000E-01 -2.901100000000E-01
     56 F  17 CL   -3.346900000000E-01 -9.952000000000E-02  2.901100000000E-01
     57 T  17 CL    2.935400000000E-01 -5.631000000000E-02  3.557900000000E-01
     58 F  17 CL   -4.121000000000E-01 -6.225000000000E-02 -3.557900000000E-01
     59 F  17 CL    5.631000000000E-02  4.121000000000E-01  3.498500000000E-01
     60 F  17 CL    6.225000000000E-02 -2.935400000000E-01 -3.498500000000E-01
     61 T  30 ZN    2.500000000000E-01 -2.500000000000E-01 -5.000000000000E-01
     62 T  30 ZN    5.000000000000E-01 -5.000000000000E-01  0.000000000000E+00

 TRANSFORMATION MATRIX PRIMITIVE-CRYSTALLOGRAPHIC CELL
  0.0000  1.0000  1.0000  1.0000  0.0000  1.0000  1.0000  1.0000  0.0000

 *******************************************************************************
 CRYSTALLOGRAPHIC CELL (VOLUME=       1585.59795839)
         A              B              C           ALPHA      BETA       GAMMA 
    10.79976827    10.79976827    13.59453022    90.000000  90.000000  90.000000

 COORDINATES IN THE CRYSTALLOGRAPHIC CELL
     ATOM                 X/A                 Y/B                 Z/C    
 *******************************************************************************
      1 T   1 H    -3.511800000000E-01  4.100000000000E-03 -1.572600000000E-01
      2 F   1 H     3.511800000000E-01 -4.100000000000E-03 -1.572600000000E-01
      3 F   1 H     4.100000000000E-03  3.511800000000E-01  1.572600000000E-01
      4 F   1 H    -4.100000000000E-03 -3.511800000000E-01  1.572600000000E-01
      5 T   1 H    -1.228500000000E-01 -4.975000000000E-02 -1.384800000000E-01
      6 F   1 H     1.228500000000E-01  4.975000000000E-02 -1.384800000000E-01
      7 F   1 H    -4.975000000000E-02  1.228500000000E-01  1.384800000000E-01
      8 F   1 H     4.975000000000E-02 -1.228500000000E-01  1.384800000000E-01
      9 T   6 C    -2.294100000000E-01  2.925800000000E-01 -1.158900000000E-01
     10 F   6 C     2.294100000000E-01 -2.925800000000E-01 -1.158900000000E-01
     11 F   6 C     2.925800000000E-01  2.294100000000E-01  1.158900000000E-01
     12 F   6 C    -2.925800000000E-01 -2.294100000000E-01  1.158900000000E-01
     13 T   6 C    -2.523400000000E-01  4.258900000000E-01 -1.272300000000E-01
     14 F   6 C     2.523400000000E-01 -4.258900000000E-01 -1.272300000000E-01
     15 F   6 C     4.258900000000E-01  2.523400000000E-01  1.272300000000E-01
     16 F   6 C    -4.258900000000E-01 -2.523400000000E-01  1.272300000000E-01
     17 T   6 C    -3.175300000000E-01  1.987900000000E-01 -1.327200000000E-01
     18 F   6 C     3.175300000000E-01 -1.987900000000E-01 -1.327200000000E-01
     19 F   6 C     1.987900000000E-01  3.175300000000E-01  1.327200000000E-01
     20 F   6 C    -1.987900000000E-01 -3.175300000000E-01  1.327200000000E-01
     21 T   6 C    -1.576000000000E-01  4.500000000000E-02 -1.312700000000E-01
     22 F   6 C     1.576000000000E-01 -4.500000000000E-02 -1.312700000000E-01
     23 F   6 C     4.500000000000E-02  1.576000000000E-01  1.312700000000E-01
     24 F   6 C    -4.500000000000E-02 -1.576000000000E-01  1.312700000000E-01
     25 T   6 C    -1.089400000000E-01  2.473600000000E-01 -9.771000000000E-02
     26 F   6 C     1.089400000000E-01 -2.473600000000E-01 -9.771000000000E-02
     27 F   6 C     2.473600000000E-01  1.089400000000E-01  9.771000000000E-02
     28 F   6 C    -2.473600000000E-01 -1.089400000000E-01  9.771000000000E-02
     29 T   6 C     2.820400000000E-01 -7.525000000000E-02 -1.429500000000E-01
     30 F   6 C    -2.820400000000E-01  7.525000000000E-02 -1.429500000000E-01
     31 F   6 C    -7.525000000000E-02 -2.820400000000E-01  1.429500000000E-01
     32 F   6 C     7.525000000000E-02  2.820400000000E-01  1.429500000000E-01
     33 T   7 N     3.218000000000E-01 -1.120000000000E-03  3.155600000000E-01
     34 F   7 N    -3.218000000000E-01  1.120000000000E-03  3.155600000000E-01
     35 F   7 N    -1.120000000000E-03 -3.218000000000E-01 -3.155600000000E-01
     36 F   7 N     1.120000000000E-03  3.218000000000E-01 -3.155600000000E-01
     37 T   7 N     2.733900000000E-01  1.160900000000E-01  3.195100000000E-01
     38 F   7 N    -2.733900000000E-01 -1.160900000000E-01  3.195100000000E-01
     39 F   7 N     1.160900000000E-01 -2.733900000000E-01 -3.195100000000E-01
     40 F   7 N    -1.160900000000E-01  2.733900000000E-01 -3.195100000000E-01
     41 T   7 N     1.551700000000E-01 -3.150000000000E-03  4.110000000000E-01
     42 F   7 N    -1.551700000000E-01  3.150000000000E-03  4.110000000000E-01
     43 F   7 N    -3.150000000000E-03 -1.551700000000E-01 -4.110000000000E-01
     44 F   7 N     3.150000000000E-03  1.551700000000E-01 -4.110000000000E-01
     45 T   7 N     1.754100000000E-01  1.154500000000E-01  3.767100000000E-01
     46 F   7 N    -1.754100000000E-01 -1.154500000000E-01  3.767100000000E-01
     47 F   7 N     1.154500000000E-01 -1.754100000000E-01 -3.767100000000E-01
     48 F   7 N    -1.154500000000E-01  1.754100000000E-01 -3.767100000000E-01
     49 T   7 N    -7.279000000000E-02  1.307600000000E-01 -1.053200000000E-01
     50 F   7 N     7.279000000000E-02 -1.307600000000E-01 -1.053200000000E-01
     51 F   7 N     1.307600000000E-01  7.279000000000E-02  1.053200000000E-01
     52 F   7 N    -1.307600000000E-01 -7.279000000000E-02  1.053200000000E-01
     53 T  17 CL    2.747000000000E-02 -2.626400000000E-01  3.621600000000E-01
     54 F  17 CL   -2.747000000000E-02  2.626400000000E-01  3.621600000000E-01
     55 F  17 CL   -2.626400000000E-01 -2.747000000000E-02 -3.621600000000E-01
     56 F  17 CL    2.626400000000E-01  2.747000000000E-02 -3.621600000000E-01
     57 T  17 CL    2.970000000000E-03  3.528200000000E-01 -5.928000000000E-02
     58 F  17 CL   -2.970000000000E-03 -3.528200000000E-01 -5.928000000000E-02
     59 F  17 CL    3.528200000000E-01 -2.970000000000E-03  5.928000000000E-02
     60 F  17 CL   -3.528200000000E-01  2.970000000000E-03  5.928000000000E-02
     61 T  30 ZN   -5.000000000000E-01  0.000000000000E+00  2.500000000000E-01
     62 T  30 ZN    0.000000000000E+00  0.000000000000E+00 -5.000000000000E-01

 T = ATOM BELONGING TO THE ASYMMETRIC UNIT

 ****    4 SYMMOPS - TRANSLATORS IN FRACTIONAL UNITS
 **** MATRICES AND TRANSLATORS IN THE CRYSTALLOGRAPHIC REFERENCE FRAME
   V INV                    ROTATION MATRICES                   TRANSLATORS
   1   1  1.00  0.00  0.00  0.00  1.00  0.00  0.00  0.00  1.00  0.00  0.00  0.00
   2   2 -0.00  1.00 -1.00  1.00 -0.00 -1.00  0.00 -0.00 -1.00  0.00  0.00  0.00
   3   4  0.00 -1.00 -0.00  0.00 -1.00  1.00  1.00 -1.00 -0.00  0.00  0.00  0.00
   4   3 -1.00  0.00  1.00 -1.00  0.00  0.00 -1.00  1.00  0.00  0.00  0.00  0.00

 DIRECT LATTICE VECTORS CARTESIAN COMPONENTS (ANGSTROM)
          X                    Y                    Z
  -0.539988413330E+01   0.539988413330E+01   0.679726510755E+01
   0.539988413330E+01  -0.539988413330E+01   0.679726510755E+01
   0.539988413330E+01   0.539988413330E+01  -0.679726510755E+01


 CARTESIAN COORDINATES - PRIMITIVE CELL
 *******************************************************************************
 *      ATOM          X(ANGSTROM)         Y(ANGSTROM)         Z(ANGSTROM)
 *******************************************************************************
    1     1 H    -3.792662619865E+00  4.427904989306E-02 -2.137875821627E+00
    2     1 H     3.792662619865E+00 -4.427904989306E-02 -2.137875821627E+00
    3     1 H     4.427904989306E-02  3.792662619865E+00  2.137875821627E+00
    4     1 H    -4.427904989306E-02 -3.792662619865E+00  2.137875821627E+00
    5     1 H    -1.326751531552E+00 -5.372884712634E-01 -1.882570544187E+00
    6     1 H     1.326751531552E+00  5.372884712634E-01 -1.882570544187E+00
    7     1 H    -5.372884712634E-01  1.326751531552E+00  1.882570544187E+00
    8     1 H     5.372884712634E-01 -1.326751531552E+00  1.882570544187E+00
    9     6 C    -2.477574838041E+00  3.159796199442E+00 -1.575470106628E+00
   10     6 C     2.477574838041E+00 -3.159796199442E+00 -1.575470106628E+00
   11     6 C     3.159796199442E+00  2.477574838041E+00  1.575470106628E+00
   12     6 C    -3.159796199442E+00 -2.477574838041E+00  1.575470106628E+00
   13     6 C    -2.725213524394E+00  4.599513307062E+00 -1.729632079267E+00
   14     6 C     2.725213524394E+00 -4.599513307062E+00 -1.729632079267E+00
   15     6 C     4.599513307062E+00  2.725213524394E+00  1.729632079267E+00
   16     6 C    -4.599513307062E+00 -2.725213524394E+00  1.729632079267E+00
   17     6 C    -3.429250417693E+00  2.146885933717E+00 -1.804266050148E+00
   18     6 C     3.429250417693E+00 -2.146885933717E+00 -1.804266050148E+00
   19     6 C     2.146885933717E+00  3.429250417693E+00  1.804266050148E+00
   20     6 C    -2.146885933717E+00 -3.429250417693E+00  1.804266050148E+00
   21     6 C    -1.702043478816E+00  4.859895719970E-01 -1.784553981336E+00
   22     6 C     1.702043478816E+00 -4.859895719970E-01 -1.784553981336E+00
   23     6 C     4.859895719970E-01  1.702043478816E+00  1.784553981336E+00
   24     6 C    -4.859895719970E-01 -1.702043478816E+00  1.784553981336E+00
   25     6 C    -1.176526754963E+00  2.671430678426E+00 -1.328321547317E+00
   26     6 C     1.176526754963E+00 -2.671430678426E+00 -1.328321547317E+00
   27     6 C     2.671430678426E+00  1.176526754963E+00  1.328321547317E+00
   28     6 C    -2.671430678426E+00 -1.176526754963E+00  1.328321547317E+00
   29     6 C     3.045966641912E+00 -8.126825620616E-01 -1.943338094249E+00
   30     6 C    -3.045966641912E+00  8.126825620616E-01 -1.943338094249E+00
   31     6 C    -8.126825620616E-01 -3.045966641912E+00  1.943338094249E+00
   32     6 C     8.126825620616E-01  3.045966641912E+00  1.943338094249E+00
   33     7 N     3.475365428192E+00 -1.209574045859E-02  4.289889954677E+00
   34     7 N    -3.475365428192E+00  1.209574045859E-02  4.289889954677E+00
   35     7 N    -1.209574045859E-02 -3.475365428192E+00 -4.289889954677E+00
   36     7 N     1.209574045859E-02  3.475365428192E+00 -4.289889954677E+00
   37     7 N     2.952548646406E+00  1.253745098070E+00  4.343588349027E+00
   38     7 N    -2.952548646406E+00 -1.253745098070E+00  4.343588349027E+00
   39     7 N     1.253745098070E+00 -2.952548646406E+00 -4.343588349027E+00
   40     7 N    -1.253745098070E+00  2.952548646406E+00 -4.343588349027E+00
   41     7 N     1.675800041928E+00 -3.401927003979E-02  5.587351918406E+00
   42     7 N    -1.675800041928E+00  3.401927003979E-02  5.587351918406E+00
   43     7 N    -3.401927003979E-02 -1.675800041928E+00 -5.587351918406E+00
   44     7 N     3.401927003979E-02  1.675800041928E+00 -5.587351918406E+00
   45     7 N     1.894387351644E+00  1.246833246379E+00  5.121195477330E+00
   46     7 N    -1.894387351644E+00 -1.246833246379E+00  5.121195477330E+00
   47     7 N     1.246833246379E+00 -1.894387351644E+00 -5.121195477330E+00
   48     7 N    -1.246833246379E+00  1.894387351644E+00 -5.121195477330E+00
   49     7 N    -7.861151321258E-01  1.412177698541E+00 -1.431775922254E+00
   50     7 N     7.861151321258E-01 -1.412177698541E+00 -1.431775922254E+00
   51     7 N     1.412177698541E+00  7.861151321258E-01  1.431775922254E+00
   52     7 N    -1.412177698541E+00 -7.861151321258E-01  1.431775922254E+00
   53    17 CL    2.966696342835E-01 -2.836451137540E+00  4.923395062701E+00
   54    17 CL   -2.966696342835E-01  2.836451137540E+00  4.923395062701E+00
   55    17 CL   -2.836451137540E+00 -2.966696342835E-01 -4.923395062701E+00
   56    17 CL    2.836451137540E+00  2.966696342835E-01 -4.923395062701E+00
   57    17 CL    3.207531175180E-02  3.810374239822E+00 -8.058837511511E-01
   58    17 CL   -3.207531175180E-02 -3.810374239822E+00 -8.058837511511E-01
   59    17 CL    3.810374239822E+00 -3.207531175180E-02  8.058837511511E-01
   60    17 CL   -3.810374239822E+00  3.207531175180E-02  8.058837511511E-01
   61    30 ZN    5.399884133300E+00  0.000000000000E+00 -1.019589766132E+01
   62    30 ZN    0.000000000000E+00  0.000000000000E+00  6.797265107550E+00

 *******************************************************************************
 STARTING BASIS SET HANDLING 
 *******************************************************************************

 Loading internal basis set: POB-DZVPP           

 Please cite in your publication:
 Peintinger, M. F., Oliveira, D. V. and Bredow, T. (2013), Generally applicable 
 solid-state Gaussian basis sets, in preparation                                
                                                                                
                    

 *******************************************************************************
 LOCAL ATOMIC FUNCTIONS BASIS SET
 *******************************************************************************
   ATOM   X(AU)   Y(AU)   Z(AU)  N. TYPE  EXPONENT  S COEF   P COEF   D/F/G COEF
 *******************************************************************************
   1 H   -7.167   0.084  -4.040
                                  1 S  
                                         2.263E+01 1.441E-02 0.000E+00 0.000E+00
                                         3.236E+00 1.072E-01 0.000E+00 0.000E+00
                                         7.304E-01 3.846E-01 0.000E+00 0.000E+00
                                  2 S  
                                         1.417E-01 1.000E+00 0.000E+00 0.000E+00
                           3-     5 P  
                                         3.944E-01 0.000E+00 1.000E+00 0.000E+00
                           6-     8 P  
                                         1.006E-01 0.000E+00 1.000E+00 0.000E+00
   2 H    7.167  -0.084  -4.040
   3 H    0.084   7.167   4.040
   4 H   -0.084  -7.167   4.040
   5 H   -2.507  -1.015  -3.558
   6 H    2.507   1.015  -3.558
   7 H   -1.015   2.507   3.558
   8 H    1.015  -2.507   3.558
   9 C   -4.682   5.971  -2.977
                                 65 S  
                                         1.238E+03 5.457E-03 0.000E+00 0.000E+00
                                         1.863E+02 4.064E-02 0.000E+00 0.000E+00
                                         4.225E+01 1.803E-01 0.000E+00 0.000E+00
                                         1.168E+01 4.632E-01 0.000E+00 0.000E+00
                                         3.593E+00 4.409E-01 0.000E+00 0.000E+00
                                 66 S  
                                         5.281E+00 1.000E+00 0.000E+00 0.000E+00
                                 67 S  
                                         4.447E-01 1.000E+00 0.000E+00 0.000E+00
                          68-    70 P  
                                         9.468E+00 0.000E+00 3.839E-02 0.000E+00
                                         2.010E+00 0.000E+00 2.112E-01 0.000E+00
                                         5.477E-01 0.000E+00 5.133E-01 0.000E+00
                          71-    73 P  
                                         1.604E-01 0.000E+00 1.000E+00 0.000E+00
                          74-    78 D  
                                         6.070E-01 0.000E+00 0.000E+00 1.000E+00
                          79-    83 D  
                                         2.939E-01 0.000E+00 0.000E+00 1.000E+00
  10 C    4.682  -5.971  -2.977
  11 C    5.971   4.682   2.977
  12 C   -5.971  -4.682   2.977
  13 C   -5.150   8.692  -3.269
  14 C    5.150  -8.692  -3.269
  15 C    8.692   5.150   3.269
  16 C   -8.692  -5.150   3.269
  17 C   -6.480   4.057  -3.410
  18 C    6.480  -4.057  -3.410
  19 C    4.057   6.480   3.410
  20 C   -4.057  -6.480   3.410
  21 C   -3.216   0.918  -3.372
  22 C    3.216  -0.918  -3.372
  23 C    0.918   3.216   3.372
  24 C   -0.918  -3.216   3.372
  25 C   -2.223   5.048  -2.510
  26 C    2.223  -5.048  -2.510
  27 C    5.048   2.223   2.510
  28 C   -5.048  -2.223   2.510
  29 C    5.756  -1.536  -3.672
  30 C   -5.756   1.536  -3.672
  31 C   -1.536  -5.756   3.672
  32 C    1.536   5.756   3.672
  33 N    6.567  -0.023   8.107
                                521 S  
                                         1.713E+03-5.393E-03 0.000E+00 0.000E+00
                                         2.576E+02-4.022E-02 0.000E+00 0.000E+00
                                         5.846E+01-1.793E-01 0.000E+00 0.000E+00
                                         1.620E+01-4.638E-01 0.000E+00 0.000E+00
                                         5.005E+00-4.417E-01 0.000E+00 0.000E+00
                                522 S  
                                         6.217E-01 1.000E+00 0.000E+00 0.000E+00
                                523 S  
                                         2.921E-01 1.000E+00 0.000E+00 0.000E+00
                         524-   526 P  
                                         1.357E+01 0.000E+00-4.007E-02 0.000E+00
                                         2.926E+00 0.000E+00-2.181E-01 0.000E+00
                                         7.993E-01 0.000E+00-5.129E-01 0.000E+00
                         527-   529 P  
                                         2.244E-01 0.000E+00 1.000E+00 0.000E+00
                         530-   534 D  
                                         3.118E-01 0.000E+00 0.000E+00 1.000E+00
  34 N   -6.567   0.023   8.107
  35 N   -0.023  -6.567  -8.107
  36 N    0.023   6.567  -8.107
  37 N    5.580   2.369   8.208
  38 N   -5.580  -2.369   8.208
  39 N    2.369  -5.580  -8.208
  40 N   -2.369   5.580  -8.208
  41 N    3.167  -0.064  10.559
  42 N   -3.167   0.064  10.559
  43 N   -0.064  -3.167 -10.559
  44 N    0.064   3.167 -10.559
  45 N    3.580   2.356   9.678
  46 N   -3.580  -2.356   9.678
  47 N    2.356  -3.580  -9.678
  48 N   -2.356   3.580  -9.678
  49 N   -1.486   2.669  -2.706
  50 N    1.486  -2.669  -2.706
  51 N    2.669   1.486   2.706
  52 N   -2.669  -1.486   2.706
  53 CL   0.561  -5.360   9.304
                                801 S  
                                         1.045E+04 1.971E-03 0.000E+00 0.000E+00
                                         1.572E+03 1.475E-02 0.000E+00 0.000E+00
                                         3.571E+02 6.668E-02 0.000E+00 0.000E+00
                                         1.003E+02 1.723E-01 0.000E+00 0.000E+00
                                         3.081E+01 1.588E-01 0.000E+00 0.000E+00
                                802 S  
                                         5.192E+01-1.001E-01 0.000E+00 0.000E+00
                                         5.705E+00 6.084E-01 0.000E+00 0.000E+00
                                         2.351E+00 5.435E-01 0.000E+00 0.000E+00
                                803 S  
                                         4.886E-01 1.000E+00 0.000E+00 0.000E+00
                                804 S  
                                         1.984E-01 1.000E+00 0.000E+00 0.000E+00
                         805-   807 P  
                                         3.077E+02 0.000E+00-8.780E-03 0.000E+00
                                         7.210E+01 0.000E+00-6.356E-02 0.000E+00
                                         2.253E+01 0.000E+00-2.402E-01 0.000E+00
                                         7.899E+00 0.000E+00-4.780E-01 0.000E+00
                                         2.877E+00 0.000E+00-3.852E-01 0.000E+00
                         808-   810 P  
                                         9.483E-01 0.000E+00 1.000E+00 0.000E+00
                         811-   813 P  
                                         2.521E-01 0.000E+00 1.000E+00 0.000E+00
                         814-   818 D  
                                         9.722E-01 0.000E+00 0.000E+00 1.000E+00
                         819-   823 D  
                                         2.060E-01 0.000E+00 0.000E+00 1.000E+00
  54 CL  -0.561   5.360   9.304
  55 CL  -5.360  -0.561  -9.304
  56 CL   5.360   0.561  -9.304
  57 CL   0.061   7.201  -1.523
  58 CL  -0.061  -7.201  -1.523
  59 CL   7.201  -0.061   1.523
  60 CL  -7.201   0.061   1.523
  61 ZN  10.204   0.000 -19.267
                                985 S  
                                         8.200E+04 1.421E-03 0.000E+00 0.000E+00
                                         1.231E+04 1.089E-02 0.000E+00 0.000E+00
                                         2.801E+03 5.406E-02 0.000E+00 0.000E+00
                                         7.910E+02 1.885E-01 0.000E+00 0.000E+00
                                         2.576E+02 3.835E-01 0.000E+00 0.000E+00
                                         8.881E+01 2.972E-01 0.000E+00 0.000E+00
                                986 S  
                                         1.719E+02-1.105E-01 0.000E+00 0.000E+00
                                         2.030E+01 6.461E-01 0.000E+00 0.000E+00
                                         8.346E+00 4.422E-01 0.000E+00 0.000E+00
                                987 S  
                                         1.485E+01-2.271E-01 0.000E+00 0.000E+00
                                         2.450E+00 7.243E-01 0.000E+00 0.000E+00
                                         9.985E-01 4.484E-01 0.000E+00 0.000E+00
                                988 S  
                                         1.493E+00 1.000E+00 0.000E+00 0.000E+00
                                989 S  
                                         1.830E-01 1.000E+00 0.000E+00 0.000E+00
                         990-   992 P  
                                         1.072E+03 0.000E+00 9.277E-03 0.000E+00
                                         2.527E+02 0.000E+00 6.954E-02 0.000E+00
                                         8.010E+01 0.000E+00 2.716E-01 0.000E+00
                                         2.890E+01 0.000E+00 5.340E-01 0.000E+00
                                         1.077E+01 0.000E+00 3.450E-01 0.000E+00
                         993-   995 P  
                                         5.645E+00 0.000E+00 3.413E-01 0.000E+00
                                         2.168E+00 0.000E+00 5.639E-01 0.000E+00
                                         8.054E-01 0.000E+00 2.368E-01 0.000E+00
                         996-   998 P  
                                         2.721E-01 0.000E+00 1.000E+00 0.000E+00
                         999-  1003 D  
                                         5.609E+01 0.000E+00 0.000E+00 2.959E-02
                                         1.575E+01 0.000E+00 0.000E+00 1.587E-01
                                         5.312E+00 0.000E+00 0.000E+00 3.798E-01
                                         1.774E+00 0.000E+00 0.000E+00 4.690E-01
                        1004-  1008 D  
                                         5.073E-01 0.000E+00 0.000E+00 1.000E+00
                        1009-  1015 F  
                                         2.814E+00 0.000E+00 0.000E+00 1.000E+00
                        1016-  1022 F  
                                         1.300E+00 0.000E+00 0.000E+00 1.000E+00
  62 ZN   0.000   0.000  12.845

 *******************************************************************************
 FINISHED BASIS SET HANDLING 
 *******************************************************************************

 INFORMATION **** SET_MPP **** PCRYSTAL CALCULATION
 INFORMATION **** READM2 **** NEW DEFAULT: FOCK/KS MATRIX MIXING SET TO 30 %
 INFORMATION **** READM2 **** NEW DEFAULT: FULL DIRECT SCF MODE
 INFORMATION **** READM2 **** NEW DEFAULT: COULOMB BIPOLAR BUFFER SET TO 32 Mb
 INFORMATION **** READM2 **** NEW DEFAULT: EXCHANGE BIPOLAR BUFFER SET TO 32 Mb

 *******************************************************************************
 NEW DEFAULT: DFT INTEGRATION GRID INCREASED TO XLGRID
 NEW DEFAULT: DIIS ACCELERATOR ACTIVE
 USE KEYWORD NODIIS TO TURN IT OFF
 *******************************************************************************

 INFORMATION **** DFTD3_INPUT **** PERFORM DISPERSION CORRECTION DFT-D3(BJ) IN THE BECKE-JOHNSON DAMPING SCHEME

 PLEASE CITE:
 (1) DFT-D3 Reference
  S. Grimme, J. Antony, S. Ehrlich, and H. Krieg, J. Chem. Phys. 132 (2010), 154104
 (2) BJ-Damping Reference
  S. Grimme, S. Ehrlich, and L. Goerigk, J. Comput. Chem. 32 (2011), 1456-1465
 (3) General DFT-D Review
  S. Grimme, A. Hansen, J. G. Brandenburg, and C. Bannwarth,
  Chem. Rev. 116 (2016), 5105-5154

 INFORMATION **** TOLINTEG **** COULOMB AND EXCHANGE SERIES TOLERANCES MODIFIED
 INFORMATION **** BIPOSIZE **** COULOMB BIPOLAR BUFFER SET TO   100000000
 INFORMATION **** MAXCYCLE **** MAX NUMBER OF SCF CYCLES SET TO          50
 *******************************************************************************
 N. OF ATOMS PER CELL        62  COULOMB OVERLAP TOL         (T1) 10**  -12
 NUMBER OF SHELLS           416  COULOMB PENETRATION TOL     (T2) 10**  -12
 NUMBER OF AO              1060  EXCHANGE OVERLAP TOL        (T3) 10**   20
 N. OF ELECTRONS PER CELL   488  EXCHANGE PSEUDO OVP (F(G))  (T4) 10**   20
 CORE ELECTRONS PER CELL    204  EXCHANGE PSEUDO OVP (P(G))  (T5) 10**   20
 N. OF SYMMETRY OPERATORS     4  POLE ORDER IN MONO ZONE                  4
 *******************************************************************************
 TYPE OF CALCULATION :  RESTRICTED CLOSED SHELL
 KOHN-SHAM HAMILTONIAN

 (EXCHANGE)[CORRELATION] FUNCTIONAL:(PERDEW-BURKE-ERNZERHOF)[PERDEW-BURKE-ERNZERHOF]


 CAPPA:IS1  3;IS2  3;IS3  3; K PTS MONK NET   6; SYMMOPS:K SPACE   8;G SPACE   4

 *******************************************************************************
 MAX NUMBER OF SCF CYCLES      50  CONVERGENCE ON DELTAP        10**-16
 WEIGHT OF F(I) IN F(I+1)      30% CONVERGENCE ON ENERGY        10**- 6
 SHRINK. FACT.(MONKH.)    3  3  3  NUMBER OF K POINTS IN THE IBZ      6
 SHRINKING FACTOR(GILAT NET)    3  NUMBER OF K POINTS(GILAT NET)      6
 *******************************************************************************
 *** K POINTS COORDINATES (OBLIQUE COORDINATES IN UNITS OF IS =  3)
   1-R(  0  0  0)   2-C(  1  0  0)   3-C(  1  1  0)   4-C(  2  1  0)
   5-C(  2  1  1)   6-C(  2  2  1)

 DIRECT LATTICE VECTORS COMPON. (A.U.)     RECIP. LATTICE VECTORS COMPON. (A.U.) 
        X            Y            Z              X            Y            Z
  -10.2043022   10.2043022   12.8449695      0.0000000    0.3078694    0.2445777
   10.2043022  -10.2043022   12.8449695      0.3078694    0.0000000    0.2445777
   10.2043022   10.2043022  -12.8449695      0.3078694    0.3078694    0.0000000

 DISK SPACE FOR EIGENVECTORS (FTN 10)    12359600 REALS

 SYMMETRY ADAPTION OF THE BLOCH FUNCTIONS ENABLED
 TTTTTTTTTTTTTTTTTTTTTTTTTTTTTT gordsh1     TELAPSE       83.36 TCPU        0.05

 MATRIX SIZE: P(G) 1783844, F(G)  892628, P(G) IRR  225558, F(G) IRR  225558
 MAX G-VECTOR INDEX FOR 1- AND 2-ELECTRON INTEGRALS  63

 TTTTTTTTTTTTTTTTTTTTTTTTTTTTTT INPUT       TELAPSE       83.40 TCPU        0.09

 NEIGHBORS OF THE NON-EQUIVALENT ATOMS

 N = NUMBER OF NEIGHBORS AT DISTANCE R
    ATOM  N     R/ANG      R/AU   NEIGHBORS (ATOM LABELS AND CELL INDICES)
   1 H    1     1.0890     2.0578   30 C    0 0 0
   1 H    1     2.1597     4.0812   17 C    0 0 0
   1 H    1     2.1658     4.0927   21 C    0 0 0
   1 H    1     2.5464     4.8120    5 H    0 0 0
   1 H    1     2.8519     5.3893   53 CL   0-1 0
   1 H    1     2.9438     5.5630   60 CL   0 0 0

   5 H    1     1.0943     2.0680   21 C    0 0 0
   5 H    1     2.0727     3.9168   49 N    0 0 0
   5 H    1     2.1867     4.1323   30 C    0 0 0
   5 H    1     2.3308     4.4047   50 N    0 0 0
   5 H    1     2.5464     4.8120    1 H    0 0 0
   5 H    1     2.8628     5.4100    6 H    0 0 0

   9 C    1     1.4086     2.6618   17 C    0 0 0
   9 C    1     1.4115     2.6673   25 C    0 0 0
   9 C    1     1.4690     2.7760   13 C    0 0 0
   9 C    1     2.4364     4.6041   49 N    0 0 0
   9 C    1     2.4428     4.6162   30 C    0 0 0
   9 C    1     2.4776     4.6819   33 N    0-1 0

  13 C    1     1.3620     2.5739   41 N    0-1 0
  13 C    1     1.3665     2.5823   33 N    0-1 0
  13 C    1     1.4690     2.7760    9 C    0 0 0
  13 C    1     2.1915     4.1414   45 N    0-1 0
  13 C    1     2.1956     4.1492   37 N    0-1 0
  13 C    1     2.5054     4.7345   25 C    0 0 0

  17 C    1     1.3951     2.6364   30 C    0 0 0
  17 C    1     1.4086     2.6618    9 C    0 0 0
  17 C    1     1.7264     3.2625   53 CL   0-1 0
  17 C    1     2.1597     4.0812    1 H    0 0 0
  17 C    1     2.3614     4.4625   25 C    0 0 0
  17 C    1     2.3963     4.5283   21 C    0 0 0

  21 C    1     1.0943     2.0680    5 H    0 0 0
  21 C    1     1.3495     2.5502   49 N    0 0 0
  21 C    1     1.3921     2.6308   30 C    0 0 0
  21 C    1     2.1658     4.0927    1 H    0 0 0
  21 C    1     2.2936     4.3342   25 C    0 0 0
  21 C    1     2.3963     4.5283   17 C    0 0 0

  25 C    1     1.3224     2.4990   49 N    0 0 0
  25 C    1     1.4115     2.6673    9 C    0 0 0
  25 C    1     1.7409     3.2899   57 CL   0 0 0
  25 C    1     2.2936     4.3342   21 C    0 0 0
  25 C    1     2.3614     4.4625   17 C    0 0 0
  25 C    1     2.5054     4.7345   13 C    0 0 0

  29 C    1     1.0890     2.0578    2 H    0 0 0
  29 C    1     1.3921     2.6308   22 C    0 0 0
  29 C    1     1.3951     2.6364   18 C    0 0 0
  29 C    1     2.1867     4.1323    6 H    0 0 0
  29 C    1     2.3933     4.5227   50 N    0 0 0
  29 C    1     2.4428     4.6162   10 C    0 0 0

  33 N    1     1.3665     2.5823   13 C    0 1 0
  33 N    1     1.3706     2.5901   37 N    0 0 0
  33 N    1     2.1209     4.0079   61 ZN   1 1 0
  33 N    1     2.1853     4.1296   45 N    0 0 0
  33 N    1     2.2186     4.1926   41 N    0 0 0
  33 N    1     2.4776     4.6819    9 C    0 1 0

  37 N    1     1.3132     2.4815   45 N    0 0 0
  37 N    1     1.3706     2.5901   33 N    0 0 0
  37 N    1     2.1956     4.1492   13 C    0 1 0
  37 N    1     2.1989     4.1554   41 N    0 0 0
  37 N    1     2.9076     5.4946   61 ZN   1 1 0
  37 N    1     2.9430     5.5615   58 CL   1 1 1

  41 N    1     1.3620     2.5739   13 C    0 1 0
  41 N    1     1.3805     2.6087   45 N    0 0 0
  41 N    1     2.0672     3.9065   62 ZN   0 0 0
  41 N    1     2.1989     4.1554   37 N    0 0 0
  41 N    1     2.2186     4.1926   33 N    0 0 0
  41 N    1     2.5601     4.8379    9 C    0 1 0

  45 N    1     1.3132     2.4815   37 N    0 0 0
  45 N    1     1.3805     2.6087   41 N    0 0 0
  45 N    1     2.1853     4.1296   33 N    0 0 0
  45 N    1     2.1915     4.1414   13 C    0 1 0
  45 N    1     2.7142     5.1290   54 CL   0 0 0
  45 N    1     2.8200     5.3291   62 ZN   0 0 0

  49 N    1     1.3224     2.4990   25 C    0 0 0
  49 N    1     1.3495     2.5502   21 C    0 0 0
  49 N    1     2.0727     3.9168    5 H    0 0 0
  49 N    1     2.3308     4.4047    6 H    0 0 0
  49 N    1     2.3933     4.5227   30 C    0 0 0
  49 N    1     2.4364     4.6041    9 C    0 0 0

  53 CL   1     1.7264     3.2625   17 C    0 1 0
  53 CL   1     2.7023     5.1065   30 C    0 1 0
  53 CL   1     2.7090     5.1193    9 C    0 1 0
  53 CL   1     2.7142     5.1290   46 N    0 0 0
  53 CL   1     2.8519     5.3893    1 H    0 1 0
  53 CL   1     2.9647     5.6026    4 H    0 0 0

  57 CL   1     1.7409     3.2899   25 C    0 0 0
  57 CL   1     2.6101     4.9323   49 N    0 0 0
  57 CL   1     2.7044     5.1106    9 C    0 0 0
  57 CL   1     2.9430     5.5615   38 N    0 0 1
  57 CL   1     2.9438     5.5630    3 H    0 0 0
  57 CL   1     2.9584     5.5905   32 C    0 0 0

  61 ZN   4     2.1209     4.0079   33 N   -1-1 0   34 N   -1 0 1   35 N    0 0 1
                                    36 N   -1 0 0
  61 ZN   4     2.9076     5.4946   37 N   -1-1 0   38 N   -1 0 1   39 N    0 0 1
                                    40 N   -1 0 0
  61 ZN   4     3.0414     5.7474   57 CL  -1 0 0   58 CL   0 0 1   59 CL  -1-1 0
                                    60 CL  -1 0 1
  61 ZN   4     3.2944     6.2255   13 C   -1 0 0   14 C    0 0 1   15 C   -1-1 0
                                    16 C   -1 0 1
  61 ZN   4     3.6214     6.8435   25 C   -1 0 0   26 C    0 0 1   27 C   -1-1 0
                                    28 C   -1 0 1
  61 ZN   4     3.8053     7.1910    9 C   -1 0 0   10 C    0 0 1   11 C   -1-1 0
                                    12 C   -1 0 1

  62 ZN   4     2.0672     3.9065   41 N    0 0 0   42 N    0 0 0   43 N    1 1 0
                                    44 N    1 1 0
  62 ZN   4     2.8200     5.3291   45 N    0 0 0   46 N    0 0 0   47 N    1 1 0
                                    48 N    1 1 0
  62 ZN   4     3.2842     6.2063   13 C    0 1 0   14 C    1 0 0   15 C    0 0-1
                                    16 C    1 1 1
  62 ZN   4     3.4125     6.4486   53 CL   0 0 0   54 CL   0 0 0   55 CL   1 1 0
                                    56 CL   1 1 0
  62 ZN   4     4.0050     7.5683    9 C    0 1 0   10 C    1 0 0   11 C    0 0-1
                                    12 C    1 1 1
  62 ZN   4     4.0386     7.6318   37 N    0 0 0   38 N    0 0 0   39 N    1 1 0
                                    40 N    1 1 0


 SYMMETRY ALLOWED INTERNAL DEGREE(S) OF FREEDOM:  45
 TTTTTTTTTTTTTTTTTTTTTTTTTTTTTT SYMM        TELAPSE       83.47 TCPU        0.16
 TTTTTTTTTTTTTTTTTTTTTTTTTTTTTT INT_SCREEN  TELAPSE       83.48 TCPU        0.16
 INFORMATION **** EXCBUF **** EXCH. BIPO BUFFER: WORDS USED =           0

 DFT PARAMETERS

     ATOM       ELECTRONS   NET CHARGE   R(ANGSTROM)
   1   1  H       1.0000      0.0000     1.11000000
   9   6  C       6.0000      0.0000     0.77000000
  33   7  N       7.0000      0.0000     0.74000000
  53  17  CL     17.0000      0.0000     0.99000000
  61  30  ZN     30.0000      0.0000     1.37000000

 SIZE OF GRID=     475770
 TTTTTTTTTTTTTTTTTTTTTTTTTTTTTT MAKE_GRID2  TELAPSE       84.29 TCPU        0.97
 BECKE WEIGHT FUNCTION
 RADSAFE =     2.00
 TOLERANCES - DENSITY:10**- 6; POTENTIAL:10**- 9; GRID WGT:10**-14

 RADIAL INTEGRATION  - INTERVALS (POINTS,UPPER LIMIT):            1( 75,  4.0*R)

 ANGULAR INTEGRATION - INTERVALS (ACCURACY LEVEL [N. POINTS] UPPER LIMIT):
  1(  4[  86]   0.2)  2(  8[ 194]   0.5)  3( 12[ 350]   0.9)  4( 16[ 974]   3.5)
  5( 12[ 350]9999.0)
 TTTTTTTTTTTTTTTTTTTTTTTTTTTTTT INT_CALC    TELAPSE       84.34 TCPU        1.02
 EEEEEEEEEE INT_CALC TERMINATION  DATE 04 12 2023 TIME 06:02:18.0

 *******************************************************************************
 Z:\home\sanoj\Downloads\tmp_p\newconn.mol                                       
 CRYSTAL - SCF - TYPE OF CALCULATION :  RESTRICTED CLOSED SHELL
 *******************************************************************************

 CAPPA:IS1  3;IS2  3;IS3  3; K PTS MONK NET   6; SYMMOPS:K SPACE   8;G SPACE   4

 TTTTTTTTTTTTTTTTTTTTTTTTTTTTTT SDIK        TELAPSE       84.57 TCPU        1.25

 AAAAAAAAAAAAAAAAAAAAAAAAAAAAAAAAAAAAAAAAAAAAAAAAAAAAAAAAAAAAAAAAAAAAAAAAAAAAAAA
         ATOMIC WAVEFUNCTION(S)


 NUCLEAR CHARGE  1.0  SYMMETRY SPECIES            S
 N. ELECTRONS    1.0  NUMBER OF PRIMITIVE GTOS    4
                      NUMBER OF CONTRACTED GTOS   2
                      NUMBER OF CLOSED SHELLS     0
                      OPEN SHELL OCCUPATION       1

  ZNUC SCFIT  TOTAL HF ENERGY   KINETIC ENERGY   VIRIAL THEOREM ACCURACY
   1.0   1   -4.946643675E-01  4.917913167E-01 -2.005842012E+00  9.4E-17

 NUCLEAR CHARGE  6.0  SYMMETRY SPECIES            S    P
 N. ELECTRONS    6.0  NUMBER OF PRIMITIVE GTOS    7    4
                      NUMBER OF CONTRACTED GTOS   3    2
                      NUMBER OF CLOSED SHELLS     2    0
                      OPEN SHELL OCCUPATION       0    2

  ZNUC SCFIT  TOTAL HF ENERGY   KINETIC ENERGY   VIRIAL THEOREM ACCURACY
   6.0   6   -3.750912652E+01  3.905246519E+01 -1.960480378E+00  3.7E-06

 NUCLEAR CHARGE  7.0  SYMMETRY SPECIES            S    P
 N. ELECTRONS    7.0  NUMBER OF PRIMITIVE GTOS    7    4
                      NUMBER OF CONTRACTED GTOS   3    2
                      NUMBER OF CLOSED SHELLS     2    0
                      OPEN SHELL OCCUPATION       0    3

  ZNUC SCFIT  TOTAL HF ENERGY   KINETIC ENERGY   VIRIAL THEOREM ACCURACY
   7.0   9   -5.432196661E+01  5.425066284E+01 -2.001314339E+00  1.2E-06

 NUCLEAR CHARGE 17.0  SYMMETRY SPECIES            S    P
 N. ELECTRONS   17.0  NUMBER OF PRIMITIVE GTOS   10    7
                      NUMBER OF CONTRACTED GTOS   4    3
                      NUMBER OF CLOSED SHELLS     3    1
                      OPEN SHELL OCCUPATION       0    5

  ZNUC SCFIT  TOTAL HF ENERGY   KINETIC ENERGY   VIRIAL THEOREM ACCURACY
  17.0   9   -4.593005957E+02  4.593991532E+02 -1.999785464E+00  2.3E-06

 NUCLEAR CHARGE 30.0  SYMMETRY SPECIES            S    P    D
 N. ELECTRONS   30.0  NUMBER OF PRIMITIVE GTOS   14    9    5
                      NUMBER OF CONTRACTED GTOS   5    3    2
                      NUMBER OF CLOSED SHELLS     4    2    1
                      OPEN SHELL OCCUPATION       0    0    0

  ZNUC SCFIT  TOTAL HF ENERGY   KINETIC ENERGY   VIRIAL THEOREM ACCURACY
  30.0  10   -1.777404290E+03  1.777325716E+03 -2.000044209E+00  2.5E-06

 AAAAAAAAAAAAAAAAAAAAAAAAAAAAAAAAAAAAAAAAAAAAAAAAAAAAAAAAAAAAAAAAAAAAAAAAAAAAAAA

 TOTAL ATOMIC CHARGES:
   1.0000000   1.0000000   1.0000000   1.0000000   1.0000000   1.0000000
   1.0000000   1.0000000   6.0000000   6.0000000   6.0000000   6.0000000
   6.0000000   6.0000000   6.0000000   6.0000000   6.0000000   6.0000000
   6.0000000   6.0000000   6.0000000   6.0000000   6.0000000   6.0000000
   6.0000000   6.0000000   6.0000000   6.0000000   6.0000000   6.0000000
   6.0000000   6.0000000   7.0000000   7.0000000   7.0000000   7.0000000
   7.0000000   7.0000000   7.0000000   7.0000000   7.0000000   7.0000000
   7.0000000   7.0000000   7.0000000   7.0000000   7.0000000   7.0000000
   7.0000000   7.0000000   7.0000000   7.0000000  17.0000000  17.0000000
  17.0000000  17.0000000  17.0000000  17.0000000  17.0000000  17.0000000
  30.0000000  30.0000000
 TTTTTTTTTTTTTTTTTTTTTTTTTTTTTT MOQGAD      TELAPSE       88.02 TCPU        4.68
 TTTTTTTTTTTTTTTTTTTTTTTTTTTTTT SHELLXN     TELAPSE      155.80 TCPU       65.27
 TTTTTTTTTTTTTTTTTTTTTTTTTTTTTT MONMO3      TELAPSE      162.10 TCPU       71.55
 NUMERICALLY INTEGRATED DENSITY    487.9998987216
 TTTTTTTTTTTTTTTTTTTTTTTTTTTTTT NUMDFT      TELAPSE      164.47 TCPU       73.92
 CYC   0 ETOT(AU) -9.251295931867E+03 DETOT -9.25E+03 tst  0.00E+00 PX  1.00E+00
 TTTTTTTTTTTTTTTTTTTTTTTTTTTTTT DIIS        TELAPSE      164.56 TCPU       74.00
 TTTTTTTTTTTTTTTTTTTTTTTTTTTTTT FDIK        TELAPSE      207.39 TCPU      116.33
 INSULATING STATE
 TOP OF VALENCE BANDS -    BAND    244; K    4; EIG -1.2545666E-01 AU
 TOP OF VALENCE BANDS -    BAND    244; K    1; EIG -1.2655577E-01 AU
 BOTTOM OF VIRTUAL BANDS - BAND    245; K    6; EIG -9.6574819E-02 AU
 INDIRECT ENERGY BAND GAP:   0.7859 eV
 BOTTOM OF VIRTUAL BANDS - BAND    245; K    1; EIG -9.1760349E-02 AU
 TTTTTTTTTTTTTTTTTTTTTTTTTTTTTT PDIG        TELAPSE      208.11 TCPU      117.05
 TOTAL ATOMIC CHARGES:
   1.1725239   1.1725239   1.1725239   1.1725239   1.1986114   1.1986114
   1.1986114   1.1986114   6.3265799   6.3265799   6.3265799   6.3265799
   5.4998210   5.4998210   5.4998210   5.4998210   5.3335859   5.3335859
   5.3335859   5.3335859   5.7342052   5.7342052   5.7342052   5.7342052
   5.0353941   5.0353941   5.0353941   5.0353941   6.2818323   6.2818323
   6.2818323   6.2818323   7.4637072   7.4637072   7.4637072   7.4637072
   7.2023976   7.2023976   7.2023976   7.2023976   7.4424301   7.4424301
   7.4424301   7.4424301   7.1563865   7.1563865   7.1563865   7.1563865
   7.5613476   7.5613476   7.5613476   7.5613476  17.2568526  17.2568526
  17.2568526  17.2568526  17.3274454  17.3274454  17.3274454  17.3274454
  28.0171229  28.0103934
 TTTTTTTTTTTTTTTTTTTTTTTTTTTTTT MOQGAD      TELAPSE      208.16 TCPU      117.10
 TTTTTTTTTTTTTTTTTTTTTTTTTTTTTT SHELLXN     TELAPSE      296.28 TCPU      186.55
 TTTTTTTTTTTTTTTTTTTTTTTTTTTTTT MONMO3      TELAPSE      305.32 TCPU      195.57
 NUMERICALLY INTEGRATED DENSITY    487.9998801952
 TTTTTTTTTTTTTTTTTTTTTTTTTTTTTT NUMDFT      TELAPSE      312.05 TCPU      202.27
 CYC   1 ETOT(AU) -9.246191177255E+03 DETOT  5.10E+00 tst  0.00E+00 PX  1.00E+00
 TTTTTTTTTTTTTTTTTTTTTTTTTTTTTT DIIS        TELAPSE      313.03 TCPU      203.26
 DIIS TEST: 0.89842E+01 AT SCF   CYCLE   1 - MIX   30 %
 TTTTTTTTTTTTTTTTTTTTTTTTTTTTTT FDIK        TELAPSE      329.53 TCPU      217.49
 INSULATING STATE
 TOP OF VALENCE BANDS -    BAND    244; K    4; EIG -1.5144823E-01 AU
 TOP OF VALENCE BANDS -    BAND    244; K    1; EIG -1.5265763E-01 AU
 BOTTOM OF VIRTUAL BANDS - BAND    245; K    6; EIG -1.2744053E-01 AU
 INDIRECT ENERGY BAND GAP:   0.6533 eV
 BOTTOM OF VIRTUAL BANDS - BAND    245; K    1; EIG -1.2396056E-01 AU
 TTTTTTTTTTTTTTTTTTTTTTTTTTTTTT PDIG        TELAPSE      330.26 TCPU      218.21
 TOTAL ATOMIC CHARGES:
   1.1382398   1.1382398   1.1382398   1.1382398   1.1764660   1.1764660
   1.1764660   1.1764660   6.3481685   6.3481685   6.3481685   6.3481685
   6.4055074   6.4055074   6.4055074   6.4055074   6.1462180   6.1462180
   6.1462180   6.1462180   5.9231368   5.9231368   5.9231368   5.9231368
   6.2141180   6.2141180   6.2141180   6.2141180   5.8943533   5.8943533
   5.8943533   5.8943533   6.9237556   6.9237556   6.9237556   6.9237556
   6.9233442   6.9233442   6.9233442   6.9233442   6.9495282   6.9495282
   6.9495282   6.9495282   6.8594940   6.8594940   6.8594940   6.8594940
   5.9713766   5.9713766   5.9713766   5.9713766  17.1309786  17.1309786
  17.1309786  17.1309786  17.2573121  17.2573121  17.2573121  17.2573121
  29.5007151  29.4512971
 TTTTTTTTTTTTTTTTTTTTTTTTTTTTTT MOQGAD      TELAPSE      330.31 TCPU      218.25
 TTTTTTTTTTTTTTTTTTTTTTTTTTTTTT SHELLXN     TELAPSE      409.26 TCPU      287.71
 TTTTTTTTTTTTTTTTTTTTTTTTTTTTTT MONMO3      TELAPSE      421.78 TCPU      300.20
 NUMERICALLY INTEGRATED DENSITY    487.9998703518
 TTTTTTTTTTTTTTTTTTTTTTTTTTTTTT NUMDFT      TELAPSE      428.49 TCPU      306.88
 CYC   2 ETOT(AU) -9.244437928385E+03 DETOT  1.75E+00 tst  1.71E-02 PX  5.96E-01
 TTTTTTTTTTTTTTTTTTTTTTTTTTTTTT DIIS        TELAPSE      433.46 TCPU      311.84
 DIIS TEST: 0.22379E+02 AT SCF   CYCLE   2 - DIIS ACTIVE - HISTORY:     2 CYCLES
 TTTTTTTTTTTTTTTTTTTTTTTTTTTTTT FDIK        TELAPSE      451.24 TCPU      324.94
 INSULATING STATE
 TOP OF VALENCE BANDS -    BAND    244; K    5; EIG -2.3629610E-01 AU
 TOP OF VALENCE BANDS -    BAND    244; K    1; EIG -2.3897344E-01 AU
 BOTTOM OF VIRTUAL BANDS - BAND    245; K    6; EIG -1.2368365E-01 AU
 INDIRECT ENERGY BAND GAP:   3.0643 eV
 BOTTOM OF VIRTUAL BANDS - BAND    245; K    1; EIG -1.2059797E-01 AU
 TTTTTTTTTTTTTTTTTTTTTTTTTTTTTT PDIG        TELAPSE      451.97 TCPU      325.67
 TOTAL ATOMIC CHARGES:
   1.1119606   1.1119606   1.1119606   1.1119606   1.1187064   1.1187064
   1.1187064   1.1187064   5.9857986   5.9857986   5.9857986   5.9857986
   5.9296693   5.9296693   5.9296693   5.9296693   5.6087919   5.6087919
   5.6087919   5.6087919   6.1243735   6.1243735   6.1243735   6.1243735
   5.5978131   5.5978131   5.5978131   5.5978131   6.0332048   6.0332048
   6.0332048   6.0332048   7.0534987   7.0534987   7.0534987   7.0534987
   7.1056237   7.1056237   7.1056237   7.1056237   7.0567862   7.0567862
   7.0567862   7.0567862   7.0822648   7.0822648   7.0822648   7.0822648
   7.3303187   7.3303187   7.3303187   7.3303187  17.1640969  17.1640969
  17.1640969  17.1640969  17.1145729  17.1145729  17.1145729  17.1145729
  29.1494030  29.1806771
 TTTTTTTTTTTTTTTTTTTTTTTTTTTTTT MOQGAD      TELAPSE      452.02 TCPU      325.72
 TTTTTTTTTTTTTTTTTTTTTTTTTTTTTT SHELLXN     TELAPSE      531.11 TCPU      395.41
 TTTTTTTTTTTTTTTTTTTTTTTTTTTTTT MONMO3      TELAPSE      542.89 TCPU      407.16
 NUMERICALLY INTEGRATED DENSITY    487.9998839695
 TTTTTTTTTTTTTTTTTTTTTTTTTTTTTT NUMDFT      TELAPSE      549.62 TCPU      413.88
 CYC   3 ETOT(AU) -9.247347825027E+03 DETOT -2.91E+00 tst  1.13E-02 PX  3.50E-01
 TTTTTTTTTTTTTTTTTTTTTTTTTTTTTT DIIS        TELAPSE      551.12 TCPU      415.37
 DIIS TEST: 0.31304E+01 AT SCF   CYCLE   3 - DIIS ACTIVE - HISTORY:     3 CYCLES
 TTTTTTTTTTTTTTTTTTTTTTTTTTTTTT FDIK        TELAPSE      569.76 TCPU      427.43
 INSULATING STATE
 TOP OF VALENCE BANDS -    BAND    244; K    4; EIG -2.3050456E-01 AU
 TOP OF VALENCE BANDS -    BAND    244; K    1; EIG -2.3087503E-01 AU
 BOTTOM OF VIRTUAL BANDS - BAND    245; K    6; EIG -1.2540609E-01 AU
 INDIRECT ENERGY BAND GAP:   2.8599 eV
 BOTTOM OF VIRTUAL BANDS - BAND    245; K    1; EIG -1.2113775E-01 AU
 TTTTTTTTTTTTTTTTTTTTTTTTTTTTTT PDIG        TELAPSE      570.48 TCPU      428.14
 TOTAL ATOMIC CHARGES:
   1.1239477   1.1239477   1.1239477   1.1239477   1.1560094   1.1560094
   1.1560094   1.1560094   6.3277548   6.3277548   6.3277548   6.3277548
   5.8404318   5.8404318   5.8404318   5.8404318   5.6680221   5.6680221
   5.6680221   5.6680221   5.7673326   5.7673326   5.7673326   5.7673326
   5.4551830   5.4551830   5.4551830   5.4551830   6.2035458   6.2035458
   6.2035458   6.2035458   7.2669146   7.2669146   7.2669146   7.2669146
   7.0856268   7.0856268   7.0856268   7.0856268   7.2343452   7.2343452
   7.2343452   7.2343452   7.0185003   7.0185003   7.0185003   7.0185003
   7.0006340   7.0006340   7.0006340   7.0006340  17.1977201  17.1977201
  17.1977201  17.1977201  17.2542297  17.2542297  17.2542297  17.2542297
  28.7968993  28.8023093
 TTTTTTTTTTTTTTTTTTTTTTTTTTTTTT MOQGAD      TELAPSE      570.53 TCPU      428.19
 TTTTTTTTTTTTTTTTTTTTTTTTTTTTTT SHELLXN     TELAPSE      642.63 TCPU      497.67
 TTTTTTTTTTTTTTTTTTTTTTTTTTTTTT MONMO3      TELAPSE      660.04 TCPU      515.04
 NUMERICALLY INTEGRATED DENSITY    487.9998829668
 TTTTTTTTTTTTTTTTTTTTTTTTTTTTTT NUMDFT      TELAPSE      666.64 TCPU      521.63
 CYC   4 ETOT(AU) -9.247775057191E+03 DETOT -4.27E-01 tst  4.20E-03 PX  2.34E-01
 TTTTTTTTTTTTTTTTTTTTTTTTTTTTTT DIIS        TELAPSE      677.67 TCPU      532.62
 DIIS TEST: 0.57762E+00 AT SCF   CYCLE   4 - DIIS ACTIVE - HISTORY:     4 CYCLES
 TTTTTTTTTTTTTTTTTTTTTTTTTTTTTT FDIK        TELAPSE      699.60 TCPU      544.39
 INSULATING STATE
 TOP OF VALENCE BANDS -    BAND    244; K    5; EIG -2.4255625E-01 AU
 TOP OF VALENCE BANDS -    BAND    244; K    1; EIG -2.4807244E-01 AU
 BOTTOM OF VIRTUAL BANDS - BAND    245; K    6; EIG -1.2861626E-01 AU
 INDIRECT ENERGY BAND GAP:   3.1005 eV
 BOTTOM OF VIRTUAL BANDS - BAND    245; K    1; EIG -1.2449275E-01 AU
 TTTTTTTTTTTTTTTTTTTTTTTTTTTTTT PDIG        TELAPSE      700.33 TCPU      545.12
 TOTAL ATOMIC CHARGES:
   1.1259440   1.1259440   1.1259440   1.1259440   1.1464268   1.1464268
   1.1464268   1.1464268   6.2620499   6.2620499   6.2620499   6.2620499
   5.8889570   5.8889570   5.8889570   5.8889570   5.6324677   5.6324677
   5.6324677   5.6324677   5.8913416   5.8913416   5.8913416   5.8913416
   5.5872829   5.5872829   5.5872829   5.5872829   6.0990126   6.0990126
   6.0990126   6.0990126   7.1624051   7.1624051   7.1624051   7.1624051
   7.1150568   7.1150568   7.1150568   7.1150568   7.1672037   7.1672037
   7.1672037   7.1672037   7.0623217   7.0623217   7.0623217   7.0623217
   7.0638586   7.0638586   7.0638586   7.0638586  17.1808368  17.1808368
  17.1808368  17.1808368  17.2178506  17.2178506  17.2178506  17.2178506
  28.7967482  28.7911891
 TTTTTTTTTTTTTTTTTTTTTTTTTTTTTT MOQGAD      TELAPSE      700.38 TCPU      545.17
 TTTTTTTTTTTTTTTTTTTTTTTTTTTTTT SHELLXN     TELAPSE      772.19 TCPU      614.62
 TTTTTTTTTTTTTTTTTTTTTTTTTTTTTT MONMO3      TELAPSE      798.19 TCPU      640.56
 NUMERICALLY INTEGRATED DENSITY    487.9998816648
 TTTTTTTTTTTTTTTTTTTTTTTTTTTTTT NUMDFT      TELAPSE      804.75 TCPU      647.11
 CYC   5 ETOT(AU) -9.247849490857E+03 DETOT -7.44E-02 tst  4.89E-04 PX  6.05E-02
 TTTTTTTTTTTTTTTTTTTTTTTTTTTTTT DIIS        TELAPSE      833.30 TCPU      675.59
 DIIS TEST: 0.82000E-01 AT SCF   CYCLE   5 - DIIS ACTIVE - HISTORY:     5 CYCLES
 TTTTTTTTTTTTTTTTTTTTTTTTTTTTTT FDIK        TELAPSE      863.40 TCPU      694.29
 INSULATING STATE
 TOP OF VALENCE BANDS -    BAND    244; K    5; EIG -2.4131118E-01 AU
 TOP OF VALENCE BANDS -    BAND    244; K    1; EIG -2.4524794E-01 AU
 BOTTOM OF VIRTUAL BANDS - BAND    245; K    6; EIG -1.2696711E-01 AU
 INDIRECT ENERGY BAND GAP:   3.1115 eV
 BOTTOM OF VIRTUAL BANDS - BAND    245; K    1; EIG -1.2268841E-01 AU
 TTTTTTTTTTTTTTTTTTTTTTTTTTTTTT PDIG        TELAPSE      864.12 TCPU      695.01
 TOTAL ATOMIC CHARGES:
   1.1238841   1.1238841   1.1238841   1.1238841   1.1463476   1.1463476
   1.1463476   1.1463476   6.2239180   6.2239180   6.2239180   6.2239180
   5.8672721   5.8672721   5.8672721   5.8672721   5.6619349   5.6619349
   5.6619349   5.6619349   5.8839359   5.8839359   5.8839359   5.8839359
   5.5024297   5.5024297   5.5024297   5.5024297   6.1484246   6.1484246
   6.1484246   6.1484246   7.2042410   7.2042410   7.2042410   7.2042410
   7.0877089   7.0877089   7.0877089   7.0877089   7.1930743   7.1930743
   7.1930743   7.1930743   7.0445612   7.0445612   7.0445612   7.0445612
   7.0753348   7.0753348   7.0753348   7.0753348  17.1920686  17.1920686
  17.1920686  17.1920686  17.2321132  17.2321132  17.2321132  17.2321132
  28.8238005  28.8272042
 TTTTTTTTTTTTTTTTTTTTTTTTTTTTTT MOQGAD      TELAPSE      864.17 TCPU      695.06
 TTTTTTTTTTTTTTTTTTTTTTTTTTTTTT SHELLXN     TELAPSE      934.75 TCPU      764.01
 TTTTTTTTTTTTTTTTTTTTTTTTTTTTTT MONMO3      TELAPSE      970.26 TCPU      799.35
 NUMERICALLY INTEGRATED DENSITY    487.9998813852
 TTTTTTTTTTTTTTTTTTTTTTTTTTTTTT NUMDFT      TELAPSE      976.78 TCPU      805.85
 CYC   6 ETOT(AU) -9.247859957150E+03 DETOT -1.05E-02 tst  7.01E-05 PX  3.20E-02
 TTTTTTTTTTTTTTTTTTTTTTTTTTTTTT DIIS        TELAPSE      981.26 TCPU      810.31
 DIIS TEST: 0.18485E-01 AT SCF   CYCLE   6 - DIIS ACTIVE - HISTORY:     6 CYCLES
 TTTTTTTTTTTTTTTTTTTTTTTTTTTTTT FDIK        TELAPSE      994.95 TCPU      821.74
 INSULATING STATE
 TOP OF VALENCE BANDS -    BAND    244; K    5; EIG -2.4062452E-01 AU
 TOP OF VALENCE BANDS -    BAND    244; K    1; EIG -2.4538886E-01 AU
 BOTTOM OF VIRTUAL BANDS - BAND    245; K    6; EIG -1.2721452E-01 AU
 INDIRECT ENERGY BAND GAP:   3.0860 eV
 BOTTOM OF VIRTUAL BANDS - BAND    245; K    1; EIG -1.2304896E-01 AU
 TTTTTTTTTTTTTTTTTTTTTTTTTTTTTT PDIG        TELAPSE      995.68 TCPU      822.47
 TOTAL ATOMIC CHARGES:
   1.1239151   1.1239151   1.1239151   1.1239151   1.1470405   1.1470405
   1.1470405   1.1470405   6.2392179   6.2392179   6.2392179   6.2392179
   5.8760726   5.8760726   5.8760726   5.8760726   5.6445768   5.6445768
   5.6445768   5.6445768   5.8714990   5.8714990   5.8714990   5.8714990
   5.5304954   5.5304954   5.5304954   5.5304954   6.1315299   6.1315299
   6.1315299   6.1315299   7.2008447   7.2008447   7.2008447   7.2008447
   7.1032443   7.1032443   7.1032443   7.1032443   7.1782243   7.1782243
   7.1782243   7.1782243   7.0426787   7.0426787   7.0426787   7.0426787
   7.0877266   7.0877266   7.0877266   7.0877266  17.1894095  17.1894095
  17.1894095  17.1894095  17.2189097  17.2189097  17.2189097  17.2189097
  28.8282978  28.8301622
 TTTTTTTTTTTTTTTTTTTTTTTTTTTTTT MOQGAD      TELAPSE      995.73 TCPU      822.52
 TTTTTTTTTTTTTTTTTTTTTTTTTTTTTT SHELLXN     TELAPSE     1074.90 TCPU      892.12
 TTTTTTTTTTTTTTTTTTTTTTTTTTTTTT MONMO3      TELAPSE     1086.94 TCPU      904.13
 NUMERICALLY INTEGRATED DENSITY    487.9998819948
 TTTTTTTTTTTTTTTTTTTTTTTTTTTTTT NUMDFT      TELAPSE     1093.26 TCPU      910.43
 CYC   7 ETOT(AU) -9.247862265024E+03 DETOT -2.31E-03 tst  1.31E-05 PX  1.04E-02
 TTTTTTTTTTTTTTTTTTTTTTTTTTTTTT DIIS        TELAPSE     1101.62 TCPU      918.77
 DIIS TEST: 0.39957E-02 AT SCF   CYCLE   7 - DIIS ACTIVE - HISTORY:     7 CYCLES
 TTTTTTTTTTTTTTTTTTTTTTTTTTTTTT FDIK        TELAPSE     1116.74 TCPU      929.94
 INSULATING STATE
 TOP OF VALENCE BANDS -    BAND    244; K    5; EIG -2.4091986E-01 AU
 TOP OF VALENCE BANDS -    BAND    244; K    1; EIG -2.4539070E-01 AU
 BOTTOM OF VIRTUAL BANDS - BAND    245; K    6; EIG -1.2724352E-01 AU
 INDIRECT ENERGY BAND GAP:   3.0933 eV
 BOTTOM OF VIRTUAL BANDS - BAND    245; K    1; EIG -1.2302613E-01 AU
 TTTTTTTTTTTTTTTTTTTTTTTTTTTTTT PDIG        TELAPSE     1117.47 TCPU      930.67
 TOTAL ATOMIC CHARGES:
   1.1232927   1.1232927   1.1232927   1.1232927   1.1460260   1.1460260
   1.1460260   1.1460260   6.2341322   6.2341322   6.2341322   6.2341322
   5.8746422   5.8746422   5.8746422   5.8746422   5.6491123   5.6491123
   5.6491123   5.6491123   5.8844890   5.8844890   5.8844890   5.8844890
   5.5293441   5.5293441   5.5293441   5.5293441   6.1353623   6.1353623
   6.1353623   6.1353623   7.1843624   7.1843624   7.1843624   7.1843624
   7.0944570   7.0944570   7.0944570   7.0944570   7.1888821   7.1888821
   7.1888821   7.1888821   7.0548376   7.0548376   7.0548376   7.0548376
   7.0757664   7.0757664   7.0757664   7.0757664  17.1901079  17.1901079
  17.1901079  17.1901079  17.2213646  17.2213646  17.2213646  17.2213646
  28.8259048  28.8293802
 TTTTTTTTTTTTTTTTTTTTTTTTTTTTTT MOQGAD      TELAPSE     1117.52 TCPU      930.71
 TTTTTTTTTTTTTTTTTTTTTTTTTTTTTT SHELLXN     TELAPSE     1189.76 TCPU     1000.14
 TTTTTTTTTTTTTTTTTTTTTTTTTTTTTT MONMO3      TELAPSE     1199.10 TCPU     1009.45
 NUMERICALLY INTEGRATED DENSITY    487.9998818491
 TTTTTTTTTTTTTTTTTTTTTTTTTTTTTT NUMDFT      TELAPSE     1205.58 TCPU     1015.91
 CYC   8 ETOT(AU) -9.247862470680E+03 DETOT -2.06E-04 tst  2.60E-06 PX  4.34E-03
 TTTTTTTTTTTTTTTTTTTTTTTTTTTTTT DIIS        TELAPSE     1209.54 TCPU     1019.86
 DIIS TEST: 0.24790E-02 AT SCF   CYCLE   8 - DIIS ACTIVE - HISTORY:     8 CYCLES
 TTTTTTTTTTTTTTTTTTTTTTTTTTTTTT FDIK        TELAPSE     1224.37 TCPU     1032.31
 INSULATING STATE
 TOP OF VALENCE BANDS -    BAND    244; K    5; EIG -2.4134261E-01 AU
 TOP OF VALENCE BANDS -    BAND    244; K    1; EIG -2.4588371E-01 AU
 BOTTOM OF VIRTUAL BANDS - BAND    245; K    6; EIG -1.2740292E-01 AU
 INDIRECT ENERGY BAND GAP:   3.1005 eV
 BOTTOM OF VIRTUAL BANDS - BAND    245; K    1; EIG -1.2322114E-01 AU
 TTTTTTTTTTTTTTTTTTTTTTTTTTTTTT PDIG        TELAPSE     1225.10 TCPU     1033.03
 TOTAL ATOMIC CHARGES:
   1.1229878   1.1229878   1.1229878   1.1229878   1.1456689   1.1456689
   1.1456689   1.1456689   6.2342979   6.2342979   6.2342979   6.2342979
   5.8723444   5.8723444   5.8723444   5.8723444   5.6491059   5.6491059
   5.6491059   5.6491059   5.8850663   5.8850663   5.8850663   5.8850663
   5.5281252   5.5281252   5.5281252   5.5281252   6.1345456   6.1345456
   6.1345456   6.1345456   7.1991181   7.1991181   7.1991181   7.1991181
   7.1005058   7.1005058   7.1005058   7.1005058   7.1807966   7.1807966
   7.1807966   7.1807966   7.0429476   7.0429476   7.0429476   7.0429476
   7.0773985   7.0773985   7.0773985   7.0773985  17.1885579  17.1885579
  17.1885579  17.1885579  17.2246106  17.2246106  17.2246106  17.2246106
  28.8270704  28.8286212
 TTTTTTTTTTTTTTTTTTTTTTTTTTTTTT MOQGAD      TELAPSE     1225.15 TCPU     1033.08
 TTTTTTTTTTTTTTTTTTTTTTTTTTTTTT SHELLXN     TELAPSE     1297.11 TCPU     1102.52
 TTTTTTTTTTTTTTTTTTTTTTTTTTTTTT MONMO3      TELAPSE     1306.81 TCPU     1112.18
 NUMERICALLY INTEGRATED DENSITY    487.9998817956
 TTTTTTTTTTTTTTTTTTTTTTTTTTTTTT NUMDFT      TELAPSE     1313.33 TCPU     1118.69
 CYC   9 ETOT(AU) -9.247862707403E+03 DETOT -2.37E-04 tst  2.04E-06 PX  3.83E-03
 TTTTTTTTTTTTTTTTTTTTTTTTTTTTTT DIIS        TELAPSE     1316.66 TCPU     1122.00
 DIIS TEST: 0.90633E-03 AT SCF   CYCLE   9 - DIIS ACTIVE - HISTORY:     9 CYCLES
 TTTTTTTTTTTTTTTTTTTTTTTTTTTTTT FDIK        TELAPSE     1331.66 TCPU     1134.23
 INSULATING STATE
 TOP OF VALENCE BANDS -    BAND    244; K    5; EIG -2.4110889E-01 AU
 TOP OF VALENCE BANDS -    BAND    244; K    1; EIG -2.4568681E-01 AU
 BOTTOM OF VIRTUAL BANDS - BAND    245; K    6; EIG -1.2737668E-01 AU
 INDIRECT ENERGY BAND GAP:   3.0948 eV
 BOTTOM OF VIRTUAL BANDS - BAND    245; K    1; EIG -1.2317848E-01 AU
 TTTTTTTTTTTTTTTTTTTTTTTTTTTTTT PDIG        TELAPSE     1332.38 TCPU     1134.95
 TOTAL ATOMIC CHARGES:
   1.1230990   1.1230990   1.1230990   1.1230990   1.1460273   1.1460273
   1.1460273   1.1460273   6.2367329   6.2367329   6.2367329   6.2367329
   5.8730228   5.8730228   5.8730228   5.8730228   5.6478151   5.6478151
   5.6478151   5.6478151   5.8802229   5.8802229   5.8802229   5.8802229
   5.5268621   5.5268621   5.5268621   5.5268621   6.1336058   6.1336058
   6.1336058   6.1336058   7.1943793   7.1943793   7.1943793   7.1943793
   7.0969706   7.0969706   7.0969706   7.0969706   7.1849468   7.1849468
   7.1849468   7.1849468   7.0475350   7.0475350   7.0475350   7.0475350
   7.0815274   7.0815274   7.0815274   7.0815274  17.1899000  17.1899000
  17.1899000  17.1899000  17.2230788  17.2230788  17.2230788  17.2230788
  28.8274226  28.8296746
 TTTTTTTTTTTTTTTTTTTTTTTTTTTTTT MOQGAD      TELAPSE     1332.43 TCPU     1134.99
 TTTTTTTTTTTTTTTTTTTTTTTTTTTTTT SHELLXN     TELAPSE     1405.08 TCPU     1204.43
 TTTTTTTTTTTTTTTTTTTTTTTTTTTTTT MONMO3      TELAPSE     1419.27 TCPU     1218.57
 NUMERICALLY INTEGRATED DENSITY    487.9998818017
 TTTTTTTTTTTTTTTTTTTTTTTTTTTTTT NUMDFT      TELAPSE     1425.72 TCPU     1224.99
 CYC  10 ETOT(AU) -9.247862839609E+03 DETOT -1.32E-04 tst  3.28E-07 PX  1.36E-03
 TTTTTTTTTTTTTTTTTTTTTTTTTTTTTT DIIS        TELAPSE     1427.88 TCPU     1227.14
 DIIS TEST: 0.75975E-04 AT SCF   CYCLE  10 - DIIS ACTIVE - HISTORY:    10 CYCLES
 TTTTTTTTTTTTTTTTTTTTTTTTTTTTTT FDIK        TELAPSE     1448.37 TCPU     1242.28
 INSULATING STATE
 TOP OF VALENCE BANDS -    BAND    244; K    5; EIG -2.4107929E-01 AU
 TOP OF VALENCE BANDS -    BAND    244; K    1; EIG -2.4561440E-01 AU
 BOTTOM OF VIRTUAL BANDS - BAND    245; K    6; EIG -1.2732476E-01 AU
 INDIRECT ENERGY BAND GAP:   3.0954 eV
 BOTTOM OF VIRTUAL BANDS - BAND    245; K    1; EIG -1.2312828E-01 AU
 TTTTTTTTTTTTTTTTTTTTTTTTTTTTTT PDIG        TELAPSE     1449.10 TCPU     1243.01
 TOTAL ATOMIC CHARGES:
   1.1230140   1.1230140   1.1230140   1.1230140   1.1460322   1.1460322
   1.1460322   1.1460322   6.2347687   6.2347687   6.2347687   6.2347687
   5.8741201   5.8741201   5.8741201   5.8741201   5.6483531   5.6483531
   5.6483531   5.6483531   5.8811967   5.8811967   5.8811967   5.8811967
   5.5283065   5.5283065   5.5283065   5.5283065   6.1350123   6.1350123
   6.1350123   6.1350123   7.1931680   7.1931680   7.1931680   7.1931680
   7.0995085   7.0995085   7.0995085   7.0995085   7.1826464   7.1826464
   7.1826464   7.1826464   7.0480041   7.0480041   7.0480041   7.0480041
   7.0796954   7.0796954   7.0796954   7.0796954  17.1898463  17.1898463
  17.1898463  17.1898463  17.2221857  17.2221857  17.2221857  17.2221857
  28.8271071  28.8294611
 TTTTTTTTTTTTTTTTTTTTTTTTTTTTTT MOQGAD      TELAPSE     1449.15 TCPU     1243.06
 TTTTTTTTTTTTTTTTTTTTTTTTTTTTTT SHELLXN     TELAPSE     1520.14 TCPU     1312.33
 TTTTTTTTTTTTTTTTTTTTTTTTTTTTTT MONMO3      TELAPSE     1546.13 TCPU     1338.26
 NUMERICALLY INTEGRATED DENSITY    487.9998818901
 TTTTTTTTTTTTTTTTTTTTTTTTTTTTTT NUMDFT      TELAPSE     1552.63 TCPU     1344.66
 CYC  11 ETOT(AU) -9.247862845074E+03 DETOT -5.47E-06 tst  6.98E-08 PX  6.49E-04
 TTTTTTTTTTTTTTTTTTTTTTTTTTTTTT DIIS        TELAPSE     1567.69 TCPU     1359.67
 DIIS TEST: 0.33835E-04 AT SCF   CYCLE  11 - DIIS ACTIVE - HISTORY:    11 CYCLES
 TTTTTTTTTTTTTTTTTTTTTTTTTTTTTT FDIK        TELAPSE     1591.82 TCPU     1373.80
 INSULATING STATE
 TOP OF VALENCE BANDS -    BAND    244; K    5; EIG -2.4108669E-01 AU
 TOP OF VALENCE BANDS -    BAND    244; K    1; EIG -2.4564798E-01 AU
 BOTTOM OF VIRTUAL BANDS - BAND    245; K    6; EIG -1.2736058E-01 AU
 INDIRECT ENERGY BAND GAP:   3.0946 eV
 BOTTOM OF VIRTUAL BANDS - BAND    245; K    1; EIG -1.2316648E-01 AU
 TTTTTTTTTTTTTTTTTTTTTTTTTTTTTT PDIG        TELAPSE     1592.55 TCPU     1374.52
 TOTAL ATOMIC CHARGES:
   1.1230364   1.1230364   1.1230364   1.1230364   1.1459991   1.1459991
   1.1459991   1.1459991   6.2354303   6.2354303   6.2354303   6.2354303
   5.8735958   5.8735958   5.8735958   5.8735958   5.6480571   5.6480571
   5.6480571   5.6480571   5.8817671   5.8817671   5.8817671   5.8817671
   5.5282549   5.5282549   5.5282549   5.5282549   6.1341465   6.1341465
   6.1341465   6.1341465   7.1945411   7.1945411   7.1945411   7.1945411
   7.0974185   7.0974185   7.0974185   7.0974185   7.1845624   7.1845624
   7.1845624   7.1845624   7.0471260   7.0471260   7.0471260   7.0471260
   7.0798795   7.0798795   7.0798795   7.0798795  17.1896576  17.1896576
  17.1896576  17.1896576  17.2224516  17.2224516  17.2224516  17.2224516
  28.8269857  28.8293188
 TTTTTTTTTTTTTTTTTTTTTTTTTTTTTT MOQGAD      TELAPSE     1592.60 TCPU     1374.57
 TTTTTTTTTTTTTTTTTTTTTTTTTTTTTT SHELLXN     TELAPSE     1664.38 TCPU     1443.91
 TTTTTTTTTTTTTTTTTTTTTTTTTTTTTT MONMO3      TELAPSE     1685.91 TCPU     1465.36
 NUMERICALLY INTEGRATED DENSITY    487.9998818217
 TTTTTTTTTTTTTTTTTTTTTTTTTTTTTT NUMDFT      TELAPSE     1692.37 TCPU     1471.79
 CYC  12 ETOT(AU) -9.247862848454E+03 DETOT -3.38E-06 tst  5.74E-08 PX  5.30E-04
 TTTTTTTTTTTTTTTTTTTTTTTTTTTTTT DIIS        TELAPSE     1699.79 TCPU     1479.19
 DIIS TEST: 0.12978E-04 AT SCF   CYCLE  12 - DIIS ACTIVE - HISTORY:    12 CYCLES
 TTTTTTTTTTTTTTTTTTTTTTTTTTTTTT FDIK        TELAPSE     1713.91 TCPU     1491.31
 INSULATING STATE
 TOP OF VALENCE BANDS -    BAND    244; K    5; EIG -2.4109400E-01 AU
 TOP OF VALENCE BANDS -    BAND    244; K    1; EIG -2.4565008E-01 AU
 BOTTOM OF VIRTUAL BANDS - BAND    245; K    6; EIG -1.2733683E-01 AU
 INDIRECT ENERGY BAND GAP:   3.0955 eV
 BOTTOM OF VIRTUAL BANDS - BAND    245; K    1; EIG -1.2313993E-01 AU
 TTTTTTTTTTTTTTTTTTTTTTTTTTTTTT PDIG        TELAPSE     1714.64 TCPU     1492.04
 TOTAL ATOMIC CHARGES:
   1.1230733   1.1230733   1.1230733   1.1230733   1.1460249   1.1460249
   1.1460249   1.1460249   6.2358011   6.2358011   6.2358011   6.2358011
   5.8734069   5.8734069   5.8734069   5.8734069   5.6481952   5.6481952
   5.6481952   5.6481952   5.8811850   5.8811850   5.8811850   5.8811850
   5.5277097   5.5277097   5.5277097   5.5277097   6.1343107   6.1343107
   6.1343107   6.1343107   7.1938726   7.1938726   7.1938726   7.1938726
   7.0982829   7.0982829   7.0982829   7.0982829   7.1836767   7.1836767
   7.1836767   7.1836767   7.0476537   7.0476537   7.0476537   7.0476537
[...]
 TTTTTTTTTTTTTTTTTTTTTTTTTTTTTT MOQGAD      TELAPSE   324093.37 TCPU   321327.01
 TTTTTTTTTTTTTTTTTTTTTTTTTTTTTT CP_MONMON   TELAPSE   324109.95 TCPU   321343.55
 DIIS TEST: 0.49604E-04 AT CPHF  CYCLE  16 - DIIS ACTIVE - HISTORY:    16 CYCLES
 CYCLE  16   ALPHA  590.776891  EPSILON    2.387630  DELTA   -8.9972E-03
 TTTTTTTTTTTTTTTTTTTTTTTTTTTTTT MOQGAD      TELAPSE   324854.52 TCPU   322082.95
 TTTTTTTTTTTTTTTTTTTTTTTTTTTTTT CP_MONMON   TELAPSE   324870.21 TCPU   322098.58
 DIIS TEST: 0.62805E-05 AT CPHF  CYCLE  17 - DIIS ACTIVE - HISTORY:    17 CYCLES
 CYCLE  17   ALPHA  590.774706  EPSILON    2.387625  DELTA   -2.1843E-03
 TTTTTTTTTTTTTTTTTTTTTTTTTTTTTT MOQGAD      TELAPSE   325587.50 TCPU   322811.34
 TTTTTTTTTTTTTTTTTTTTTTTTTTTTTT CP_MONMON   TELAPSE   325603.21 TCPU   322827.00
 DIIS TEST: 0.14023E-05 AT CPHF  CYCLE  18 - DIIS ACTIVE - HISTORY:    18 CYCLES
 CYCLE  18   ALPHA  590.773532  EPSILON    2.387622  DELTA   -1.1744E-03
 TTTTTTTTTTTTTTTTTTTTTTTTTTTTTT MOQGAD      TELAPSE   326325.44 TCPU   323542.80
 TTTTTTTTTTTTTTTTTTTTTTTTTTTTTT CP_MONMON   TELAPSE   326341.32 TCPU   323558.62
 DIIS TEST: 0.22690E-06 AT CPHF  CYCLE  19 - DIIS ACTIVE - HISTORY:    19 CYCLES
 CYCLE  19   ALPHA  590.773806  EPSILON    2.387623  DELTA    2.7412E-04
 TTTTTTTTTTTTTTTTTTTTTTTTTTTTTT CP_SC       TELAPSE   326394.00 TCPU   323604.63

 *******************************************************************************

 POLARIZABILITY (ALPHA), DIELECTRIC (EPSILON) AND FIRST-ORDER ELECTRIC
 SUSCEPTIBILITY (CHI(1)) TENSORS (INDEPENDENT COMPONENTS)

  FR.(eV) COMP.   ALPHA(Re,Im)           EPSILON(Re,Im)                CHI(1)
  1.435   XX    1145.9965       0.0000       3.6917       0.0000       2.6917
  1.435   ZZ     590.7738       0.0000       2.3876       0.0000       1.3876

 DIELECTRIC TENSOR

 TENSOR IN PRINCIPAL AXES SYSTEM
 AA  3.691742E+00 BB  3.691742E+00 CC  2.387623E+00

 REFRACTIVE INDICES 
 AA  1.545193E+00 BB  1.921391E+00 CC  1.921391E+00

 OPTICALLY ANISOTROPIC - UNIAXIAL CRYSTAL

 BIREFRINGENCE =  0.3762 (NEGATIVE) - OBLATE OPTICAL ELLIPSOID

 EPSILON=N**2=1+CHI(1)=1+ALPHA*4*PI/V,   4*PI/V=   0.00235 BOHR**(-3)
 ALPHA IN BOHR**3; EPSILON AND CHI(1) ARE DIMENSIONLESS.
 *******************************************************************************

 DYNAMIC FIELD: RUN 10/ 10 - RADIATION WAVELENGTH: 1064.0000 NM

 *******************************************************************************

 ELECTRIC FIELD APPLIED ALONG CARTESIAN DIRECTION X

 *******************************************************************************
 THE NUMBER OF SYMMETRY OPERATORS HAS BEEN REDUCED FROM  4 TO  1

 NEW GRID IN RECIPROCAL SPACE
 *******************************************************************************
 POINTS IN THE IBZ                  14 SHRINKING FACTORS               3  3  3
 *******************************************************************************
 *** K POINTS COORDINATES (OBLIQUE COORDINATES IN UNITS OF SHRINK FAC. )
   1-R(  0  0  0)   2-C(  1  0  0)   3-C(  0  1  2)   4-C(  2  0  1)
   5-C(  0  2  0)   6-C(  1  1  0)   7-C(  1  1  1)   8-C(  1  0  1)
   9-C(  0  1  1)  10-C(  2  1  0)  11-C(  0  0  2)  12-C(  2  1  1)
  13-C(  2  1  2)  14-C(  2  2  1)

 GCALCO - MAX INDICES DIRECT LATTICE VECTOR    14    14    16
 NO.OF VECTORS CREATED 6999 STARS  482 RMAX   207.74031 BOHR
 TTTTTTTTTTTTTTTTTTTTTTTTTTTTTT gordsh1     TELAPSE   326394.15 TCPU   323604.64

 MATRIX SIZE: P(G) 1783844, F(G)  892628, P(G) IRR  894282, F(G) IRR  894282
 MAX G-VECTOR INDEX FOR 1- AND 2-ELECTRON INTEGRALS  63

 TTTTTTTTTTTTTTTTTTTTTTTTTTTTTT INPUT       TELAPSE   326394.52 TCPU   323605.00
 TTTTTTTTTTTTTTTTTTTTTTTTTTTTTT SYMM        TELAPSE   326394.52 TCPU   323605.00

 ***** NEW REFERENCE GEOMETRY *****
 TTTTTTTTTTTTTTTTTTTTTTTTTTTTTT INT_SCREEN  TELAPSE   326394.53 TCPU   323605.02
 INFORMATION **** EXCBUF **** EXCH. BIPO BUFFER: WORDS USED =           0

 DFT PARAMETERS

     ATOM       ELECTRONS   NET CHARGE   R(ANGSTROM)
   1   1  H       1.0000      0.0000     1.11000000
   9   6  C       6.0000      0.0000     0.77000000
  33   7  N       7.0000      0.0000     0.74000000
  53  17  CL     17.0000      0.0000     0.99000000
  61  30  ZN     30.0000      0.0000     1.37000000

 SIZE OF GRID=    1902850
 TTTTTTTTTTTTTTTTTTTTTTTTTTTTTT MAKE_GRID2  TELAPSE   326396.83 TCPU   323607.30
 BECKE WEIGHT FUNCTION
 RADSAFE =     2.00
 TOLERANCES - DENSITY:10**- 6; POTENTIAL:10**- 9; GRID WGT:10**-14

 RADIAL INTEGRATION  - INTERVALS (POINTS,UPPER LIMIT):            1( 75,  4.0*R)

 ANGULAR INTEGRATION - INTERVALS (ACCURACY LEVEL [N. POINTS] UPPER LIMIT):
  1(  4[  86]   0.2)  2(  8[ 194]   0.5)  3( 12[ 350]   0.9)  4( 16[ 974]   3.5)
  5( 12[ 350]9999.0)
 TTTTTTTTTTTTTTTTTTTTTTTTTTTTTT INT_CALC    TELAPSE   326396.94 TCPU   323607.41
 CYCLE   0   ALPHA 1523.609231  EPSILON    4.578687  DELTA    1.5236E+03
 TTTTTTTTTTTTTTTTTTTTTTTTTTTTTT MOQGAD      TELAPSE   327811.38 TCPU   325016.05
 TTTTTTTTTTTTTTTTTTTTTTTTTTTTTT CP_MONMON   TELAPSE   327840.67 TCPU   325045.26
 DIIS TEST: 0.31184E+03 AT CPHF  CYCLE   1 - MIX    0 %
 CYCLE   1   ALPHA  364.664545  EPSILON    1.856532  DELTA   -1.1589E+03
 TTTTTTTTTTTTTTTTTTTTTTTTTTTTTT MOQGAD      TELAPSE   329272.44 TCPU   326472.60
 TTTTTTTTTTTTTTTTTTTTTTTTTTTTTT CP_MONMON   TELAPSE   329301.71 TCPU   326501.76
 DIIS TEST: 0.23028E+04 AT CPHF  CYCLE   2 - DIIS ACTIVE - HISTORY:     2 CYCLES
 CYCLE   2   ALPHA 1054.449794  EPSILON    3.476715  DELTA    6.8979E+02
 TTTTTTTTTTTTTTTTTTTTTTTTTTTTTT MOQGAD      TELAPSE   330757.58 TCPU   327946.32
 TTTTTTTTTTTTTTTTTTTTTTTTTTTTTT CP_MONMON   TELAPSE   330786.77 TCPU   327975.41
 DIIS TEST: 0.54177E+02 AT CPHF  CYCLE   3 - DIIS ACTIVE - HISTORY:     3 CYCLES
 CYCLE   3   ALPHA 1109.509462  EPSILON    3.606041  DELTA    5.5060E+01
 TTTTTTTTTTTTTTTTTTTTTTTTTTTTTT MOQGAD      TELAPSE   332203.73 TCPU   329387.13
 TTTTTTTTTTTTTTTTTTTTTTTTTTTTTT CP_MONMON   TELAPSE   332233.02 TCPU   329416.28
 DIIS TEST: 0.66062E+01 AT CPHF  CYCLE   4 - DIIS ACTIVE - HISTORY:     4 CYCLES
 CYCLE   4   ALPHA 1120.903324  EPSILON    3.632803  DELTA    1.1394E+01
 TTTTTTTTTTTTTTTTTTTTTTTTTTTTTT MOQGAD      TELAPSE   333675.20 TCPU   330849.74
 TTTTTTTTTTTTTTTTTTTTTTTTTTTTTT CP_MONMON   TELAPSE   333704.28 TCPU   330878.72
 DIIS TEST: 0.10809E+01 AT CPHF  CYCLE   5 - DIIS ACTIVE - HISTORY:     5 CYCLES
 CYCLE   5   ALPHA 1124.732723  EPSILON    3.641797  DELTA    3.8294E+00
 TTTTTTTTTTTTTTTTTTTTTTTTTTTTTT MOQGAD      TELAPSE   335134.04 TCPU   332296.99
 TTTTTTTTTTTTTTTTTTTTTTTTTTTTTT CP_MONMON   TELAPSE   335163.30 TCPU   332326.15
 DIIS TEST: 0.13795E+00 AT CPHF  CYCLE   6 - DIIS ACTIVE - HISTORY:     6 CYCLES
 CYCLE   6   ALPHA 1126.465271  EPSILON    3.645867  DELTA    1.7325E+00
 TTTTTTTTTTTTTTTTTTTTTTTTTTTTTT MOQGAD      TELAPSE   336606.84 TCPU   333759.13
 TTTTTTTTTTTTTTTTTTTTTTTTTTTTTT CP_MONMON   TELAPSE   336635.87 TCPU   333788.06
 DIIS TEST: 0.13041E-01 AT CPHF  CYCLE   7 - DIIS ACTIVE - HISTORY:     7 CYCLES
 CYCLE   7   ALPHA 1126.844719  EPSILON    3.646758  DELTA    3.7945E-01
 TTTTTTTTTTTTTTTTTTTTTTTTTTTTTT MOQGAD      TELAPSE   338056.40 TCPU   335202.77
 TTTTTTTTTTTTTTTTTTTTTTTTTTTTTT CP_MONMON   TELAPSE   338085.70 TCPU   335231.94
 DIIS TEST: 0.22809E-02 AT CPHF  CYCLE   8 - DIIS ACTIVE - HISTORY:     8 CYCLES
 CYCLE   8   ALPHA 1126.938705  EPSILON    3.646979  DELTA    9.3986E-02
 TTTTTTTTTTTTTTTTTTTTTTTTTTTTTT MOQGAD      TELAPSE   339533.61 TCPU   336670.44
 TTTTTTTTTTTTTTTTTTTTTTTTTTTTTT CP_MONMON   TELAPSE   339562.65 TCPU   336699.39
 DIIS TEST: 0.10933E-03 AT CPHF  CYCLE   9 - DIIS ACTIVE - HISTORY:     9 CYCLES
 CYCLE   9   ALPHA 1126.905871  EPSILON    3.646902  DELTA   -3.2834E-02
 TTTTTTTTTTTTTTTTTTTTTTTTTTTTTT MOQGAD      TELAPSE   340986.60 TCPU   338113.68
 TTTTTTTTTTTTTTTTTTTTTTTTTTTTTT CP_MONMON   TELAPSE   341015.58 TCPU   338142.59
 DIIS TEST: 0.32394E-04 AT CPHF  CYCLE  10 - DIIS ACTIVE - HISTORY:    10 CYCLES
 CYCLE  10   ALPHA 1126.895828  EPSILON    3.646878  DELTA   -1.0044E-02
 TTTTTTTTTTTTTTTTTTTTTTTTTTTTTT MOQGAD      TELAPSE   342434.56 TCPU   339553.90
 TTTTTTTTTTTTTTTTTTTTTTTTTTTTTT CP_MONMON   TELAPSE   342463.85 TCPU   339583.06
 DIIS TEST: 0.22276E-05 AT CPHF  CYCLE  11 - DIIS ACTIVE - HISTORY:    11 CYCLES
 CYCLE  11   ALPHA 1126.888711  EPSILON    3.646861  DELTA   -7.1166E-03
 TTTTTTTTTTTTTTTTTTTTTTTTTTTTTT MOQGAD      TELAPSE   343898.21 TCPU   341010.09
 TTTTTTTTTTTTTTTTTTTTTTTTTTTTTT CP_MONMON   TELAPSE   343927.40 TCPU   341039.16
 DIIS TEST: 0.61791E-06 AT CPHF  CYCLE  12 - DIIS ACTIVE - HISTORY:    12 CYCLES
 CYCLE  12   ALPHA 1126.887520  EPSILON    3.646859  DELTA   -1.1906E-03
 TTTTTTTTTTTTTTTTTTTTTTTTTTTTTT MOQGAD      TELAPSE   345367.21 TCPU   342469.24
 TTTTTTTTTTTTTTTTTTTTTTTTTTTTTT CP_MONMON   TELAPSE   345396.40 TCPU   342498.35
 DIIS TEST: 0.24422E-07 AT CPHF  CYCLE  13 - DIIS ACTIVE - HISTORY:    13 CYCLES
 CYCLE  13   ALPHA 1126.887090  EPSILON    3.646858  DELTA   -4.3023E-04
 TTTTTTTTTTTTTTTTTTTTTTTTTTTTTT CP_SC       TELAPSE   345453.33 TCPU   342550.96

 *******************************************************************************

 ELECTRIC FIELD APPLIED ALONG CARTESIAN DIRECTION Z

 *******************************************************************************
 THE NUMBER OF SYMMETRY OPERATORS HAS BEEN REDUCED FROM  4 TO  2

 NEW GRID IN RECIPROCAL SPACE
 *******************************************************************************
 POINTS IN THE IBZ                  10 SHRINKING FACTORS               3  3  3
 *******************************************************************************
 *** K POINTS COORDINATES (OBLIQUE COORDINATES IN UNITS OF SHRINK FAC. )
   1-R(  0  0  0)   2-C(  1  0  0)   3-C(  2  0  1)   4-C(  1  1  0)
   5-C(  1  0  1)   6-C(  2  1  0)   7-C(  0  0  2)   8-C(  2  1  1)
   9-C(  2  1  2)  10-C(  2  2  1)

 GCALCO - MAX INDICES DIRECT LATTICE VECTOR    14    14    16
 NO.OF VECTORS CREATED 6999 STARS  482 RMAX   207.74031 BOHR
 TTTTTTTTTTTTTTTTTTTTTTTTTTTTTT gordsh1     TELAPSE   345453.34 TCPU   342550.97

 MATRIX SIZE: P(G) 1783844, F(G)  892628, P(G) IRR  449492, F(G) IRR  449492
 MAX G-VECTOR INDEX FOR 1- AND 2-ELECTRON INTEGRALS  63

 TTTTTTTTTTTTTTTTTTTTTTTTTTTTTT INPUT       TELAPSE   345453.45 TCPU   342551.07
 TTTTTTTTTTTTTTTTTTTTTTTTTTTTTT SYMM        TELAPSE   345453.45 TCPU   342551.07

 ***** NEW REFERENCE GEOMETRY *****
 TTTTTTTTTTTTTTTTTTTTTTTTTTTTTT INT_SCREEN  TELAPSE   345453.46 TCPU   342551.08
 INFORMATION **** EXCBUF **** EXCH. BIPO BUFFER: WORDS USED =           0

 DFT PARAMETERS

     ATOM       ELECTRONS   NET CHARGE   R(ANGSTROM)
   1   1  H       1.0000      0.0000     1.11000000
   9   6  C       6.0000      0.0000     0.77000000
  33   7  N       7.0000      0.0000     0.74000000
  53  17  CL     17.0000      0.0000     0.99000000
  61  30  ZN     30.0000      0.0000     1.37000000

 SIZE OF GRID=     951540
 TTTTTTTTTTTTTTTTTTTTTTTTTTTTTT MAKE_GRID2  TELAPSE   345454.79 TCPU   342552.42
 BECKE WEIGHT FUNCTION
 RADSAFE =     2.00
 TOLERANCES - DENSITY:10**- 6; POTENTIAL:10**- 9; GRID WGT:10**-14

 RADIAL INTEGRATION  - INTERVALS (POINTS,UPPER LIMIT):            1( 75,  4.0*R)

 ANGULAR INTEGRATION - INTERVALS (ACCURACY LEVEL [N. POINTS] UPPER LIMIT):
  1(  4[  86]   0.2)  2(  8[ 194]   0.5)  3( 12[ 350]   0.9)  4( 16[ 974]   3.5)
  5( 12[ 350]9999.0)
 TTTTTTTTTTTTTTTTTTTTTTTTTTTTTT INT_CALC    TELAPSE   345454.86 TCPU   342552.48
 CYCLE   0   ALPHA  771.490913  EPSILON    2.812095  DELTA    7.7149E+02
 TTTTTTTTTTTTTTTTTTTTTTTTTTTTTT MOQGAD      TELAPSE   346169.36 TCPU   343263.96
 TTTTTTTTTTTTTTTTTTTTTTTTTTTTTT CP_MONMON   TELAPSE   346185.20 TCPU   343279.74
 DIIS TEST: 0.12986E+03 AT CPHF  CYCLE   1 - MIX    0 %
 CYCLE   1   ALPHA  292.220087  EPSILON    1.686373  DELTA   -4.7927E+02
 TTTTTTTTTTTTTTTTTTTTTTTTTTTTTT MOQGAD      TELAPSE   346909.84 TCPU   343997.37
 TTTTTTTTTTTTTTTTTTTTTTTTTTTTTT CP_MONMON   TELAPSE   346925.57 TCPU   344013.06
 DIIS TEST: 0.10060E+04 AT CPHF  CYCLE   2 - DIIS ACTIVE - HISTORY:     2 CYCLES
 CYCLE   2   ALPHA  541.877481  EPSILON    2.272774  DELTA    2.4966E+02
 TTTTTTTTTTTTTTTTTTTTTTTTTTTTTT MOQGAD      TELAPSE   347630.71 TCPU   344709.31
 TTTTTTTTTTTTTTTTTTTTTTTTTTTTTT CP_MONMON   TELAPSE   347646.56 TCPU   344725.11
 DIIS TEST: 0.27091E+02 AT CPHF  CYCLE   3 - DIIS ACTIVE - HISTORY:     3 CYCLES
 CYCLE   3   ALPHA  583.099893  EPSILON    2.369598  DELTA    4.1222E+01
 TTTTTTTTTTTTTTTTTTTTTTTTTTTTTT MOQGAD      TELAPSE   348385.63 TCPU   345459.98
 TTTTTTTTTTTTTTTTTTTTTTTTTTTTTT CP_MONMON   TELAPSE   348401.49 TCPU   345475.80
 DIIS TEST: 0.39769E+01 AT CPHF  CYCLE   4 - DIIS ACTIVE - HISTORY:     4 CYCLES
 CYCLE   4   ALPHA  584.621043  EPSILON    2.373171  DELTA    1.5211E+00
 TTTTTTTTTTTTTTTTTTTTTTTTTTTTTT MOQGAD      TELAPSE   349134.69 TCPU   346204.66
 TTTTTTTTTTTTTTTTTTTTTTTTTTTTTT CP_MONMON   TELAPSE   349150.56 TCPU   346220.49
 DIIS TEST: 0.43219E+00 AT CPHF  CYCLE   5 - DIIS ACTIVE - HISTORY:     5 CYCLES
 CYCLE   5   ALPHA  585.019200  EPSILON    2.374106  DELTA    3.9816E-01
 TTTTTTTTTTTTTTTTTTTTTTTTTTTTTT MOQGAD      TELAPSE   349883.86 TCPU   346946.95
 TTTTTTTTTTTTTTTTTTTTTTTTTTTTTT CP_MONMON   TELAPSE   349899.58 TCPU   346962.63
 DIIS TEST: 0.53464E+00 AT CPHF  CYCLE   6 - DIIS ACTIVE - HISTORY:     6 CYCLES
 CYCLE   6   ALPHA  584.947554  EPSILON    2.373938  DELTA   -7.1646E-02
 TTTTTTTTTTTTTTTTTTTTTTTTTTTTTT MOQGAD      TELAPSE   350631.52 TCPU   347688.22
 TTTTTTTTTTTTTTTTTTTTTTTTTTTTTT CP_MONMON   TELAPSE   350647.37 TCPU   347704.00
 DIIS TEST: 0.13287E+00 AT CPHF  CYCLE   7 - DIIS ACTIVE - HISTORY:     7 CYCLES
 CYCLE   7   ALPHA  585.681783  EPSILON    2.375662  DELTA    7.3423E-01
 TTTTTTTTTTTTTTTTTTTTTTTTTTTTTT MOQGAD      TELAPSE   351377.69 TCPU   348429.49
 TTTTTTTTTTTTTTTTTTTTTTTTTTTTTT CP_MONMON   TELAPSE   351393.41 TCPU   348445.16
 DIIS TEST: 0.27394E-01 AT CPHF  CYCLE   8 - DIIS ACTIVE - HISTORY:     8 CYCLES
 CYCLE   8   ALPHA  585.854340  EPSILON    2.376068  DELTA    1.7256E-01
 TTTTTTTTTTTTTTTTTTTTTTTTTTTTTT MOQGAD      TELAPSE   352120.32 TCPU   349167.71
 TTTTTTTTTTTTTTTTTTTTTTTTTTTTTT CP_MONMON   TELAPSE   352136.19 TCPU   349183.51
 DIIS TEST: 0.54274E-02 AT CPHF  CYCLE   9 - DIIS ACTIVE - HISTORY:     9 CYCLES
 CYCLE   9   ALPHA  585.896960  EPSILON    2.376168  DELTA    4.2620E-02
 TTTTTTTTTTTTTTTTTTTTTTTTTTTTTT MOQGAD      TELAPSE   352844.13 TCPU   349884.43
 TTTTTTTTTTTTTTTTTTTTTTTTTTTTTT CP_MONMON   TELAPSE   352859.98 TCPU   349900.23
 DIIS TEST: 0.44695E-02 AT CPHF  CYCLE  10 - DIIS ACTIVE - HISTORY:    10 CYCLES
 CYCLE  10   ALPHA  585.875445  EPSILON    2.376117  DELTA   -2.1515E-02
 TTTTTTTTTTTTTTTTTTTTTTTTTTTTTT MOQGAD      TELAPSE   353571.20 TCPU   350606.74
 TTTTTTTTTTTTTTTTTTTTTTTTTTTTTT CP_MONMON   TELAPSE   353586.89 TCPU   350622.39
 DIIS TEST: 0.42168E-02 AT CPHF  CYCLE  11 - DIIS ACTIVE - HISTORY:    11 CYCLES
 CYCLE  11   ALPHA  585.833292  EPSILON    2.376018  DELTA   -4.2153E-02
 TTTTTTTTTTTTTTTTTTTTTTTTTTTTTT MOQGAD      TELAPSE   354306.86 TCPU   351337.06
 TTTTTTTTTTTTTTTTTTTTTTTTTTTTTT CP_MONMON   TELAPSE   354322.63 TCPU   351352.79
 DIIS TEST: 0.32003E-02 AT CPHF  CYCLE  12 - DIIS ACTIVE - HISTORY:    12 CYCLES
 CYCLE  12   ALPHA  585.851931  EPSILON    2.376062  DELTA    1.8639E-02
 TTTTTTTTTTTTTTTTTTTTTTTTTTTTTT MOQGAD      TELAPSE   355056.86 TCPU   352081.89
 TTTTTTTTTTTTTTTTTTTTTTTTTTTTTT CP_MONMON   TELAPSE   355072.59 TCPU   352097.58
 DIIS TEST: 0.12817E-02 AT CPHF  CYCLE  13 - DIIS ACTIVE - HISTORY:    13 CYCLES
 CYCLE  13   ALPHA  585.884111  EPSILON    2.376138  DELTA    3.2180E-02
 TTTTTTTTTTTTTTTTTTTTTTTTTTTTTT MOQGAD      TELAPSE   355794.57 TCPU   352816.95
 TTTTTTTTTTTTTTTTTTTTTTTTTTTTTT CP_MONMON   TELAPSE   355810.42 TCPU   352832.74
 DIIS TEST: 0.33837E-03 AT CPHF  CYCLE  14 - DIIS ACTIVE - HISTORY:    14 CYCLES
 CYCLE  14   ALPHA  585.892656  EPSILON    2.376158  DELTA    8.5449E-03
 TTTTTTTTTTTTTTTTTTTTTTTTTTTTTT MOQGAD      TELAPSE   356517.09 TCPU   353534.63
 TTTTTTTTTTTTTTTTTTTTTTTTTTTTTT CP_MONMON   TELAPSE   356533.66 TCPU   353551.15
 DIIS TEST: 0.15499E-03 AT CPHF  CYCLE  15 - DIIS ACTIVE - HISTORY:    15 CYCLES
 CYCLE  15   ALPHA  585.887419  EPSILON    2.376145  DELTA   -5.2377E-03
 TTTTTTTTTTTTTTTTTTTTTTTTTTTTTT MOQGAD      TELAPSE   357261.72 TCPU   354274.77
 TTTTTTTTTTTTTTTTTTTTTTTTTTTTTT CP_MONMON   TELAPSE   357277.59 TCPU   354290.57
 DIIS TEST: 0.49327E-04 AT CPHF  CYCLE  16 - DIIS ACTIVE - HISTORY:    16 CYCLES
 CYCLE  16   ALPHA  585.880380  EPSILON    2.376129  DELTA   -7.0390E-03
 TTTTTTTTTTTTTTTTTTTTTTTTTTTTTT MOQGAD      TELAPSE   358019.03 TCPU   355027.31
 TTTTTTTTTTTTTTTTTTTTTTTTTTTTTT CP_MONMON   TELAPSE   358034.76 TCPU   355043.01
 DIIS TEST: 0.48556E-05 AT CPHF  CYCLE  17 - DIIS ACTIVE - HISTORY:    17 CYCLES
 CYCLE  17   ALPHA  585.878379  EPSILON    2.376124  DELTA   -2.0005E-03
 TTTTTTTTTTTTTTTTTTTTTTTTTTTTTT MOQGAD      TELAPSE   358790.74 TCPU   355793.88
 TTTTTTTTTTTTTTTTTTTTTTTTTTTTTT CP_MONMON   TELAPSE   358806.58 TCPU   355809.66
 DIIS TEST: 0.99382E-06 AT CPHF  CYCLE  18 - DIIS ACTIVE - HISTORY:    18 CYCLES
 CYCLE  18   ALPHA  585.877312  EPSILON    2.376122  DELTA   -1.0671E-03
 TTTTTTTTTTTTTTTTTTTTTTTTTTTTTT MOQGAD      TELAPSE   359525.23 TCPU   356521.24
 TTTTTTTTTTTTTTTTTTTTTTTTTTTTTT CP_MONMON   TELAPSE   359541.75 TCPU   356537.72
 DIIS TEST: 0.14997E-06 AT CPHF  CYCLE  19 - DIIS ACTIVE - HISTORY:    19 CYCLES
 CYCLE  19   ALPHA  585.877493  EPSILON    2.376122  DELTA    1.8065E-04
 TTTTTTTTTTTTTTTTTTTTTTTTTTTTTT CP_SC       TELAPSE   359592.30 TCPU   356585.10

 *******************************************************************************

 POLARIZABILITY (ALPHA), DIELECTRIC (EPSILON) AND FIRST-ORDER ELECTRIC
 SUSCEPTIBILITY (CHI(1)) TENSORS (INDEPENDENT COMPONENTS)

  FR.(eV) COMP.   ALPHA(Re,Im)           EPSILON(Re,Im)                CHI(1)
  1.165   XX    1126.8871       0.0000       3.6469       0.0000       2.6469
  1.165   ZZ     585.8775       0.0000       2.3761       0.0000       1.3761

 DIELECTRIC TENSOR

 TENSOR IN PRINCIPAL AXES SYSTEM
 AA  3.646858E+00 BB  3.646858E+00 CC  2.376122E+00

 REFRACTIVE INDICES 
 AA  1.541468E+00 BB  1.909675E+00 CC  1.909675E+00

 OPTICALLY ANISOTROPIC - UNIAXIAL CRYSTAL

 BIREFRINGENCE =  0.3682 (NEGATIVE) - OBLATE OPTICAL ELLIPSOID

 EPSILON=N**2=1+CHI(1)=1+ALPHA*4*PI/V,   4*PI/V=   0.00235 BOHR**(-3)
 ALPHA IN BOHR**3; EPSILON AND CHI(1) ARE DIMENSIONLESS.
 *******************************************************************************


 GCALCO - MAX INDICES DIRECT LATTICE VECTOR    14    14    16
 NO.OF VECTORS CREATED 6999 STARS  482 RMAX   207.74031 BOHR

 CAPPA:IS1  3;IS2  3;IS3  3; K PTS MONK NET   6; SYMMOPS:K SPACE   8;G SPACE   4

 TTTTTTTTTTTTTTTTTTTTTTTTTTTTTT END         TELAPSE   359592.37 TCPU   356585.10
 EEEEEEEEEE TERMINATION  DATE 08 12 2023 TIME 09:54:06.1
NODE    0 CPU TIME =    356585.101
NODE    1 CPU TIME =    357187.083
NODE    2 CPU TIME =    356435.616
NODE    3 CPU TIME =    356256.461
NODE    4 CPU TIME =    356785.825
NODE    5 CPU TIME =    357107.495
NODE    6 CPU TIME =    356355.789
NODE    7 CPU TIME =    356186.633
NODE    8 CPU TIME =    356732.698
NODE    9 CPU TIME =    357090.331
NODE   10 CPU TIME =    356308.868
NODE   11 CPU TIME =    355910.554
NODE   12 CPU TIME =    356602.656
NODE   13 CPU TIME =    356763.687
NODE   14 CPU TIME =    355982.932
NODE   15 CPU TIME =    355697.910
NODE   16 CPU TIME =    356445.061
NODE   17 CPU TIME =    356739.913
NODE   18 CPU TIME =    355925.503
NODE   19 CPU TIME =    355679.879
NODE   20 CPU TIME =    356448.924
NODE   21 CPU TIME =    356489.912
NODE   22 CPU TIME =    355519.087
NODE   23 CPU TIME =    355040.936
    TOTAL CPU TIME =   8552278.854
trying normal rsh (/usr/bin/rsh)
exec: No such file or directory
trying normal rsh (/usr/bin/rsh)
exec: No such file or directory
trying normal rsh (/usr/bin/rsh)
exec: No such file or directory
trying normal rsh (/usr/bin/rsh)
exec: No such file or directory
