Loading crystal17/1.0.2/intel/19.0
  Loading requirement: intel/19.0 ompi/4.0.1/intel/19.0
 PROCESS            1  OF           24  WORKING
 PROCESS            5  OF           24  WORKING
 PROCESS           22  OF           24  WORKING
 PROCESS            2  OF           24  WORKING
 PROCESS            3  OF           24  WORKING
 PROCESS            7  OF           24  WORKING
 PROCESS           10  OF           24  WORKING
 PROCESS           23  OF           24  WORKING
 PROCESS            4  OF           24  WORKING
 PROCESS            8  OF           24  WORKING
 PROCESS            9  OF           24  WORKING
 PROCESS           11  OF           24  WORKING
 PROCESS           12  OF           24  WORKING
 PROCESS           18  OF           24  WORKING
 PROCESS           21  OF           24  WORKING
 PROCESS           15  OF           24  WORKING
 PROCESS            0  OF           24  WORKING
 PROCESS            6  OF           24  WORKING
 PROCESS           13  OF           24  WORKING
 PROCESS           14  OF           24  WORKING
 PROCESS           16  OF           24  WORKING
 PROCESS           19  OF           24  WORKING
 PROCESS           20  OF           24  WORKING
 PROCESS           17  OF           24  WORKING

         
 *******************************************************************************
 *                                                                             *
 *                               CRYSTAL17                                     *
 *                      public : 1.0.2 - March 1st, 2018                       *
 *                       HTTP://WWW.CRYSTAL.UNITO.IT                           *
 *                                                                             *
 *                              MAIN AUTHORS                                   *
 *                                                                             *
 *  R. DOVESI(1,11), V.R. SAUNDERS(2), C. ROETTI(1,11), R. ORLANDO(1,11),      *
 *  C.M. ZICOVICH-WILSON(1,3), F. PASCALE(4), B. CIVALLERI(1,11),              *
 *  K. DOLL(5), N.M. HARRISON(2,6), I.J. BUSH(7), Ph. D'ARCO(8),               *
 *  M. LLUNELL(9), M. CAUSA'(10), Y. NOEL(8), L. MASCHIO(1,11), A. ERBA(1,11)  *
 *  M. RE'RAT(14), S. CASASSA(1,11)                                            *
 *                                                                             *
 *        CONTRIBUTIONS TO THE CODE HAVE ALSO BEEN GIVEN BY                    *
 *                                                                             *
 *  M. FERRABONE(1,11), M. DE LA PIERRE(1,11), M. FERRERO(1,11),               *
 *  J. BAIMA(1,11), E. ALBANESE(1,11), M.F. PEINTINGER(12), R. BAST(13),       *
 *  B. KIRTMAN(15), V. LACIVITA(1,11), R. DEMICHELIS(1,16)                     *
 *  G. BRANDEBURG(17), S. SALUSTRO(1,11), G. SANSONE(1,11)                     *
 *  M.T. RUGGIERO(18)                                                          *
 *                                                                             *
 * (1) THEORETICAL CHEMISTRY GROUP - UNIVERSITA' DI TORINO - TORINO (ITALY)    *
 * (2) COMPUTATIONAL SCIENCE & ENGINEERING DEPARTMENT - STFC DARESBURY (UK)    *
 * (3) UNIVERSIDAD AUTONOMA DEL ESTADO DE MORELOS - CUERNAVACA (MEXICO)        *
 * (4) UNIVERSITE' DE LORRAINE - NANCY (FRANCE)                                *
 * (5) UNIVERSITAET STUTTGART- STUTTGART (GERMANY)                             *
 * (6) IMPERIAL COLLEGE - LONDON (UK)                                          *
 * (7) OXFORD E-RESEARCH CENTRE - OXFORD (UK)                                  *
 * (8) UPMC - SORBONNE UNIVERSITES - PARIS (FRANCE)                            *
 * (9) UNIVERSIDAD DE BARCELONA - BARCELONA (SPAIN)                            *
 *(10) UNIVERSITA' DI NAPOLI "FEDERICO II" - NAPOLI (ITALY)                    *
 *(11) NIS - NANOSTRUCTURED INTERFACES AND SURFACES - TORINO (ITALY)           *
 *(12) MPI FUER CHEMISCHE ENERGIEKONVERSION - MUELHEIM AN DER RUHR (GERMANY)   *
 *(13) UNIVERSITY OF TROMSO - TROMSO (NORWAY)                                  *
 *(14) UNIVERSITE' DE PAU ET DES PAYS DE L'ADOUR - PAU (FRANCE)                *
 *(15) UNIVERSITY OF CALIFORNIA SANTA BARBARA - SANTA BARBARA (USA)            *
 *(16) CURTIN UNIVERSITY - PERTH (AUSTRALIA)                                   *
 *(17) UNIVERSITY COLLEGE LONDON - LONDON (UK)                                 *
 *(18) CAMBRIDGE UNIVERSITY - CAMBRIDGE (UK)                                   *
 *                                                                             *
 *******************************************************************************
 EEEEEEEEEE STARTING  DATE 04 12 2023 TIME 17:38:30.5
 Z:\home\sanoj\Downloads\tmp_p\newconn.mol                                       

 CRYSTAL CALCULATION
 (INPUT ACCORDING TO THE INTERNATIONAL TABLES FOR X-RAY CRYSTALLOGRAPHY)
 CRYSTAL FAMILY                       :  TETRAGONAL  
 CRYSTAL CLASS  (GROTH - 1921)        :  TETRAGONAL DISPHENOIDAL              

 SPACE GROUP (NONCENTROSYMMETRIC)     :  I -4            

 LATTICE PARAMETERS  (ANGSTROMS AND DEGREES) - CONVENTIONAL CELL
        A           B           C        ALPHA        BETA       GAMMA
    10.81929    10.81929    12.81163    90.00000    90.00000    90.00000


 NUMBER OF IRREDUCIBLE ATOMS IN THE CONVENTIONAL CELL:   17

 INPUT COORDINATES

 ATOM AT. N.              COORDINATES
   1   1     4.818800000000E-01  8.489900000000E-01  4.102100000000E-01
   2   1     4.000000000000E-01  4.746800000000E-01  3.801300000000E-01
   3   6     2.865600000000E-01  8.135100000000E-01  3.868000000000E-01
   4   6     2.586900000000E-01 -5.479000000000E-02  3.783300000000E-01
   5   6     1.991000000000E-01  7.179400000000E-01  3.775800000000E-01
   6   6     3.673900000000E-01  5.706900000000E-01  3.830100000000E-01
   7   6     4.114800000000E-01  7.784900000000E-01  3.971800000000E-01
   8   6     7.592200000000E-01  4.047600000000E-01  3.769700000000E-01
   9   7     3.435400000000E-01  2.375000000000E-02  3.362400000000E-01
  10   7     2.954300000000E-01  1.410100000000E-01  3.425600000000E-01
  11   7     1.584100000000E-01  1.211000000000E-02  4.086700000000E-01
  12   7     1.852400000000E-01  1.339900000000E-01  3.856300000000E-01
  13   7     4.514800000000E-01  6.614000000000E-01  3.936000000000E-01
  14  17     4.420000000000E-02  7.523900000000E-01  3.665400000000E-01
  15  17     1.410300000000E-01  4.715400000000E-01  3.696200000000E-01
  16  30     0.000000000000E+00  5.000000000000E-01  7.500000000000E-01
  17  30     0.000000000000E+00  0.000000000000E+00  5.000000000000E-01

 *******************************************************************************

 << INFORMATION >>: FROM NOW ON, ALL COORDINATES REFER TO THE PRIMITIVE CELL

 *******************************************************************************

 LATTICE PARAMETERS  (ANGSTROMS AND DEGREES) - PRIMITIVE CELL
       A          B          C        ALPHA      BETA     GAMMA        VOLUME
    9.97813    9.97813    9.97813   114.33971 114.33971 100.11988    749.845657

 COORDINATES OF THE EQUIVALENT ATOMS (FRACTIONAL UNITS)

 N. ATOM EQUIV AT. N.          X                  Y                  Z

   1   1   1    1 H     2.59200000000E-01 -1.07910000000E-01  3.30870000000E-01
   2   1   2    1 H    -4.38780000000E-01 -7.16700000000E-02 -3.30870000000E-01
   3   1   3    1 H     1.07910000000E-01  4.38780000000E-01  3.67110000000E-01
   4   1   4    1 H     7.16700000000E-02 -2.59200000000E-01 -3.67110000000E-01

   5   2   1    1 H    -1.45190000000E-01 -2.19870000000E-01 -1.25320000000E-01
   6   2   2    1 H    -9.45500000000E-02 -1.98700000000E-02  1.25320000000E-01
   7   2   3    1 H     2.19870000000E-01  9.45500000000E-02  7.46800000000E-02
   8   2   4    1 H     1.98700000000E-02  1.45190000000E-01 -7.46800000000E-02

   9   3   1    6 C     2.00310000000E-01 -3.26640000000E-01  1.00070000000E-01
  10   3   2    6 C    -4.26710000000E-01  1.00240000000E-01 -1.00070000000E-01
  11   3   3    6 C     3.26640000000E-01  4.26710000000E-01 -4.73050000000E-01
  12   3   4    6 C    -1.00240000000E-01 -2.00310000000E-01  4.73050000000E-01

  13   4   1    6 C     3.23540000000E-01 -3.62980000000E-01  2.03900000000E-01
  14   4   2    6 C     4.33120000000E-01  1.19640000000E-01 -2.03900000000E-01
  15   4   3    6 C     3.62980000000E-01 -4.33120000000E-01 -3.13480000000E-01
  16   4   4    6 C    -1.19640000000E-01 -3.23540000000E-01  3.13480000000E-01

  17   5   1    6 C     9.55200000000E-02 -4.23320000000E-01 -8.29600000000E-02
  18   5   2    6 C    -3.40360000000E-01  1.78480000000E-01  8.29600000000E-02
  19   5   3    6 C     4.23320000000E-01  3.40360000000E-01 -4.81160000000E-01
  20   5   4    6 C    -1.78480000000E-01 -9.55200000000E-02  4.81160000000E-01

  21   6   1    6 C    -4.63000000000E-02 -2.49600000000E-01 -6.19200000000E-02
  22   6   2    6 C    -1.87680000000E-01  1.56200000000E-02  6.19200000000E-02
  23   6   3    6 C     2.49600000000E-01  1.87680000000E-01  2.03300000000E-01
  24   6   4    6 C    -1.56200000000E-02  4.63000000000E-02 -2.03300000000E-01

  25   7   1    6 C     1.75670000000E-01 -1.91340000000E-01  1.89970000000E-01
  26   7   2    6 C    -3.81310000000E-01 -1.43000000000E-02 -1.89970000000E-01
  27   7   3    6 C     1.91340000000E-01  3.81310000000E-01  3.67010000000E-01
  28   7   4    6 C     1.43000000000E-02 -1.75670000000E-01 -3.67010000000E-01

  29   8   1    6 C    -2.18270000000E-01  1.36190000000E-01  1.63980000000E-01
  30   8   2    6 C    -2.77900000000E-02 -3.82250000000E-01 -1.63980000000E-01
  31   8   3    6 C    -1.36190000000E-01  2.77900000000E-02 -3.54460000000E-01
  32   8   4    6 C     3.82250000000E-01  2.18270000000E-01  3.54460000000E-01

  33   9   1    7 N     3.59990000000E-01 -3.20220000000E-01  3.67290000000E-01
  34   9   2    7 N     3.12490000000E-01 -7.30000000000E-03 -3.67290000000E-01
  35   9   3    7 N     3.20220000000E-01 -3.12490000000E-01 -3.19790000000E-01
  36   9   4    7 N     7.30000000000E-03 -3.59990000000E-01  3.19790000000E-01

  37  10   1    7 N     4.83570000000E-01 -3.62010000000E-01  4.36440000000E-01
  38  10   2    7 N     2.01550000000E-01  4.71300000000E-02 -4.36440000000E-01
  39  10   3    7 N     3.62010000000E-01 -2.01550000000E-01 -1.54420000000E-01
  40  10   4    7 N    -4.71300000000E-02 -4.83570000000E-01  1.54420000000E-01

  41  11   1    7 N     4.20780000000E-01 -4.32920000000E-01  1.70520000000E-01
  42  11   2    7 N     3.96560000000E-01  2.50260000000E-01 -1.70520000000E-01
  43  11   3    7 N     4.32920000000E-01 -3.96560000000E-01 -1.46300000000E-01
  44  11   4    7 N    -2.50260000000E-01 -4.20780000000E-01  1.46300000000E-01

  45  12   1    7 N    -4.80380000000E-01 -4.29130000000E-01  3.19230000000E-01
  46  12   2    7 N     2.51640000000E-01  2.00390000000E-01 -3.19230000000E-01
  47  12   3    7 N     4.29130000000E-01 -2.51640000000E-01 -5.12500000000E-02
  48  12   4    7 N    -2.00390000000E-01  4.80380000000E-01  5.12500000000E-02

  49  13   1    7 N     5.50000000000E-02 -1.54920000000E-01  1.12880000000E-01
  50  13   2    7 N    -2.67800000000E-01 -5.78800000000E-02 -1.12880000000E-01
  51  13   3    7 N     1.54920000000E-01  2.67800000000E-01  2.09920000000E-01
  52  13   4    7 N     5.78800000000E-02 -5.50000000000E-02 -2.09920000000E-01

  53  14   1   17 CL    1.18930000000E-01  4.10740000000E-01 -2.03410000000E-01
  54  14   2   17 CL   -3.85850000000E-01  3.22340000000E-01  2.03410000000E-01
  55  14   3   17 CL   -4.10740000000E-01  3.85850000000E-01 -2.91810000000E-01
  56  14   4   17 CL   -3.22340000000E-01 -1.18930000000E-01  2.91810000000E-01

  57  15   1   17 CL   -1.58840000000E-01 -4.89350000000E-01 -3.87430000000E-01
  58  15   2   17 CL   -1.01920000000E-01  2.28590000000E-01  3.87430000000E-01
  59  15   3   17 CL    4.89350000000E-01  1.01920000000E-01  3.30510000000E-01
  60  15   4   17 CL   -2.28590000000E-01  1.58840000000E-01 -3.30510000000E-01

  61  16   1   30 ZN    2.50000000000E-01 -2.50000000000E-01 -5.00000000000E-01

  62  17   1   30 ZN   -5.00000000000E-01 -5.00000000000E-01  0.00000000000E+00

 NUMBER OF SYMMETRY OPERATORS         :    4
 *******************************************************************************
 * GEOMETRY EDITING - INPUT COORDINATES ARE GIVEN IN ANGSTROM         
 *******************************************************************************

 GEOMETRY NOW FULLY CONSISTENT WITH THE GROUP

 GCALCO - MAX INDICES DIRECT LATTICE VECTOR    14    14    16
 NO.OF VECTORS CREATED 6999 STARS  486 RMAX   204.19219 BOHR

 GEOMETRY FOR WAVE FUNCTION - DIMENSIONALITY OF THE SYSTEM    3
 (NON PERIODIC DIRECTION: LATTICE PARAMETER FORMALLY SET TO 500)
 *******************************************************************************
 LATTICE PARAMETERS (ANGSTROMS AND DEGREES) - BOHR = 0.5291772083 ANGSTROM
 PRIMITIVE CELL - CENTRING CODE 6/0 VOLUME=   749.845657 - DENSITY  2.178 g/cm^3
         A              B              C           ALPHA      BETA       GAMMA 
     9.97812510     9.97812510     9.97812510   114.339706 114.339706 100.119878
 *******************************************************************************
 ATOMS IN THE ASYMMETRIC UNIT   17 - ATOMS IN THE UNIT CELL:   62
     ATOM                 X/A                 Y/B                 Z/C    
 *******************************************************************************
      1 T   1 H     2.592000000000E-01 -1.079100000000E-01  3.308700000000E-01
      2 F   1 H    -4.387800000000E-01 -7.167000000000E-02 -3.308700000000E-01
      3 F   1 H     1.079100000000E-01  4.387800000000E-01  3.671100000000E-01
      4 F   1 H     7.167000000000E-02 -2.592000000000E-01 -3.671100000000E-01
      5 T   1 H    -1.451900000000E-01 -2.198700000000E-01 -1.253200000000E-01
      6 F   1 H    -9.455000000000E-02 -1.987000000000E-02  1.253200000000E-01
      7 F   1 H     2.198700000000E-01  9.455000000000E-02  7.468000000000E-02
      8 F   1 H     1.987000000000E-02  1.451900000000E-01 -7.468000000000E-02
      9 T   6 C     2.003100000000E-01 -3.266400000000E-01  1.000700000000E-01
     10 F   6 C    -4.267100000000E-01  1.002400000000E-01 -1.000700000000E-01
     11 F   6 C     3.266400000000E-01  4.267100000000E-01 -4.730500000000E-01
     12 F   6 C    -1.002400000000E-01 -2.003100000000E-01  4.730500000000E-01
     13 T   6 C     3.235400000000E-01 -3.629800000000E-01  2.039000000000E-01
     14 F   6 C     4.331200000000E-01  1.196400000000E-01 -2.039000000000E-01
     15 F   6 C     3.629800000000E-01 -4.331200000000E-01 -3.134800000000E-01
     16 F   6 C    -1.196400000000E-01 -3.235400000000E-01  3.134800000000E-01
     17 T   6 C     9.552000000000E-02 -4.233200000000E-01 -8.296000000000E-02
     18 F   6 C    -3.403600000000E-01  1.784800000000E-01  8.296000000000E-02
     19 F   6 C     4.233200000000E-01  3.403600000000E-01 -4.811600000000E-01
     20 F   6 C    -1.784800000000E-01 -9.552000000000E-02  4.811600000000E-01
     21 T   6 C    -4.630000000000E-02 -2.496000000000E-01 -6.192000000000E-02
     22 F   6 C    -1.876800000000E-01  1.562000000000E-02  6.192000000000E-02
     23 F   6 C     2.496000000000E-01  1.876800000000E-01  2.033000000000E-01
     24 F   6 C    -1.562000000000E-02  4.630000000000E-02 -2.033000000000E-01
     25 T   6 C     1.756700000000E-01 -1.913400000000E-01  1.899700000000E-01
     26 F   6 C    -3.813100000000E-01 -1.430000000000E-02 -1.899700000000E-01
     27 F   6 C     1.913400000000E-01  3.813100000000E-01  3.670100000000E-01
     28 F   6 C     1.430000000000E-02 -1.756700000000E-01 -3.670100000000E-01
     29 T   6 C    -2.182700000000E-01  1.361900000000E-01  1.639800000000E-01
     30 F   6 C    -2.779000000000E-02 -3.822500000000E-01 -1.639800000000E-01
     31 F   6 C    -1.361900000000E-01  2.779000000000E-02 -3.544600000000E-01
     32 F   6 C     3.822500000000E-01  2.182700000000E-01  3.544600000000E-01
     33 T   7 N     3.599900000000E-01 -3.202200000000E-01  3.672900000000E-01
     34 F   7 N     3.124900000000E-01 -7.300000000000E-03 -3.672900000000E-01
     35 F   7 N     3.202200000000E-01 -3.124900000000E-01 -3.197900000000E-01
     36 F   7 N     7.300000000000E-03 -3.599900000000E-01  3.197900000000E-01
     37 T   7 N     4.835700000000E-01 -3.620100000000E-01  4.364400000000E-01
     38 F   7 N     2.015500000000E-01  4.713000000000E-02 -4.364400000000E-01
     39 F   7 N     3.620100000000E-01 -2.015500000000E-01 -1.544200000000E-01
     40 F   7 N    -4.713000000000E-02 -4.835700000000E-01  1.544200000000E-01
     41 T   7 N     4.207800000000E-01 -4.329200000000E-01  1.705200000000E-01
     42 F   7 N     3.965600000000E-01  2.502600000000E-01 -1.705200000000E-01
     43 F   7 N     4.329200000000E-01 -3.965600000000E-01 -1.463000000000E-01
     44 F   7 N    -2.502600000000E-01 -4.207800000000E-01  1.463000000000E-01
     45 T   7 N    -4.803800000000E-01 -4.291300000000E-01  3.192300000000E-01
     46 F   7 N     2.516400000000E-01  2.003900000000E-01 -3.192300000000E-01
     47 F   7 N     4.291300000000E-01 -2.516400000000E-01 -5.125000000000E-02
     48 F   7 N    -2.003900000000E-01  4.803800000000E-01  5.125000000000E-02
     49 T   7 N     5.500000000000E-02 -1.549200000000E-01  1.128800000000E-01
     50 F   7 N    -2.678000000000E-01 -5.788000000000E-02 -1.128800000000E-01
     51 F   7 N     1.549200000000E-01  2.678000000000E-01  2.099200000000E-01
     52 F   7 N     5.788000000000E-02 -5.500000000000E-02 -2.099200000000E-01
     53 T  17 CL    1.189300000000E-01  4.107400000000E-01 -2.034100000000E-01
     54 F  17 CL   -3.858500000000E-01  3.223400000000E-01  2.034100000000E-01
     55 F  17 CL   -4.107400000000E-01  3.858500000000E-01 -2.918100000000E-01
     56 F  17 CL   -3.223400000000E-01 -1.189300000000E-01  2.918100000000E-01
     57 T  17 CL   -1.588400000000E-01 -4.893500000000E-01 -3.874300000000E-01
     58 F  17 CL   -1.019200000000E-01  2.285900000000E-01  3.874300000000E-01
     59 F  17 CL    4.893500000000E-01  1.019200000000E-01  3.305100000000E-01
     60 F  17 CL   -2.285900000000E-01  1.588400000000E-01 -3.305100000000E-01
     61 T  30 ZN    2.500000000000E-01 -2.500000000000E-01  5.000000000000E-01
     62 T  30 ZN   -5.000000000000E-01 -5.000000000000E-01  0.000000000000E+00

 TRANSFORMATION MATRIX PRIMITIVE-CRYSTALLOGRAPHIC CELL
  0.0000  1.0000  1.0000  1.0000  0.0000  1.0000  1.0000  1.0000  0.0000

 *******************************************************************************
 CRYSTALLOGRAPHIC CELL (VOLUME=       1499.69131436)
         A              B              C           ALPHA      BETA       GAMMA 
    10.81928926    10.81928926    12.81163072    90.000000  90.000000  90.000000

 COORDINATES IN THE CRYSTALLOGRAPHIC CELL
     ATOM                 X/A                 Y/B                 Z/C    
 *******************************************************************************
      1 T   1 H    -1.812000000000E-02  3.489900000000E-01 -8.979000000000E-02
      2 F   1 H     1.812000000000E-02 -3.489900000000E-01 -8.979000000000E-02
      3 F   1 H     3.489900000000E-01  1.812000000000E-02  8.979000000000E-02
      4 F   1 H    -3.489900000000E-01 -1.812000000000E-02  8.979000000000E-02
      5 T   1 H    -1.000000000000E-01 -2.532000000000E-02 -1.198700000000E-01
      6 F   1 H     1.000000000000E-01  2.532000000000E-02 -1.198700000000E-01
      7 F   1 H    -2.532000000000E-02  1.000000000000E-01  1.198700000000E-01
      8 F   1 H     2.532000000000E-02 -1.000000000000E-01  1.198700000000E-01
      9 T   6 C    -2.134400000000E-01  3.135100000000E-01 -1.132000000000E-01
     10 F   6 C     2.134400000000E-01 -3.135100000000E-01 -1.132000000000E-01
     11 F   6 C     3.135100000000E-01  2.134400000000E-01  1.132000000000E-01
     12 F   6 C    -3.135100000000E-01 -2.134400000000E-01  1.132000000000E-01
     13 T   6 C     2.586900000000E-01 -5.479000000000E-02  3.783300000000E-01
     14 F   6 C    -2.586900000000E-01  5.479000000000E-02  3.783300000000E-01
     15 F   6 C    -5.479000000000E-02 -2.586900000000E-01 -3.783300000000E-01
     16 F   6 C     5.479000000000E-02  2.586900000000E-01 -3.783300000000E-01
     17 T   6 C    -3.009000000000E-01  2.179400000000E-01 -1.224200000000E-01
     18 F   6 C     3.009000000000E-01 -2.179400000000E-01 -1.224200000000E-01
     19 F   6 C     2.179400000000E-01  3.009000000000E-01  1.224200000000E-01
     20 F   6 C    -2.179400000000E-01 -3.009000000000E-01  1.224200000000E-01
     21 T   6 C    -1.326100000000E-01  7.069000000000E-02 -1.169900000000E-01
     22 F   6 C     1.326100000000E-01 -7.069000000000E-02 -1.169900000000E-01
     23 F   6 C     7.069000000000E-02  1.326100000000E-01  1.169900000000E-01
     24 F   6 C    -7.069000000000E-02 -1.326100000000E-01  1.169900000000E-01
     25 T   6 C    -8.852000000000E-02  2.784900000000E-01 -1.028200000000E-01
     26 F   6 C     8.852000000000E-02 -2.784900000000E-01 -1.028200000000E-01
     27 F   6 C     2.784900000000E-01  8.852000000000E-02  1.028200000000E-01
     28 F   6 C    -2.784900000000E-01 -8.852000000000E-02  1.028200000000E-01
     29 T   6 C     2.592200000000E-01 -9.524000000000E-02 -1.230300000000E-01
     30 F   6 C    -2.592200000000E-01  9.524000000000E-02 -1.230300000000E-01
     31 F   6 C    -9.524000000000E-02 -2.592200000000E-01  1.230300000000E-01
     32 F   6 C     9.524000000000E-02  2.592200000000E-01  1.230300000000E-01
     33 T   7 N     3.435400000000E-01  2.375000000000E-02  3.362400000000E-01
     34 F   7 N    -3.435400000000E-01 -2.375000000000E-02  3.362400000000E-01
     35 F   7 N     2.375000000000E-02 -3.435400000000E-01 -3.362400000000E-01
     36 F   7 N    -2.375000000000E-02  3.435400000000E-01 -3.362400000000E-01
     37 T   7 N    -2.045700000000E-01 -3.589900000000E-01 -1.574400000000E-01
     38 F   7 N     2.045700000000E-01  3.589900000000E-01 -1.574400000000E-01
     39 F   7 N    -3.589900000000E-01  2.045700000000E-01  1.574400000000E-01
     40 F   7 N     3.589900000000E-01 -2.045700000000E-01  1.574400000000E-01
     41 T   7 N     1.584100000000E-01  1.211000000000E-02  4.086700000000E-01
     42 F   7 N    -1.584100000000E-01 -1.211000000000E-02  4.086700000000E-01
     43 F   7 N     1.211000000000E-02 -1.584100000000E-01 -4.086700000000E-01
     44 F   7 N    -1.211000000000E-02  1.584100000000E-01 -4.086700000000E-01
     45 T   7 N    -3.147600000000E-01 -3.660100000000E-01 -1.143700000000E-01
     46 F   7 N     3.147600000000E-01  3.660100000000E-01 -1.143700000000E-01
     47 F   7 N    -3.660100000000E-01  3.147600000000E-01  1.143700000000E-01
     48 F   7 N     3.660100000000E-01 -3.147600000000E-01  1.143700000000E-01
     49 T   7 N    -4.852000000000E-02  1.614000000000E-01 -1.064000000000E-01
     50 F   7 N     4.852000000000E-02 -1.614000000000E-01 -1.064000000000E-01
     51 F   7 N     1.614000000000E-01  4.852000000000E-02  1.064000000000E-01
     52 F   7 N    -1.614000000000E-01 -4.852000000000E-02  1.064000000000E-01
     53 T  17 CL    4.420000000000E-02 -2.476100000000E-01  3.665400000000E-01
     54 F  17 CL   -4.420000000000E-02  2.476100000000E-01  3.665400000000E-01
     55 F  17 CL   -2.476100000000E-01 -4.420000000000E-02 -3.665400000000E-01
     56 F  17 CL    2.476100000000E-01  4.420000000000E-02 -3.665400000000E-01
     57 T  17 CL   -3.589700000000E-01 -2.846000000000E-02 -1.303800000000E-01
     58 F  17 CL    3.589700000000E-01  2.846000000000E-02 -1.303800000000E-01
     59 F  17 CL   -2.846000000000E-02  3.589700000000E-01  1.303800000000E-01
     60 F  17 CL    2.846000000000E-02 -3.589700000000E-01  1.303800000000E-01
     61 T  30 ZN   -5.000000000000E-01 -8.688256047084E-17  2.500000000000E-01
     62 T  30 ZN    0.000000000000E+00  0.000000000000E+00 -5.000000000000E-01

 T = ATOM BELONGING TO THE ASYMMETRIC UNIT

 ****    4 SYMMOPS - TRANSLATORS IN FRACTIONAL UNITS
 **** MATRICES AND TRANSLATORS IN THE CRYSTALLOGRAPHIC REFERENCE FRAME
   V INV                    ROTATION MATRICES                   TRANSLATORS
   1   1  1.00  0.00  0.00  0.00  1.00  0.00  0.00  0.00  1.00  0.00  0.00  0.00
   2   2  0.00  1.00 -1.00  1.00  0.00 -1.00  0.00  0.00 -1.00  0.00  0.00  0.00
   3   4 -0.00 -1.00  0.00 -0.00 -1.00  1.00  1.00 -1.00  0.00  0.00  0.00  0.00
   4   3 -1.00 -0.00  1.00 -1.00 -0.00  0.00 -1.00  1.00  0.00  0.00  0.00  0.00

 DIRECT LATTICE VECTORS CARTESIAN COMPONENTS (ANGSTROM)
          X                    Y                    Z
  -0.540964462905E+01   0.540964462905E+01   0.640581536125E+01
   0.540964462905E+01  -0.540964462905E+01   0.640581536125E+01
   0.540964462905E+01   0.540964462905E+01  -0.640581536125E+01


 CARTESIAN COORDINATES - PRIMITIVE CELL
 *******************************************************************************
 *      ATOM          X(ANGSTROM)         Y(ANGSTROM)         Z(ANGSTROM)
 *******************************************************************************
    1     1 H    -1.960455213568E-01  3.775823758184E+00 -1.150356322573E+00
    2     1 H     1.960455213568E-01 -3.775823758184E+00 -1.150356322573E+00
    3     1 H     3.775823758184E+00  1.960455213568E-01  1.150356322573E+00
    4     1 H    -3.775823758184E+00 -1.960455213568E-01  1.150356322573E+00
    5     1 H    -1.081928925810E+00 -2.739444040151E-01 -1.535730174706E+00
    6     1 H     1.081928925810E+00  2.739444040151E-01 -1.535730174706E+00
    7     1 H    -2.739444040151E-01  1.081928925810E+00  1.535730174706E+00
    8     1 H     2.739444040151E-01 -1.081928925810E+00  1.535730174706E+00
    9     6 C    -2.309269099249E+00  3.391955375307E+00 -1.450276597787E+00
   10     6 C     2.309269099249E+00 -3.391955375307E+00 -1.450276597787E+00
   11     6 C     3.391955375307E+00  2.309269099249E+00  1.450276597787E+00
   12     6 C    -3.391955375307E+00 -2.309269099249E+00  1.450276597787E+00
   13     6 C     2.798841938178E+00 -5.927888584513E-01  4.847024251243E+00
   14     6 C    -2.798841938178E+00  5.927888584513E-01  4.847024251243E+00
   15     6 C    -5.927888584513E-01 -2.798841938178E+00 -4.847024251243E+00
   16     6 C     5.927888584513E-01  2.798841938178E+00 -4.847024251243E+00
   17     6 C    -3.255524137762E+00  2.357955900910E+00 -1.568399833048E+00
   18     6 C     3.255524137762E+00 -2.357955900910E+00 -1.568399833048E+00
   19     6 C     2.357955900910E+00  3.255524137762E+00  1.568399833048E+00
   20     6 C    -2.357955900910E+00 -3.255524137762E+00  1.568399833048E+00
   21     6 C    -1.434745948517E+00  7.648155576551E-01 -1.498832678225E+00
   22     6 C     1.434745948517E+00 -7.648155576551E-01 -1.498832678225E+00
   23     6 C     7.648155576551E-01  1.434745948517E+00  1.498832678225E+00
   24     6 C    -7.648155576551E-01 -1.434745948517E+00  1.498832678225E+00
   25     6 C    -9.577234851270E-01  3.013063865488E+00 -1.317291870887E+00
   26     6 C     9.577234851270E-01 -3.013063865488E+00 -1.317291870887E+00
   27     6 C     3.013063865488E+00  9.577234851270E-01  1.317291870887E+00
   28     6 C    -3.013063865488E+00 -9.577234851270E-01  1.317291870887E+00
   29     6 C     2.804576161485E+00 -1.030429108941E+00 -1.576214927789E+00
   30     6 C    -2.804576161485E+00  1.030429108941E+00 -1.576214927789E+00
   31     6 C    -1.030429108941E+00 -2.804576161485E+00  1.576214927789E+00
   32     6 C     1.030429108941E+00  2.804576161485E+00  1.576214927789E+00
   33     7 N     3.716858631728E+00  2.569581198799E-01  4.307782714133E+00
   34     7 N    -3.716858631728E+00 -2.569581198799E-01  4.307782714133E+00
   35     7 N     2.569581198799E-01 -3.716858631728E+00 -4.307782714133E+00
   36     7 N    -2.569581198799E-01  3.716858631728E+00 -4.307782714133E+00
   37     7 N    -2.213302003530E+00 -3.884016650765E+00 -2.017063140950E+00
   38     7 N     2.213302003530E+00  3.884016650765E+00 -2.017063140950E+00
   39     7 N    -3.884016650765E+00  2.213302003530E+00  2.017063140950E+00
   40     7 N     3.884016650765E+00 -2.213302003530E+00  2.017063140950E+00
   41     7 N     1.713883611376E+00  1.310215929156E-01  5.235729127364E+00
   42     7 N    -1.713883611376E+00 -1.310215929156E-01  5.235729127364E+00
   43     7 N     1.310215929156E-01 -1.713883611376E+00 -5.235729127364E+00
   44     7 N    -1.310215929156E-01  1.713883611376E+00 -5.235729127364E+00
   45     7 N    -3.405479486880E+00 -3.959968061357E+00 -1.465266205732E+00
   46     7 N     3.405479486880E+00  3.959968061357E+00 -1.465266205732E+00
   47     7 N    -3.959968061357E+00  3.405479486880E+00  1.465266205732E+00
   48     7 N     3.959968061357E+00 -3.405479486880E+00  1.465266205732E+00
   49     7 N    -5.249519148030E-01  1.746233286257E+00 -1.363157508874E+00
   50     7 N     5.249519148030E-01 -1.746233286257E+00 -1.363157508874E+00
   51     7 N     1.746233286257E+00  5.249519148030E-01  1.363157508874E+00
   52     7 N    -1.746233286257E+00 -5.249519148030E-01  1.363157508874E+00
   53    17 CL    4.782125852080E-01 -2.678964213198E+00  4.695975125025E+00
   54    17 CL   -4.782125852080E-01  2.678964213198E+00  4.695975125025E+00
   55    17 CL   -2.678964213198E+00 -4.782125852080E-01 -4.695975125025E+00
   56    17 CL    2.678964213198E+00  4.782125852080E-01 -4.695975125025E+00
   57    17 CL   -3.883800264980E+00 -3.079169722855E-01 -1.670380413600E+00
   58    17 CL    3.883800264980E+00  3.079169722855E-01 -1.670380413600E+00
   59    17 CL   -3.079169722855E-01  3.883800264980E+00  1.670380413600E+00
   60    17 CL    3.079169722855E-01 -3.883800264980E+00  1.670380413600E+00
   61    30 ZN    5.409644629050E+00 -9.400075532184E-16 -9.608723041875E+00
   62    30 ZN    0.000000000000E+00  0.000000000000E+00  6.405815361250E+00

 *******************************************************************************
 STARTING BASIS SET HANDLING 
 *******************************************************************************

 Loading internal basis set: POB-DZVPP           

 Please cite in your publication:
 Peintinger, M. F., Oliveira, D. V. and Bredow, T. (2013), Generally applicable 
 solid-state Gaussian basis sets, in preparation                                
                                                                                
                    

 *******************************************************************************
 LOCAL ATOMIC FUNCTIONS BASIS SET
 *******************************************************************************
   ATOM   X(AU)   Y(AU)   Z(AU)  N. TYPE  EXPONENT  S COEF   P COEF   D/F/G COEF
 *******************************************************************************
   1 H   -0.370   7.135  -2.174
                                  1 S  
                                         2.263E+01 1.441E-02 0.000E+00 0.000E+00
                                         3.236E+00 1.072E-01 0.000E+00 0.000E+00
                                         7.304E-01 3.846E-01 0.000E+00 0.000E+00
                                  2 S  
                                         1.417E-01 1.000E+00 0.000E+00 0.000E+00
                           3-     5 P  
                                         3.944E-01 0.000E+00 1.000E+00 0.000E+00
                           6-     8 P  
                                         1.006E-01 0.000E+00 1.000E+00 0.000E+00
   2 H    0.370  -7.135  -2.174
   3 H    7.135   0.370   2.174
   4 H   -7.135  -0.370   2.174
   5 H   -2.045  -0.518  -2.902
   6 H    2.045   0.518  -2.902
   7 H   -0.518   2.045   2.902
   8 H    0.518  -2.045   2.902
   9 C   -4.364   6.410  -2.741
                                 65 S  
                                         1.238E+03 5.457E-03 0.000E+00 0.000E+00
                                         1.863E+02 4.064E-02 0.000E+00 0.000E+00
                                         4.225E+01 1.803E-01 0.000E+00 0.000E+00
                                         1.168E+01 4.632E-01 0.000E+00 0.000E+00
                                         3.593E+00 4.409E-01 0.000E+00 0.000E+00
                                 66 S  
                                         5.281E+00 1.000E+00 0.000E+00 0.000E+00
                                 67 S  
                                         4.447E-01 1.000E+00 0.000E+00 0.000E+00
                          68-    70 P  
                                         9.468E+00 0.000E+00 3.839E-02 0.000E+00
                                         2.010E+00 0.000E+00 2.112E-01 0.000E+00
                                         5.477E-01 0.000E+00 5.133E-01 0.000E+00
                          71-    73 P  
                                         1.604E-01 0.000E+00 1.000E+00 0.000E+00
                          74-    78 D  
                                         6.070E-01 0.000E+00 0.000E+00 1.000E+00
                          79-    83 D  
                                         2.939E-01 0.000E+00 0.000E+00 1.000E+00
  10 C    4.364  -6.410  -2.741
  11 C    6.410   4.364   2.741
  12 C   -6.410  -4.364   2.741
  13 C    5.289  -1.120   9.160
  14 C   -5.289   1.120   9.160
  15 C   -1.120  -5.289  -9.160
  16 C    1.120   5.289  -9.160
  17 C   -6.152   4.456  -2.964
  18 C    6.152  -4.456  -2.964
  19 C    4.456   6.152   2.964
  20 C   -4.456  -6.152   2.964
  21 C   -2.711   1.445  -2.832
  22 C    2.711  -1.445  -2.832
  23 C    1.445   2.711   2.832
  24 C   -1.445  -2.711   2.832
  25 C   -1.810   5.694  -2.489
  26 C    1.810  -5.694  -2.489
  27 C    5.694   1.810   2.489
  28 C   -5.694  -1.810   2.489
  29 C    5.300  -1.947  -2.979
  30 C   -5.300   1.947  -2.979
  31 C   -1.947  -5.300   2.979
  32 C    1.947   5.300   2.979
  33 N    7.024   0.486   8.141
                                521 S  
                                         1.713E+03-5.393E-03 0.000E+00 0.000E+00
                                         2.576E+02-4.022E-02 0.000E+00 0.000E+00
                                         5.846E+01-1.793E-01 0.000E+00 0.000E+00
                                         1.620E+01-4.638E-01 0.000E+00 0.000E+00
                                         5.005E+00-4.417E-01 0.000E+00 0.000E+00
                                522 S  
                                         6.217E-01 1.000E+00 0.000E+00 0.000E+00
                                523 S  
                                         2.921E-01 1.000E+00 0.000E+00 0.000E+00
                         524-   526 P  
                                         1.357E+01 0.000E+00-4.007E-02 0.000E+00
                                         2.926E+00 0.000E+00-2.181E-01 0.000E+00
                                         7.993E-01 0.000E+00-5.129E-01 0.000E+00
                         527-   529 P  
                                         2.244E-01 0.000E+00 1.000E+00 0.000E+00
                         530-   534 D  
                                         3.118E-01 0.000E+00 0.000E+00 1.000E+00
  34 N   -7.024  -0.486   8.141
  35 N    0.486  -7.024  -8.141
  36 N   -0.486   7.024  -8.141
  37 N   -4.183  -7.340  -3.812
  38 N    4.183   7.340  -3.812
  39 N   -7.340   4.183   3.812
  40 N    7.340  -4.183   3.812
  41 N    3.239   0.248   9.894
  42 N   -3.239  -0.248   9.894
  43 N    0.248  -3.239  -9.894
  44 N   -0.248   3.239  -9.894
  45 N   -6.435  -7.483  -2.769
  46 N    6.435   7.483  -2.769
  47 N   -7.483   6.435   2.769
  48 N    7.483  -6.435   2.769
  49 N   -0.992   3.300  -2.576
  50 N    0.992  -3.300  -2.576
  51 N    3.300   0.992   2.576
  52 N   -3.300  -0.992   2.576
  53 CL   0.904  -5.063   8.874
                                801 S  
                                         1.045E+04 1.971E-03 0.000E+00 0.000E+00
                                         1.572E+03 1.475E-02 0.000E+00 0.000E+00
                                         3.571E+02 6.668E-02 0.000E+00 0.000E+00
                                         1.003E+02 1.723E-01 0.000E+00 0.000E+00
                                         3.081E+01 1.588E-01 0.000E+00 0.000E+00
                                802 S  
                                         5.192E+01-1.001E-01 0.000E+00 0.000E+00
                                         5.705E+00 6.084E-01 0.000E+00 0.000E+00
                                         2.351E+00 5.435E-01 0.000E+00 0.000E+00
                                803 S  
                                         4.886E-01 1.000E+00 0.000E+00 0.000E+00
                                804 S  
                                         1.984E-01 1.000E+00 0.000E+00 0.000E+00
                         805-   807 P  
                                         3.077E+02 0.000E+00-8.780E-03 0.000E+00
                                         7.210E+01 0.000E+00-6.356E-02 0.000E+00
                                         2.253E+01 0.000E+00-2.402E-01 0.000E+00
                                         7.899E+00 0.000E+00-4.780E-01 0.000E+00
                                         2.877E+00 0.000E+00-3.852E-01 0.000E+00
                         808-   810 P  
                                         9.483E-01 0.000E+00 1.000E+00 0.000E+00
                         811-   813 P  
                                         2.521E-01 0.000E+00 1.000E+00 0.000E+00
                         814-   818 D  
                                         9.722E-01 0.000E+00 0.000E+00 1.000E+00
                         819-   823 D  
                                         2.060E-01 0.000E+00 0.000E+00 1.000E+00
  54 CL  -0.904   5.063   8.874
  55 CL  -5.063  -0.904  -8.874
  56 CL   5.063   0.904  -8.874
  57 CL  -7.339  -0.582  -3.157
  58 CL   7.339   0.582  -3.157
  59 CL  -0.582   7.339   3.157
  60 CL   0.582  -7.339   3.157
  61 ZN  10.223  -0.000 -18.158
                                985 S  
                                         8.200E+04 1.421E-03 0.000E+00 0.000E+00
                                         1.231E+04 1.089E-02 0.000E+00 0.000E+00
                                         2.801E+03 5.406E-02 0.000E+00 0.000E+00
                                         7.910E+02 1.885E-01 0.000E+00 0.000E+00
                                         2.576E+02 3.835E-01 0.000E+00 0.000E+00
                                         8.881E+01 2.972E-01 0.000E+00 0.000E+00
                                986 S  
                                         1.719E+02-1.105E-01 0.000E+00 0.000E+00
                                         2.030E+01 6.461E-01 0.000E+00 0.000E+00
                                         8.346E+00 4.422E-01 0.000E+00 0.000E+00
                                987 S  
                                         1.485E+01-2.271E-01 0.000E+00 0.000E+00
                                         2.450E+00 7.243E-01 0.000E+00 0.000E+00
                                         9.985E-01 4.484E-01 0.000E+00 0.000E+00
                                988 S  
                                         1.493E+00 1.000E+00 0.000E+00 0.000E+00
                                989 S  
                                         1.830E-01 1.000E+00 0.000E+00 0.000E+00
                         990-   992 P  
                                         1.072E+03 0.000E+00 9.277E-03 0.000E+00
                                         2.527E+02 0.000E+00 6.954E-02 0.000E+00
                                         8.010E+01 0.000E+00 2.716E-01 0.000E+00
                                         2.890E+01 0.000E+00 5.340E-01 0.000E+00
                                         1.077E+01 0.000E+00 3.450E-01 0.000E+00
                         993-   995 P  
                                         5.645E+00 0.000E+00 3.413E-01 0.000E+00
                                         2.168E+00 0.000E+00 5.639E-01 0.000E+00
                                         8.054E-01 0.000E+00 2.368E-01 0.000E+00
                         996-   998 P  
                                         2.721E-01 0.000E+00 1.000E+00 0.000E+00
                         999-  1003 D  
                                         5.609E+01 0.000E+00 0.000E+00 2.959E-02
                                         1.575E+01 0.000E+00 0.000E+00 1.587E-01
                                         5.312E+00 0.000E+00 0.000E+00 3.798E-01
                                         1.774E+00 0.000E+00 0.000E+00 4.690E-01
                        1004-  1008 D  
                                         5.073E-01 0.000E+00 0.000E+00 1.000E+00
                        1009-  1015 F  
                                         2.814E+00 0.000E+00 0.000E+00 1.000E+00
                        1016-  1022 F  
                                         1.300E+00 0.000E+00 0.000E+00 1.000E+00
  62 ZN   0.000   0.000  12.105

 *******************************************************************************
 FINISHED BASIS SET HANDLING 
 *******************************************************************************

 INFORMATION **** SET_MPP **** PCRYSTAL CALCULATION
 INFORMATION **** READM2 **** NEW DEFAULT: FOCK/KS MATRIX MIXING SET TO 30 %
 INFORMATION **** READM2 **** NEW DEFAULT: FULL DIRECT SCF MODE
 INFORMATION **** READM2 **** NEW DEFAULT: COULOMB BIPOLAR BUFFER SET TO 32 Mb
 INFORMATION **** READM2 **** NEW DEFAULT: EXCHANGE BIPOLAR BUFFER SET TO 32 Mb

 *******************************************************************************
 NEW DEFAULT: DFT INTEGRATION GRID INCREASED TO XLGRID
 NEW DEFAULT: DIIS ACCELERATOR ACTIVE
 USE KEYWORD NODIIS TO TURN IT OFF
 *******************************************************************************

 INFORMATION **** DFTD3_INPUT **** PERFORM DISPERSION CORRECTION DFT-D3(BJ) IN THE BECKE-JOHNSON DAMPING SCHEME

 PLEASE CITE:
 (1) DFT-D3 Reference
  S. Grimme, J. Antony, S. Ehrlich, and H. Krieg, J. Chem. Phys. 132 (2010), 154104
 (2) BJ-Damping Reference
  S. Grimme, S. Ehrlich, and L. Goerigk, J. Comput. Chem. 32 (2011), 1456-1465
 (3) General DFT-D Review
  S. Grimme, A. Hansen, J. G. Brandenburg, and C. Bannwarth,
  Chem. Rev. 116 (2016), 5105-5154

 INFORMATION **** TOLINTEG **** COULOMB AND EXCHANGE SERIES TOLERANCES MODIFIED
 INFORMATION **** BIPOSIZE **** COULOMB BIPOLAR BUFFER SET TO   100000000
 INFORMATION **** MAXCYCLE **** MAX NUMBER OF SCF CYCLES SET TO          50
 *******************************************************************************
 N. OF ATOMS PER CELL        62  COULOMB OVERLAP TOL         (T1) 10**  -12
 NUMBER OF SHELLS           416  COULOMB PENETRATION TOL     (T2) 10**  -12
 NUMBER OF AO              1060  EXCHANGE OVERLAP TOL        (T3) 10**   20
 N. OF ELECTRONS PER CELL   488  EXCHANGE PSEUDO OVP (F(G))  (T4) 10**   20
 CORE ELECTRONS PER CELL    204  EXCHANGE PSEUDO OVP (P(G))  (T5) 10**   20
 N. OF SYMMETRY OPERATORS     4  POLE ORDER IN MONO ZONE                  4
 *******************************************************************************
 TYPE OF CALCULATION :  RESTRICTED CLOSED SHELL
 KOHN-SHAM HAMILTONIAN

 (EXCHANGE)[CORRELATION] FUNCTIONAL:(PERDEW-BURKE-ERNZERHOF)[PERDEW-BURKE-ERNZERHOF]


 CAPPA:IS1  3;IS2  3;IS3  3; K PTS MONK NET   6; SYMMOPS:K SPACE   8;G SPACE   4

 *******************************************************************************
 MAX NUMBER OF SCF CYCLES      50  CONVERGENCE ON DELTAP        10**-16
 WEIGHT OF F(I) IN F(I+1)      30% CONVERGENCE ON ENERGY        10**- 6
 SHRINK. FACT.(MONKH.)    3  3  3  NUMBER OF K POINTS IN THE IBZ      6
 SHRINKING FACTOR(GILAT NET)    3  NUMBER OF K POINTS(GILAT NET)      6
 *******************************************************************************
 *** K POINTS COORDINATES (OBLIQUE COORDINATES IN UNITS OF IS =  3)
   1-R(  0  0  0)   2-C(  1  0  0)   3-C(  1  1  0)   4-C(  2  1  0)
   5-C(  2  1  1)   6-C(  2  2  1)

 DIRECT LATTICE VECTORS COMPON. (A.U.)     RECIP. LATTICE VECTORS COMPON. (A.U.) 
        X            Y            Z              X            Y            Z
  -10.2227468   10.2227468   12.1052367      0.0000000    0.3073139    0.2595234
   10.2227468  -10.2227468   12.1052367      0.3073139    0.0000000    0.2595234
   10.2227468   10.2227468  -12.1052367      0.3073139    0.3073139    0.0000000

 DISK SPACE FOR EIGENVECTORS (FTN 10)    12359600 REALS

 SYMMETRY ADAPTION OF THE BLOCH FUNCTIONS ENABLED
 TTTTTTTTTTTTTTTTTTTTTTTTTTTTTT gordsh1     TELAPSE       23.30 TCPU        0.05

 MATRIX SIZE: P(G) 1872748, F(G)  937080, P(G) IRR  236749, F(G) IRR  236749
 MAX G-VECTOR INDEX FOR 1- AND 2-ELECTRON INTEGRALS  59

 TTTTTTTTTTTTTTTTTTTTTTTTTTTTTT INPUT       TELAPSE       23.85 TCPU        0.59

 NEIGHBORS OF THE NON-EQUIVALENT ATOMS

 N = NUMBER OF NEIGHBORS AT DISTANCE R
    ATOM  N     R/ANG      R/AU   NEIGHBORS (ATOM LABELS AND CELL INDICES)
   1 H    1     1.0908     2.0613   25 C    0 0 0
   1 H    1     2.0671     3.9062   49 N    0 0 0
   1 H    1     2.1686     4.0981    9 C    0 0 0
   1 H    1     2.5222     4.7663   34 N    0 0 1
   1 H    1     2.5628     4.8430   38 N    0 0 0
   1 H    1     2.5910     4.8963   33 N    0-1 0

   5 H    1     1.0977     2.0743   21 C    0 0 0
   5 H    1     2.1026     3.9734   49 N    0 0 0
   5 H    1     2.1611     4.0840   30 C    0 0 0
   5 H    1     2.1862     4.1313   50 N    0 0 0
   5 H    1     2.2321     4.2181    6 H    0 0 0
   5 H    1     2.5644     4.8459   22 C    0 0 0

   9 C    1     1.4066     2.6581   17 C    0 0 0
   9 C    1     1.4099     2.6644   25 C    0 0 0
   9 C    1     1.4605     2.7599   13 C    0-1 0
   9 C    1     2.1686     4.0981    1 H    0 0 0
   9 C    1     2.4162     4.5659   30 C    0 0 0
   9 C    1     2.4289     4.5900   49 N    0 0 0

  13 C    1     1.3609     2.5718   41 N    0 0 0
  13 C    1     1.3622     2.5742   33 N    0 0 0
  13 C    1     1.4605     2.7599    9 C    0 1 0
  13 C    1     2.1936     4.1453   45 N    1 1 1
  13 C    1     2.2036     4.1641   37 N    1 1 1
  13 C    1     2.4586     4.6461   25 C    0 1 0

  17 C    1     1.4020     2.6495   30 C    0 0 0
  17 C    1     1.4066     2.6581    9 C    0 0 0
  17 C    1     1.7227     3.2554   53 CL   0-1 0
  17 C    1     2.4025     4.5401   25 C    0 0 0
  17 C    1     2.4204     4.5738   21 C    0 0 0
  17 C    1     2.5420     4.8038   13 C    0-1 0

  21 C    1     1.0977     2.0743    5 H    0 0 0
  21 C    1     1.3451     2.5419   49 N    0 0 0
  21 C    1     1.3975     2.6409   30 C    0 0 0
  21 C    1     2.3055     4.3567   25 C    0 0 0
  21 C    1     2.4204     4.5738   17 C    0 0 0
  21 C    1     2.5644     4.8459    6 H    0 0 0

  25 C    1     1.0908     2.0613    1 H    0 0 0
  25 C    1     1.3395     2.5313   49 N    0 0 0
  25 C    1     1.4099     2.6644    9 C    0 0 0
  25 C    1     2.3055     4.3567   21 C    0 0 0
  25 C    1     2.4025     4.5401   17 C    0 0 0
  25 C    1     2.4586     4.6461   13 C    0-1 0

  29 C    1     1.3975     2.6409   22 C    0 0 0
  29 C    1     1.4020     2.6495   18 C    0 0 0
  29 C    1     1.7218     3.2538   58 CL   0 0 0
  29 C    1     2.1611     4.0840    6 H    0 0 0
  29 C    1     2.3988     4.5332   50 N    0 0 0
  29 C    1     2.4162     4.5659   10 C    0 0 0

  33 N    1     1.3622     2.5742   13 C    0 0 0
  33 N    1     1.3737     2.5959   37 N    1 1 1
  33 N    1     2.0377     3.8507   61 ZN   1 1 0
  33 N    1     2.1809     4.1213   45 N    1 1 1
  33 N    1     2.2111     4.1783   41 N    0 0 0
  33 N    1     2.4441     4.6187    9 C    0 1 0

  37 N    1     1.3159     2.4866   45 N    0 0 0
  37 N    1     1.3737     2.5959   33 N   -1-1-1
  37 N    1     2.2036     4.1641   13 C   -1-1-1
  37 N    1     2.2045     4.1660   41 N   -1-1-1
  37 N    1     2.5628     4.8430    2 H    0 0 0
  37 N    1     2.9381     5.5522   61 ZN   0 0-1

  41 N    1     1.3609     2.5718   13 C    0 0 0
  41 N    1     1.3821     2.6118   45 N    1 1 1
  41 N    1     2.0793     3.9294   62 ZN   0 0 0
  41 N    1     2.2045     4.1660   37 N    1 1 1
  41 N    1     2.2111     4.1783   33 N    0 0 0
  41 N    1     2.5725     4.8613    9 C    0 1 0

  45 N    1     1.3159     2.4866   37 N    0 0 0
  45 N    1     1.3821     2.6118   41 N   -1-1-1
  45 N    1     2.1809     4.1213   33 N   -1-1-1
  45 N    1     2.1936     4.1453   13 C   -1-1-1
  45 N    1     2.7809     5.2551   54 CL  -1-1-1
  45 N    1     2.8749     5.4328   62 ZN  -1-1-1

  49 N    1     1.3395     2.5313   25 C    0 0 0
  49 N    1     1.3451     2.5419   21 C    0 0 0
  49 N    1     2.0671     3.9062    1 H    0 0 0
  49 N    1     2.1026     3.9734    5 H    0 0 0
  49 N    1     2.1862     4.1313    6 H    0 0 0
  49 N    1     2.3988     4.5332   30 C    0 0 0

  53 CL   1     1.7227     3.2554   17 C    0 1 0
  53 CL   1     2.7167     5.1338    9 C    0 1 0
  53 CL   1     2.7262     5.1518   30 C    0 1 0
  53 CL   1     2.7809     5.2551   46 N    0 0-1
  53 CL   1     3.0571     5.7771   43 N    1 1 0
  53 CL   1     3.1168     5.8898   41 N    0 0 0

  57 CL   1     1.7218     3.2538   30 C    0 0 0
  57 CL   1     2.6792     5.0629   21 C    0 0 0
  57 CL   1     2.7408     5.1794   17 C    0 0 0
  57 CL   1     2.8053     5.3013    5 H    0 0 0
  57 CL   1     2.8250     5.3385    4 H    0 0 0
  57 CL   1     3.1132     5.8831   58 CL   0-1-1

  61 ZN   4     2.0377     3.8507   33 N   -1-1 0   34 N   -1 0 1   35 N    0 0 1
                                    36 N   -1 0 0
  61 ZN   4     2.6307     4.9714    1 H   -1 0 0    2 H    0 0 1    3 H   -1-1 0
                                     4 H   -1 0 1
  61 ZN   4     2.9381     5.5522   37 N    0 0 1   38 N   -1 0 0   39 N   -1 0 1
                                    40 N   -1-1 0
  61 ZN   4     3.1418     5.9371   13 C   -1-1 0   14 C   -1 0 1   15 C    0 0 1
                                    16 C   -1 0 0
  61 ZN   4     3.1963     6.0401   25 C   -1 0 0   26 C    0 0 1   27 C   -1-1 0
                                    28 C   -1 0 1
  61 ZN   4     3.5321     6.6746    9 C   -1 0 0   10 C    0 0 1   11 C   -1-1 0
                                    12 C   -1 0 1

  62 ZN   4     2.0793     3.9294   41 N    0 0 0   42 N    0 0 0   43 N    1 1 0
                                    44 N    1 1 0
  62 ZN   4     2.8749     5.4328   45 N    1 1 1   46 N    0 0-1   47 N    0 1 0
                                    48 N    1 0 0
  62 ZN   4     3.2139     6.0734   53 CL   0 0 0   54 CL   0 0 0   55 CL   1 1 0
                                    56 CL   1 1 0
  62 ZN   4     3.2580     6.1568   13 C    0 0 0   14 C    0 0 0   15 C    1 1 0
                                    16 C    1 1 0
  62 ZN   4     3.9732     7.5084    9 C    0 1 0   10 C    1 0 0   11 C    0 0-1
                                    12 C    1 1 1
  62 ZN   4     4.0513     7.6558   17 C    0 1 0   18 C    1 0 0   19 C    0 0-1
                                    20 C    1 1 1


 SYMMETRY ALLOWED INTERNAL DEGREE(S) OF FREEDOM:  45
 TTTTTTTTTTTTTTTTTTTTTTTTTTTTTT SYMM        TELAPSE       24.15 TCPU        0.89
 TTTTTTTTTTTTTTTTTTTTTTTTTTTTTT INT_SCREEN  TELAPSE       24.16 TCPU        0.90
 INFORMATION **** EXCBUF **** EXCH. BIPO BUFFER: WORDS USED =           0

 DFT PARAMETERS

     ATOM       ELECTRONS   NET CHARGE   R(ANGSTROM)
   1   1  H       1.0000      0.0000     1.11000000
   9   6  C       6.0000      0.0000     0.77000000
  33   7  N       7.0000      0.0000     0.74000000
  53  17  CL     17.0000      0.0000     0.99000000
  61  30  ZN     30.0000      0.0000     1.37000000

 SIZE OF GRID=     465665
 TTTTTTTTTTTTTTTTTTTTTTTTTTTTTT MAKE_GRID2  TELAPSE       25.07 TCPU        1.80
 BECKE WEIGHT FUNCTION
 RADSAFE =     2.00
 TOLERANCES - DENSITY:10**- 6; POTENTIAL:10**- 9; GRID WGT:10**-14

 RADIAL INTEGRATION  - INTERVALS (POINTS,UPPER LIMIT):            1( 75,  4.0*R)

 ANGULAR INTEGRATION - INTERVALS (ACCURACY LEVEL [N. POINTS] UPPER LIMIT):
  1(  4[  86]   0.2)  2(  8[ 194]   0.5)  3( 12[ 350]   0.9)  4( 16[ 974]   3.5)
  5( 12[ 350]9999.0)
 TTTTTTTTTTTTTTTTTTTTTTTTTTTTTT INT_CALC    TELAPSE       25.12 TCPU        1.86
 EEEEEEEEEE INT_CALC TERMINATION  DATE 04 12 2023 TIME 17:38:55.5

 *******************************************************************************
 Z:\home\sanoj\Downloads\tmp_p\newconn.mol                                       
 CRYSTAL - SCF - TYPE OF CALCULATION :  RESTRICTED CLOSED SHELL
 *******************************************************************************

 CAPPA:IS1  3;IS2  3;IS3  3; K PTS MONK NET   6; SYMMOPS:K SPACE   8;G SPACE   4

 TTTTTTTTTTTTTTTTTTTTTTTTTTTTTT SDIK        TELAPSE       25.35 TCPU        2.08

 AAAAAAAAAAAAAAAAAAAAAAAAAAAAAAAAAAAAAAAAAAAAAAAAAAAAAAAAAAAAAAAAAAAAAAAAAAAAAAA
         ATOMIC WAVEFUNCTION(S)


 NUCLEAR CHARGE  1.0  SYMMETRY SPECIES            S
 N. ELECTRONS    1.0  NUMBER OF PRIMITIVE GTOS    4
                      NUMBER OF CONTRACTED GTOS   2
                      NUMBER OF CLOSED SHELLS     0
                      OPEN SHELL OCCUPATION       1

  ZNUC SCFIT  TOTAL HF ENERGY   KINETIC ENERGY   VIRIAL THEOREM ACCURACY
   1.0   1   -4.946643675E-01  4.917913167E-01 -2.005842012E+00  9.4E-17

 NUCLEAR CHARGE  6.0  SYMMETRY SPECIES            S    P
 N. ELECTRONS    6.0  NUMBER OF PRIMITIVE GTOS    7    4
                      NUMBER OF CONTRACTED GTOS   3    2
                      NUMBER OF CLOSED SHELLS     2    0
                      OPEN SHELL OCCUPATION       0    2

  ZNUC SCFIT  TOTAL HF ENERGY   KINETIC ENERGY   VIRIAL THEOREM ACCURACY
   6.0   6   -3.750912652E+01  3.905246519E+01 -1.960480378E+00  3.7E-06

 NUCLEAR CHARGE  7.0  SYMMETRY SPECIES            S    P
 N. ELECTRONS    7.0  NUMBER OF PRIMITIVE GTOS    7    4
                      NUMBER OF CONTRACTED GTOS   3    2
                      NUMBER OF CLOSED SHELLS     2    0
                      OPEN SHELL OCCUPATION       0    3

  ZNUC SCFIT  TOTAL HF ENERGY   KINETIC ENERGY   VIRIAL THEOREM ACCURACY
   7.0   9   -5.432196661E+01  5.425066284E+01 -2.001314339E+00  1.2E-06

 NUCLEAR CHARGE 17.0  SYMMETRY SPECIES            S    P
 N. ELECTRONS   17.0  NUMBER OF PRIMITIVE GTOS   10    7
                      NUMBER OF CONTRACTED GTOS   4    3
                      NUMBER OF CLOSED SHELLS     3    1
                      OPEN SHELL OCCUPATION       0    5

  ZNUC SCFIT  TOTAL HF ENERGY   KINETIC ENERGY   VIRIAL THEOREM ACCURACY
  17.0   9   -4.593005957E+02  4.593991532E+02 -1.999785464E+00  2.3E-06

 NUCLEAR CHARGE 30.0  SYMMETRY SPECIES            S    P    D
 N. ELECTRONS   30.0  NUMBER OF PRIMITIVE GTOS   14    9    5
                      NUMBER OF CONTRACTED GTOS   5    3    2
                      NUMBER OF CLOSED SHELLS     4    2    1
                      OPEN SHELL OCCUPATION       0    0    0

  ZNUC SCFIT  TOTAL HF ENERGY   KINETIC ENERGY   VIRIAL THEOREM ACCURACY
  30.0  10   -1.777404290E+03  1.777325716E+03 -2.000044209E+00  2.5E-06

 AAAAAAAAAAAAAAAAAAAAAAAAAAAAAAAAAAAAAAAAAAAAAAAAAAAAAAAAAAAAAAAAAAAAAAAAAAAAAAA

 TOTAL ATOMIC CHARGES:
   1.0000000   1.0000000   1.0000000   1.0000000   1.0000000   1.0000000
   1.0000000   1.0000000   6.0000000   6.0000000   6.0000000   6.0000000
   6.0000000   6.0000000   6.0000000   6.0000000   6.0000000   6.0000000
   6.0000000   6.0000000   6.0000000   6.0000000   6.0000000   6.0000000
   6.0000000   6.0000000   6.0000000   6.0000000   6.0000000   6.0000000
   6.0000000   6.0000000   7.0000000   7.0000000   7.0000000   7.0000000
   7.0000000   7.0000000   7.0000000   7.0000000   7.0000000   7.0000000
   7.0000000   7.0000000   7.0000000   7.0000000   7.0000000   7.0000000
   7.0000000   7.0000000   7.0000000   7.0000000  17.0000000  17.0000000
  17.0000000  17.0000000  17.0000000  17.0000000  17.0000000  17.0000000
  30.0000000  30.0000000
 TTTTTTTTTTTTTTTTTTTTTTTTTTTTTT MOQGAD      TELAPSE       27.89 TCPU        4.59
 TTTTTTTTTTTTTTTTTTTTTTTTTTTTTT SHELLXN     TELAPSE      105.01 TCPU       73.47
 TTTTTTTTTTTTTTTTTTTTTTTTTTTTTT MONMO3      TELAPSE      110.24 TCPU       78.70
 NUMERICALLY INTEGRATED DENSITY    487.9999996221
 TTTTTTTTTTTTTTTTTTTTTTTTTTTTTT NUMDFT      TELAPSE      112.75 TCPU       81.20
 CYC   0 ETOT(AU) -9.251442324457E+03 DETOT -9.25E+03 tst  0.00E+00 PX  1.00E+00
 TTTTTTTTTTTTTTTTTTTTTTTTTTTTTT DIIS        TELAPSE      112.84 TCPU       81.28
 TTTTTTTTTTTTTTTTTTTTTTTTTTTTTT FDIK        TELAPSE      165.29 TCPU      120.23
 INSULATING STATE
 TOP OF VALENCE BANDS -    BAND    244; K    4; EIG -1.3422557E-01 AU
 TOP OF VALENCE BANDS -    BAND    244; K    1; EIG -1.3461403E-01 AU
 BOTTOM OF VIRTUAL BANDS - BAND    245; K    5; EIG -9.4482512E-02 AU
 INDIRECT ENERGY BAND GAP:   1.0815 eV
 BOTTOM OF VIRTUAL BANDS - BAND    245; K    1; EIG -9.3229406E-02 AU
 TTTTTTTTTTTTTTTTTTTTTTTTTTTTTT PDIG        TELAPSE      166.00 TCPU      120.94
 TOTAL ATOMIC CHARGES:
   1.3690933   1.3690933   1.3690933   1.3690933   1.2610244   1.2610244
   1.2610244   1.2610244   6.1581455   6.1581455   6.1581455   6.1581455
   5.4758007   5.4758007   5.4758007   5.4758007   5.3945697   5.3945697
   5.3945697   5.3945697   5.8859787   5.8859787   5.8859787   5.8859787
   5.8874911   5.8874911   5.8874911   5.8874911   5.3393837   5.3393837
   5.3393837   5.3393837   7.4014810   7.4014810   7.4014810   7.4014810
   7.1979122   7.1979122   7.1979122   7.1979122   7.4249650   7.4249650
   7.4249650   7.4249650   7.1539592   7.1539592   7.1539592   7.1539592
   7.4962434   7.4962434   7.4962434   7.4962434  17.3175454  17.3175454
  17.3175454  17.3175454  17.3264426  17.3264426  17.3264426  17.3264426
  27.6829545  27.9569016
 TTTTTTTTTTTTTTTTTTTTTTTTTTTTTT MOQGAD      TELAPSE      166.05 TCPU      120.99
 TTTTTTTTTTTTTTTTTTTTTTTTTTTTTT SHELLXN     TELAPSE      255.26 TCPU      201.40
 TTTTTTTTTTTTTTTTTTTTTTTTTTTTTT MONMO3      TELAPSE      264.33 TCPU      210.45
 NUMERICALLY INTEGRATED DENSITY    488.0000197975
 TTTTTTTTTTTTTTTTTTTTTTTTTTTTTT NUMDFT      TELAPSE      271.19 TCPU      217.28
 CYC   1 ETOT(AU) -9.245928204092E+03 DETOT  5.51E+00 tst  0.00E+00 PX  1.00E+00
 TTTTTTTTTTTTTTTTTTTTTTTTTTTTTT DIIS        TELAPSE      271.45 TCPU      217.54
 DIIS TEST: 0.11945E+02 AT SCF   CYCLE   1 - MIX   30 %
 TTTTTTTTTTTTTTTTTTTTTTTTTTTTTT FDIK        TELAPSE      286.39 TCPU      230.63
 INSULATING STATE
 TOP OF VALENCE BANDS -    BAND    244; K    3; EIG -1.3014399E-01 AU
 TOP OF VALENCE BANDS -    BAND    244; K    1; EIG -1.3198102E-01 AU
 BOTTOM OF VIRTUAL BANDS - BAND    245; K    5; EIG -1.2552634E-01 AU
 INDIRECT ENERGY BAND GAP:   0.1257 eV
 BOTTOM OF VIRTUAL BANDS - BAND    245; K    1; EIG -1.1728866E-01 AU
 TTTTTTTTTTTTTTTTTTTTTTTTTTTTTT PDIG        TELAPSE      287.10 TCPU      231.34
 TOTAL ATOMIC CHARGES:
   1.3705942   1.3705942   1.3705942   1.3705942   1.2278777   1.2278777
   1.2278777   1.2278777   6.2297485   6.2297485   6.2297485   6.2297485
   6.2679321   6.2679321   6.2679321   6.2679321   6.1794875   6.1794875
   6.1794875   6.1794875   5.9312487   5.9312487   5.9312487   5.9312487
   6.2645710   6.2645710   6.2645710   6.2645710   5.7891011   5.7891011
   5.7891011   5.7891011   7.0234148   7.0234148   7.0234148   7.0234148
   6.8622116   6.8622116   6.8622116   6.8622116   6.9362836   6.9362836
   6.9362836   6.9362836   6.8630978   6.8630978   6.8630978   6.8630978
   5.8864884   5.8864884   5.8864884   5.8864884  17.1784047  17.1784047
  17.1784047  17.1784047  17.1363234  17.1363234  17.1363234  17.1363234
  29.8918862  29.5209732
 TTTTTTTTTTTTTTTTTTTTTTTTTTTTTT MOQGAD      TELAPSE      287.15 TCPU      231.39
 TTTTTTTTTTTTTTTTTTTTTTTTTTTTTT SHELLXN     TELAPSE      369.29 TCPU      310.97
 TTTTTTTTTTTTTTTTTTTTTTTTTTTTTT MONMO3      TELAPSE      380.55 TCPU      322.21
 NUMERICALLY INTEGRATED DENSITY    488.0000162848
 TTTTTTTTTTTTTTTTTTTTTTTTTTTTTT NUMDFT      TELAPSE      387.31 TCPU      328.95
 CYC   2 ETOT(AU) -9.244015111013E+03 DETOT  1.91E+00 tst  6.08E-02 PX  8.58E-01
 TTTTTTTTTTTTTTTTTTTTTTTTTTTTTT DIIS        TELAPSE      387.73 TCPU      329.37
 DIIS TEST: 0.25131E+02 AT SCF   CYCLE   2 - DIIS ACTIVE - HISTORY:     2 CYCLES
 TTTTTTTTTTTTTTTTTTTTTTTTTTTTTT FDIK        TELAPSE      401.95 TCPU      340.14
 INSULATING STATE
 TOP OF VALENCE BANDS -    BAND    244; K    5; EIG -2.4287406E-01 AU
 TOP OF VALENCE BANDS -    BAND    244; K    1; EIG -2.4659952E-01 AU
 BOTTOM OF VIRTUAL BANDS - BAND    245; K    1; EIG -1.3016391E-01 AU
 INDIRECT ENERGY BAND GAP:   3.0670 eV
 TTTTTTTTTTTTTTTTTTTTTTTTTTTTTT PDIG        TELAPSE      402.67 TCPU      340.86
 TOTAL ATOMIC CHARGES:
   1.2740470   1.2740470   1.2740470   1.2740470   1.1766036   1.1766036
   1.1766036   1.1766036   5.8919152   5.8919152   5.8919152   5.8919152
   5.8542962   5.8542962   5.8542962   5.8542962   5.5248751   5.5248751
   5.5248751   5.5248751   6.1534256   6.1534256   6.1534256   6.1534256
   5.9857263   5.9857263   5.9857263   5.9857263   5.5316777   5.5316777
   5.5316777   5.5316777   6.9806816   6.9806816   6.9806816   6.9806816
   7.1015227   7.1015227   7.1015227   7.1015227   7.0370737   7.0370737
   7.0370737   7.0370737   7.0901834   7.0901834   7.0901834   7.0901834
   7.4616505   7.4616505   7.4616505   7.4616505  17.1871370  17.1871370
  17.1871370  17.1871370  17.1330366  17.1330366  17.1330366  17.1330366
  29.3024117  29.1621798
 TTTTTTTTTTTTTTTTTTTTTTTTTTTTTT MOQGAD      TELAPSE      402.72 TCPU      340.91
 TTTTTTTTTTTTTTTTTTTTTTTTTTTTTT SHELLXN     TELAPSE      487.15 TCPU      420.41
 TTTTTTTTTTTTTTTTTTTTTTTTTTTTTT MONMO3      TELAPSE      497.17 TCPU      430.39
 NUMERICALLY INTEGRATED DENSITY    488.0000234636
 TTTTTTTTTTTTTTTTTTTTTTTTTTTTTT NUMDFT      TELAPSE      503.98 TCPU      437.18
 CYC   3 ETOT(AU) -9.247177494053E+03 DETOT -3.16E+00 tst  2.91E-01 PX  5.42E-01
 TTTTTTTTTTTTTTTTTTTTTTTTTTTTTT DIIS        TELAPSE      504.64 TCPU      437.84
 DIIS TEST: 0.45153E+01 AT SCF   CYCLE   3 - DIIS ACTIVE - HISTORY:     3 CYCLES
 TTTTTTTTTTTTTTTTTTTTTTTTTTTTTT FDIK        TELAPSE      519.26 TCPU      448.47
 INSULATING STATE
 TOP OF VALENCE BANDS -    BAND    244; K    4; EIG -2.1704397E-01 AU
 TOP OF VALENCE BANDS -    BAND    244; K    1; EIG -2.1826902E-01 AU
 BOTTOM OF VIRTUAL BANDS - BAND    245; K    6; EIG -1.2622018E-01 AU
 INDIRECT ENERGY BAND GAP:   2.4714 eV
 BOTTOM OF VIRTUAL BANDS - BAND    245; K    1; EIG -1.2099759E-01 AU
 TTTTTTTTTTTTTTTTTTTTTTTTTTTTTT PDIG        TELAPSE      519.96 TCPU      449.17
 TOTAL ATOMIC CHARGES:
   1.2926853   1.2926853   1.2926853   1.2926853   1.2091639   1.2091639
   1.2091639   1.2091639   6.2126776   6.2126776   6.2126776   6.2126776
   5.7567815   5.7567815   5.7567815   5.7567815   5.7447400   5.7447400
   5.7447400   5.7447400   5.7817453   5.7817453   5.7817453   5.7817453
   6.0396419   6.0396419   6.0396419   6.0396419   5.5040167   5.5040167
   5.5040167   5.5040167   7.2597750   7.2597750   7.2597750   7.2597750
   7.0662484   7.0662484   7.0662484   7.0662484   7.2378788   7.2378788
   7.2378788   7.2378788   7.0457794   7.0457794   7.0457794   7.0457794
   6.9570350   6.9570350   6.9570350   6.9570350  17.2514228  17.2514228
  17.2514228  17.2514228  17.2758951  17.2758951  17.2758951  17.2758951
  28.7148287  28.7432240
 TTTTTTTTTTTTTTTTTTTTTTTTTTTTTT MOQGAD      TELAPSE      520.01 TCPU      449.22
 TTTTTTTTTTTTTTTTTTTTTTTTTTTTTT SHELLXN     TELAPSE      603.11 TCPU      528.93
 TTTTTTTTTTTTTTTTTTTTTTTTTTTTTT MONMO3      TELAPSE      612.41 TCPU      538.21
 NUMERICALLY INTEGRATED DENSITY    488.0000129286
 TTTTTTTTTTTTTTTTTTTTTTTTTTTTTT NUMDFT      TELAPSE      619.14 TCPU      544.92
 CYC   4 ETOT(AU) -9.247689914062E+03 DETOT -5.12E-01 tst  6.57E-03 PX  3.24E-01
 TTTTTTTTTTTTTTTTTTTTTTTTTTTTTT DIIS        TELAPSE      619.54 TCPU      545.31
 DIIS TEST: 0.12597E+01 AT SCF   CYCLE   4 - DIIS ACTIVE - HISTORY:     4 CYCLES
 TTTTTTTTTTTTTTTTTTTTTTTTTTTTTT FDIK        TELAPSE      634.85 TCPU      556.65
 INSULATING STATE
 TOP OF VALENCE BANDS -    BAND    244; K    4; EIG -2.3643885E-01 AU
 TOP OF VALENCE BANDS -    BAND    244; K    1; EIG -2.3868995E-01 AU
 BOTTOM OF VIRTUAL BANDS - BAND    245; K    6; EIG -1.2827974E-01 AU
 INDIRECT ENERGY BAND GAP:   2.9432 eV
 BOTTOM OF VIRTUAL BANDS - BAND    245; K    1; EIG -1.2486099E-01 AU
 TTTTTTTTTTTTTTTTTTTTTTTTTTTTTT PDIG        TELAPSE      635.57 TCPU      557.37
 TOTAL ATOMIC CHARGES:
   1.2864594   1.2864594   1.2864594   1.2864594   1.1948236   1.1948236
   1.1948236   1.1948236   6.1037191   6.1037191   6.1037191   6.1037191
   5.7989911   5.7989911   5.7989911   5.7989911   5.7042045   5.7042045
   5.7042045   5.7042045   6.0009924   6.0009924   6.0009924   6.0009924
   6.0598489   6.0598489   6.0598489   6.0598489   5.5681389   5.5681389
   5.5681389   5.5681389   7.1897287   7.1897287   7.1897287   7.1897287
   7.0945906   7.0945906   7.0945906   7.0945906   7.1344620   7.1344620
   7.1344620   7.1344620   7.0538887   7.0538887   7.0538887   7.0538887
   6.9931949   6.9931949   6.9931949   6.9931949  17.2172589  17.2172589
  17.2172589  17.2172589  17.2032610  17.2032610  17.2032610  17.2032610
  28.8059023  28.7798471
 TTTTTTTTTTTTTTTTTTTTTTTTTTTTTT MOQGAD      TELAPSE      635.62 TCPU      557.41
 TTTTTTTTTTTTTTTTTTTTTTTTTTTTTT SHELLXN     TELAPSE      718.89 TCPU      636.96
 TTTTTTTTTTTTTTTTTTTTTTTTTTTTTT MONMO3      TELAPSE      728.49 TCPU      646.53
 NUMERICALLY INTEGRATED DENSITY    488.0000182478
 TTTTTTTTTTTTTTTTTTTTTTTTTTTTTT NUMDFT      TELAPSE      735.20 TCPU      653.23
 CYC   5 ETOT(AU) -9.247876785909E+03 DETOT -1.87E-01 tst  1.10E-03 PX  1.46E-01
 TTTTTTTTTTTTTTTTTTTTTTTTTTTTTT DIIS        TELAPSE      735.40 TCPU      653.42
 DIIS TEST: 0.93772E-01 AT SCF   CYCLE   5 - DIIS ACTIVE - HISTORY:     5 CYCLES
 TTTTTTTTTTTTTTTTTTTTTTTTTTTTTT FDIK        TELAPSE      750.31 TCPU      660.62
 INSULATING STATE
 TOP OF VALENCE BANDS -    BAND    244; K    4; EIG -2.3673357E-01 AU
 TOP OF VALENCE BANDS -    BAND    244; K    1; EIG -2.3931119E-01 AU
 BOTTOM OF VIRTUAL BANDS - BAND    245; K    6; EIG -1.2700897E-01 AU
 INDIRECT ENERGY BAND GAP:   2.9858 eV
 BOTTOM OF VIRTUAL BANDS - BAND    245; K    1; EIG -1.2367440E-01 AU
 TTTTTTTTTTTTTTTTTTTTTTTTTTTTTT PDIG        TELAPSE      751.01 TCPU      661.32
 TOTAL ATOMIC CHARGES:
   1.2836029   1.2836029   1.2836029   1.2836029   1.1960976   1.1960976
   1.1960976   1.1960976   6.1182639   6.1182639   6.1182639   6.1182639
   5.8064191   5.8064191   5.8064191   5.8064191   5.6909721   5.6909721
   5.6909721   5.6909721   5.9102124   5.9102124   5.9102124   5.9102124
   6.0478069   6.0478069   6.0478069   6.0478069   5.5119674   5.5119674
   5.5119674   5.5119674   7.1541036   7.1541036   7.1541036   7.1541036
   7.0417069   7.0417069   7.0417069   7.0417069   7.1973436   7.1973436
   7.1973436   7.1973436   7.0747331   7.0747331   7.0747331   7.0747331
   7.0788345   7.0788345   7.0788345   7.0788345  17.2403911  17.2403911
  17.2403911  17.2403911  17.2280859  17.2280859  17.2280859  17.2280859
  28.8461915  28.8316446
 TTTTTTTTTTTTTTTTTTTTTTTTTTTTTT MOQGAD      TELAPSE      751.06 TCPU      661.36
 TTTTTTTTTTTTTTTTTTTTTTTTTTTTTT SHELLXN     TELAPSE      834.05 TCPU      741.16
 TTTTTTTTTTTTTTTTTTTTTTTTTTTTTT MONMO3      TELAPSE      843.63 TCPU      750.70
 NUMERICALLY INTEGRATED DENSITY    488.0000170160
 TTTTTTTTTTTTTTTTTTTTTTTTTTTTTT NUMDFT      TELAPSE      850.50 TCPU      757.55
 CYC   6 ETOT(AU) -9.247882857004E+03 DETOT -6.07E-03 tst  1.32E-04 PX  2.94E-02
 TTTTTTTTTTTTTTTTTTTTTTTTTTTTTT DIIS        TELAPSE      851.00 TCPU      758.05
 DIIS TEST: 0.57903E-01 AT SCF   CYCLE   6 - DIIS ACTIVE - HISTORY:     6 CYCLES
 TTTTTTTTTTTTTTTTTTTTTTTTTTTTTT FDIK        TELAPSE      863.63 TCPU      768.38
 INSULATING STATE
 TOP OF VALENCE BANDS -    BAND    244; K    4; EIG -2.3694463E-01 AU
 TOP OF VALENCE BANDS -    BAND    244; K    1; EIG -2.3936152E-01 AU
 BOTTOM OF VIRTUAL BANDS - BAND    245; K    6; EIG -1.2726855E-01 AU
 INDIRECT ENERGY BAND GAP:   2.9844 eV
 BOTTOM OF VIRTUAL BANDS - BAND    245; K    1; EIG -1.2365040E-01 AU
 TTTTTTTTTTTTTTTTTTTTTTTTTTTTTT PDIG        TELAPSE      864.34 TCPU      769.10
 TOTAL ATOMIC CHARGES:
   1.2838881   1.2838881   1.2838881   1.2838881   1.1928100   1.1928100
   1.1928100   1.1928100   6.1013981   6.1013981   6.1013981   6.1013981
   5.8049418   5.8049418   5.8049418   5.8049418   5.6969907   5.6969907
   5.6969907   5.6969907   5.9308050   5.9308050   5.9308050   5.9308050
   6.0543780   6.0543780   6.0543780   6.0543780   5.5359492   5.5359492
   5.5359492   5.5359492   7.1898898   7.1898898   7.1898898   7.1898898
   7.0943031   7.0943031   7.0943031   7.0943031   7.1378548   7.1378548
   7.1378548   7.1378548   7.0431935   7.0431935   7.0431935   7.0431935
   7.0635957   7.0635957   7.0635957   7.0635957  17.2271260  17.2271260
  17.2271260  17.2271260  17.2213486  17.2213486  17.2213486  17.2213486
  28.8514486  28.8346618
 TTTTTTTTTTTTTTTTTTTTTTTTTTTTTT MOQGAD      TELAPSE      864.39 TCPU      769.15
 TTTTTTTTTTTTTTTTTTTTTTTTTTTTTT SHELLXN     TELAPSE      946.26 TCPU      848.61
 TTTTTTTTTTTTTTTTTTTTTTTTTTTTTT MONMO3      TELAPSE      956.00 TCPU      858.33
 NUMERICALLY INTEGRATED DENSITY    488.0000173282
 TTTTTTTTTTTTTTTTTTTTTTTTTTTTTT NUMDFT      TELAPSE      962.84 TCPU      865.14
 CYC   7 ETOT(AU) -9.247889000745E+03 DETOT -6.14E-03 tst  3.12E-05 PX  1.77E-02
 TTTTTTTTTTTTTTTTTTTTTTTTTTTTTT DIIS        TELAPSE      964.83 TCPU      867.11
 DIIS TEST: 0.18832E-01 AT SCF   CYCLE   7 - DIIS ACTIVE - HISTORY:     7 CYCLES
 TTTTTTTTTTTTTTTTTTTTTTTTTTTTTT FDIK        TELAPSE      979.95 TCPU      878.10
 INSULATING STATE
 TOP OF VALENCE BANDS -    BAND    244; K    4; EIG -2.3645599E-01 AU
 TOP OF VALENCE BANDS -    BAND    244; K    1; EIG -2.3881532E-01 AU
 BOTTOM OF VIRTUAL BANDS - BAND    245; K    6; EIG -1.2764414E-01 AU
 INDIRECT ENERGY BAND GAP:   2.9609 eV
 BOTTOM OF VIRTUAL BANDS - BAND    245; K    1; EIG -1.2434110E-01 AU
 TTTTTTTTTTTTTTTTTTTTTTTTTTTTTT PDIG        TELAPSE      980.66 TCPU      878.81
 TOTAL ATOMIC CHARGES:
   1.2817593   1.2817593   1.2817593   1.2817593   1.1924472   1.1924472
   1.1924472   1.1924472   6.1012061   6.1012061   6.1012061   6.1012061
   5.8015823   5.8015823   5.8015823   5.8015823   5.6967325   5.6967325
   5.6967325   5.6967325   5.9502170   5.9502170   5.9502170   5.9502170
   6.0495428   6.0495428   6.0495428   6.0495428   5.5405905   5.5405905
   5.5405905   5.5405905   7.1680946   7.1680946   7.1680946   7.1680946
   7.0701553   7.0701553   7.0701553   7.0701553   7.1647423   7.1647423
   7.1647423   7.1647423   7.0646570   7.0646570   7.0646570   7.0646570
   7.0512640   7.0512640   7.0512640   7.0512640  17.2293972  17.2293972
  17.2293972  17.2293972  17.2172934  17.2172934  17.2172934  17.2172934
  28.8489955  28.8322779
 TTTTTTTTTTTTTTTTTTTTTTTTTTTTTT MOQGAD      TELAPSE      980.70 TCPU      878.85
 TTTTTTTTTTTTTTTTTTTTTTTTTTTTTT SHELLXN     TELAPSE     1064.21 TCPU      958.39
 TTTTTTTTTTTTTTTTTTTTTTTTTTTTTT MONMO3      TELAPSE     1073.90 TCPU      968.05
 NUMERICALLY INTEGRATED DENSITY    488.0000172287
 TTTTTTTTTTTTTTTTTTTTTTTTTTTTTT NUMDFT      TELAPSE     1080.73 TCPU      974.85
 CYC   8 ETOT(AU) -9.247891531439E+03 DETOT -2.53E-03 tst  1.24E-05 PX  8.20E-03
 TTTTTTTTTTTTTTTTTTTTTTTTTTTTTT DIIS        TELAPSE     1082.61 TCPU      976.73
 DIIS TEST: 0.23726E-02 AT SCF   CYCLE   8 - DIIS ACTIVE - HISTORY:     8 CYCLES
 TTTTTTTTTTTTTTTTTTTTTTTTTTTTTT FDIK        TELAPSE     1098.56 TCPU      988.69
 INSULATING STATE
 TOP OF VALENCE BANDS -    BAND    244; K    4; EIG -2.3714218E-01 AU
 TOP OF VALENCE BANDS -    BAND    244; K    1; EIG -2.3960267E-01 AU
 BOTTOM OF VIRTUAL BANDS - BAND    245; K    6; EIG -1.2794378E-01 AU
 INDIRECT ENERGY BAND GAP:   2.9714 eV
 BOTTOM OF VIRTUAL BANDS - BAND    245; K    1; EIG -1.2453867E-01 AU
 TTTTTTTTTTTTTTTTTTTTTTTTTTTTTT PDIG        TELAPSE     1099.27 TCPU      989.40
 TOTAL ATOMIC CHARGES:
   1.2807261   1.2807261   1.2807261   1.2807261   1.1927481   1.1927481
   1.1927481   1.1927481   6.1081067   6.1081067   6.1081067   6.1081067
   5.8009950   5.8009950   5.8009950   5.8009950   5.6919392   5.6919392
   5.6919392   5.6919392   5.9477936   5.9477936   5.9477936   5.9477936
   6.0561306   6.0561306   6.0561306   6.0561306   5.5318426   5.5318426
   5.5318426   5.5318426   7.1772105   7.1772105   7.1772105   7.1772105
   7.0710866   7.0710866   7.0710866   7.0710866   7.1627200   7.1627200
   7.1627200   7.1627200   7.0563075   7.0563075   7.0563075   7.0563075
   7.0556008   7.0556008   7.0556008   7.0556008  17.2289584  17.2289584
  17.2289584  17.2289584  17.2173866  17.2173866  17.2173866  17.2173866
  28.8519236  28.8298680
 TTTTTTTTTTTTTTTTTTTTTTTTTTTTTT MOQGAD      TELAPSE     1099.32 TCPU      989.45
 TTTTTTTTTTTTTTTTTTTTTTTTTTTTTT SHELLXN     TELAPSE     1181.38 TCPU     1068.91
 TTTTTTTTTTTTTTTTTTTTTTTTTTTTTT MONMO3      TELAPSE     1190.97 TCPU     1078.47
 NUMERICALLY INTEGRATED DENSITY    488.0000174258
 TTTTTTTTTTTTTTTTTTTTTTTTTTTTTT NUMDFT      TELAPSE     1197.77 TCPU     1085.25
 CYC   9 ETOT(AU) -9.247891756330E+03 DETOT -2.25E-04 tst  1.80E-06 PX  2.91E-03
 TTTTTTTTTTTTTTTTTTTTTTTTTTTTTT DIIS        TELAPSE     1200.50 TCPU     1087.96
 DIIS TEST: 0.87220E-03 AT SCF   CYCLE   9 - DIIS ACTIVE - HISTORY:     9 CYCLES
 TTTTTTTTTTTTTTTTTTTTTTTTTTTTTT FDIK        TELAPSE     1215.45 TCPU     1099.27
 INSULATING STATE
 TOP OF VALENCE BANDS -    BAND    244; K    4; EIG -2.3713862E-01 AU
 TOP OF VALENCE BANDS -    BAND    244; K    1; EIG -2.3956385E-01 AU
 BOTTOM OF VIRTUAL BANDS - BAND    245; K    6; EIG -1.2772986E-01 AU
 INDIRECT ENERGY BAND GAP:   2.9772 eV
 BOTTOM OF VIRTUAL BANDS - BAND    245; K    1; EIG -1.2435442E-01 AU
 TTTTTTTTTTTTTTTTTTTTTTTTTTTTTT PDIG        TELAPSE     1216.15 TCPU     1099.97
 TOTAL ATOMIC CHARGES:
   1.2812195   1.2812195   1.2812195   1.2812195   1.1925438   1.1925438
   1.1925438   1.1925438   6.1040184   6.1040184   6.1040184   6.1040184
   5.8008747   5.8008747   5.8008747   5.8008747   5.6953700   5.6953700
   5.6953700   5.6953700   5.9446455   5.9446455   5.9446455   5.9446455
   6.0509147   6.0509147   6.0509147   6.0509147   5.5364845   5.5364845
   5.5364845   5.5364845   7.1726592   7.1726592   7.1726592   7.1726592
   7.0747991   7.0747991   7.0747991   7.0747991   7.1600127   7.1600127
   7.1600127   7.1600127   7.0596671   7.0596671   7.0596671   7.0596671
   7.0574315   7.0574315   7.0574315   7.0574315  17.2299628  17.2299628
  17.2299628  17.2299628  17.2188789  17.2188789  17.2188789  17.2188789
  28.8507303  28.8313391
 TTTTTTTTTTTTTTTTTTTTTTTTTTTTTT MOQGAD      TELAPSE     1216.20 TCPU     1100.02
 TTTTTTTTTTTTTTTTTTTTTTTTTTTTTT SHELLXN     TELAPSE     1299.10 TCPU     1179.79
 TTTTTTTTTTTTTTTTTTTTTTTTTTTTTT MONMO3      TELAPSE     1308.93 TCPU     1189.55
 NUMERICALLY INTEGRATED DENSITY    488.0000173534
 TTTTTTTTTTTTTTTTTTTTTTTTTTTTTT NUMDFT      TELAPSE     1315.67 TCPU     1196.26
 CYC  10 ETOT(AU) -9.247891866502E+03 DETOT -1.10E-04 tst  5.93E-07 PX  1.74E-03
 TTTTTTTTTTTTTTTTTTTTTTTTTTTTTT DIIS        TELAPSE     1316.80 TCPU     1197.39
 DIIS TEST: 0.12506E-03 AT SCF   CYCLE  10 - DIIS ACTIVE - HISTORY:    10 CYCLES
 TTTTTTTTTTTTTTTTTTTTTTTTTTTTTT FDIK        TELAPSE     1331.17 TCPU     1208.34
 INSULATING STATE
 TOP OF VALENCE BANDS -    BAND    244; K    4; EIG -2.3710973E-01 AU
 TOP OF VALENCE BANDS -    BAND    244; K    1; EIG -2.3954483E-01 AU
 BOTTOM OF VIRTUAL BANDS - BAND    245; K    6; EIG -1.2779665E-01 AU
 INDIRECT ENERGY BAND GAP:   2.9746 eV
 BOTTOM OF VIRTUAL BANDS - BAND    245; K    1; EIG -1.2442438E-01 AU
 TTTTTTTTTTTTTTTTTTTTTTTTTTTTTT PDIG        TELAPSE     1331.89 TCPU     1209.05
 TOTAL ATOMIC CHARGES:
   1.2812957   1.2812957   1.2812957   1.2812957   1.1924095   1.1924095
   1.1924095   1.1924095   6.1032506   6.1032506   6.1032506   6.1032506
   5.8018921   5.8018921   5.8018921   5.8018921   5.6943978   5.6943978
   5.6943978   5.6943978   5.9464207   5.9464207   5.9464207   5.9464207
   6.0523650   6.0523650   6.0523650   6.0523650   5.5360441   5.5360441
   5.5360441   5.5360441   7.1743698   7.1743698   7.1743698   7.1743698
   7.0727009   7.0727009   7.0727009   7.0727009   7.1614272   7.1614272
   7.1614272   7.1614272   7.0586926   7.0586926   7.0586926   7.0586926
   7.0567185   7.0567185   7.0567185   7.0567185  17.2296618  17.2296618
  17.2296618  17.2296618  17.2180891  17.2180891  17.2180891  17.2180891
  28.8500360  28.8310225
 TTTTTTTTTTTTTTTTTTTTTTTTTTTTTT MOQGAD      TELAPSE     1331.94 TCPU     1209.10
 TTTTTTTTTTTTTTTTTTTTTTTTTTTTTT SHELLXN     TELAPSE     1412.98 TCPU     1288.66
 TTTTTTTTTTTTTTTTTTTTTTTTTTTTTT MONMO3      TELAPSE     1422.85 TCPU     1298.51
 NUMERICALLY INTEGRATED DENSITY    488.0000173433
 TTTTTTTTTTTTTTTTTTTTTTTTTTTTTT NUMDFT      TELAPSE     1429.60 TCPU     1305.23
 CYC  11 ETOT(AU) -9.247891881336E+03 DETOT -1.48E-05 tst  6.33E-08 PX  6.90E-04
 TTTTTTTTTTTTTTTTTTTTTTTTTTTTTT DIIS        TELAPSE     1432.75 TCPU     1308.38
 DIIS TEST: 0.19733E-04 AT SCF   CYCLE  11 - DIIS ACTIVE - HISTORY:    11 CYCLES
 TTTTTTTTTTTTTTTTTTTTTTTTTTTTTT FDIK        TELAPSE     1448.21 TCPU     1320.19
 INSULATING STATE
 TOP OF VALENCE BANDS -    BAND    244; K    4; EIG -2.3708339E-01 AU
 TOP OF VALENCE BANDS -    BAND    244; K    1; EIG -2.3951421E-01 AU
 BOTTOM OF VIRTUAL BANDS - BAND    245; K    6; EIG -1.2776727E-01 AU
 INDIRECT ENERGY BAND GAP:   2.9746 eV
 BOTTOM OF VIRTUAL BANDS - BAND    245; K    1; EIG -1.2439184E-01 AU
 TTTTTTTTTTTTTTTTTTTTTTTTTTTTTT PDIG        TELAPSE     1448.92 TCPU     1320.89
 TOTAL ATOMIC CHARGES:
   1.2811723   1.2811723   1.2811723   1.2811723   1.1924979   1.1924979
   1.1924979   1.1924979   6.1047313   6.1047313   6.1047313   6.1047313
   5.8012312   5.8012312   5.8012312   5.8012312   5.6945800   5.6945800
   5.6945800   5.6945800   5.9460222   5.9460222   5.9460222   5.9460222
   6.0525141   6.0525141   6.0525141   6.0525141   5.5351307   5.5351307
   5.5351307   5.5351307   7.1730201   7.1730201   7.1730201   7.1730201
   7.0739502   7.0739502   7.0739502   7.0739502   7.1606221   7.1606221
   7.1606221   7.1606221   7.0594869   7.0594869   7.0594869   7.0594869
   7.0565055   7.0565055   7.0565055   7.0565055  17.2295836  17.2295836
  17.2295836  17.2295836  17.2184733  17.2184733  17.2184733  17.2184733
  28.8507703  28.8311440
 TTTTTTTTTTTTTTTTTTTTTTTTTTTTTT MOQGAD      TELAPSE     1448.97 TCPU     1320.94
 TTTTTTTTTTTTTTTTTTTTTTTTTTTTTT SHELLXN     TELAPSE     1531.79 TCPU     1400.44
 TTTTTTTTTTTTTTTTTTTTTTTTTTTTTT MONMO3      TELAPSE     1541.97 TCPU     1410.59
 NUMERICALLY INTEGRATED DENSITY    488.0000173501
 TTTTTTTTTTTTTTTTTTTTTTTTTTTTTT NUMDFT      TELAPSE     1548.76 TCPU     1417.36
 CYC  12 ETOT(AU) -9.247891882044E+03 DETOT -7.08E-07 tst  3.18E-08 PX  3.97E-04
 TTTTTTTTTTTTTTTTTTTTTTTTTTTTTT DIIS        TELAPSE     1550.64 TCPU     1419.23
 DIIS TEST: 0.14249E-04 AT SCF   CYCLE  12 - DIIS ACTIVE - HISTORY:    12 CYCLES
 TTTTTTTTTTTTTTTTTTTTTTTTTTTTTT FDIK        TELAPSE     1566.87 TCPU     1431.04
 INSULATING STATE
 TOP OF VALENCE BANDS -    BAND    244; K    4; EIG -2.3709766E-01 AU
 TOP OF VALENCE BANDS -    BAND    244; K    1; EIG -2.3952863E-01 AU
 BOTTOM OF VIRTUAL BANDS - BAND    245; K    6; EIG -1.2777650E-01 AU
 INDIRECT ENERGY BAND GAP:   2.9748 eV
 BOTTOM OF VIRTUAL BANDS - BAND    245; K    1; EIG -1.2439989E-01 AU
 TTTTTTTTTTTTTTTTTTTTTTTTTTTTTT PDIG        TELAPSE     1567.59 TCPU     1431.76
 TOTAL ATOMIC CHARGES:
   1.2812209   1.2812209   1.2812209   1.2812209   1.1924906   1.1924906
   1.1924906   1.1924906   6.1042903   6.1042903   6.1042903   6.1042903
   5.8011762   5.8011762   5.8011762   5.8011762   5.6945459   5.6945459
   5.6945459   5.6945459   5.9459424   5.9459424   5.9459424   5.9459424
   6.0521010   6.0521010   6.0521010   6.0521010   5.5356724   5.5356724
   5.5356724   5.5356724   7.1740368   7.1740368   7.1740368   7.1740368
   7.0732054   7.0732054   7.0732054   7.0732054   7.1612547   7.1612547
   7.1612547   7.1612547   7.0588312   7.0588312   7.0588312   7.0588312
   7.0567303   7.0567303   7.0567303   7.0567303  17.2296726  17.2296726
[...]
 TTTTTTTTTTTTTTTTTTTTTTTTTTTTTT MOQGAD      TELAPSE   379575.63 TCPU   376726.06
 TTTTTTTTTTTTTTTTTTTTTTTTTTTTTT CP_MONMON   TELAPSE   379592.96 TCPU   376743.35
 DIIS TEST: 0.11525E+02 AT CPHF  CYCLE   5 - DIIS ACTIVE - HISTORY:     5 CYCLES
 CYCLE   5   ALPHA  573.329168  EPSILON    2.423788  DELTA    1.5830E+00
 TTTTTTTTTTTTTTTTTTTTTTTTTTTTTT MOQGAD      TELAPSE   380398.12 TCPU   377543.92
 TTTTTTTTTTTTTTTTTTTTTTTTTTTTTT CP_MONMON   TELAPSE   380415.55 TCPU   377561.29
 DIIS TEST: 0.32348E+01 AT CPHF  CYCLE   6 - DIIS ACTIVE - HISTORY:     6 CYCLES
 CYCLE   6   ALPHA  573.703552  EPSILON    2.424718  DELTA    3.7438E-01
 TTTTTTTTTTTTTTTTTTTTTTTTTTTTTT MOQGAD      TELAPSE   381219.33 TCPU   378362.56
 TTTTTTTTTTTTTTTTTTTTTTTTTTTTTT CP_MONMON   TELAPSE   381236.67 TCPU   378379.84
 DIIS TEST: 0.42656E+01 AT CPHF  CYCLE   7 - DIIS ACTIVE - HISTORY:     7 CYCLES
 CYCLE   7   ALPHA  573.731583  EPSILON    2.424788  DELTA    2.8031E-02
 TTTTTTTTTTTTTTTTTTTTTTTTTTTTTT MOQGAD      TELAPSE   382042.36 TCPU   379180.59
 TTTTTTTTTTTTTTTTTTTTTTTTTTTTTT CP_MONMON   TELAPSE   382059.73 TCPU   379197.83
 DIIS TEST: 0.44302E+01 AT CPHF  CYCLE   8 - DIIS ACTIVE - HISTORY:     8 CYCLES
 CYCLE   8   ALPHA  573.800705  EPSILON    2.424959  DELTA    6.9122E-02
 TTTTTTTTTTTTTTTTTTTTTTTTTTTTTT MOQGAD      TELAPSE   382900.71 TCPU   380033.84
 TTTTTTTTTTTTTTTTTTTTTTTTTTTTTT CP_MONMON   TELAPSE   382918.22 TCPU   380051.31
 DIIS TEST: 0.40475E+01 AT CPHF  CYCLE   9 - DIIS ACTIVE - HISTORY:     9 CYCLES
 CYCLE   9   ALPHA  573.845022  EPSILON    2.425069  DELTA    4.4317E-02
 TTTTTTTTTTTTTTTTTTTTTTTTTTTTTT MOQGAD      TELAPSE   383732.54 TCPU   380861.19
 TTTTTTTTTTTTTTTTTTTTTTTTTTTTTT CP_MONMON   TELAPSE   383749.92 TCPU   380878.53
 DIIS TEST: 0.39389E+01 AT CPHF  CYCLE  10 - DIIS ACTIVE - HISTORY:    10 CYCLES
 CYCLE  10   ALPHA  573.845610  EPSILON    2.425071  DELTA    5.8767E-04
 TTTTTTTTTTTTTTTTTTTTTTTTTTTTTT CP_SC       TELAPSE   383800.72 TCPU   380926.61

 *******************************************************************************

 POLARIZABILITY (ALPHA), DIELECTRIC (EPSILON) AND FIRST-ORDER ELECTRIC
 SUSCEPTIBILITY (CHI(1)) TENSORS (INDEPENDENT COMPONENTS)

  FR.(eV) COMP.   ALPHA(Re,Im)           EPSILON(Re,Im)                CHI(1)
  1.435   XX    1213.9943       0.0000       4.0148       0.0000       3.0148
  1.435   ZZ     573.8456       0.0000       2.4251       0.0000       1.4251

 DIELECTRIC TENSOR

 TENSOR IN PRINCIPAL AXES SYSTEM
 AA  4.014797E+00 BB  4.014797E+00 CC  2.425071E+00

 REFRACTIVE INDICES 
 AA  1.557264E+00 BB  2.003696E+00 CC  2.003696E+00

 OPTICALLY ANISOTROPIC - UNIAXIAL CRYSTAL

 BIREFRINGENCE =  0.4464 (NEGATIVE) - OBLATE OPTICAL ELLIPSOID

 EPSILON=N**2=1+CHI(1)=1+ALPHA*4*PI/V,   4*PI/V=   0.00248 BOHR**(-3)
 ALPHA IN BOHR**3; EPSILON AND CHI(1) ARE DIMENSIONLESS.
 *******************************************************************************

 DYNAMIC FIELD: RUN 10/ 10 - RADIATION WAVELENGTH: 1064.0000 NM

 *******************************************************************************

 ELECTRIC FIELD APPLIED ALONG CARTESIAN DIRECTION X

 *******************************************************************************
 THE NUMBER OF SYMMETRY OPERATORS HAS BEEN REDUCED FROM  4 TO  1

 NEW GRID IN RECIPROCAL SPACE
 *******************************************************************************
 POINTS IN THE IBZ                  14 SHRINKING FACTORS               3  3  3
 *******************************************************************************
 *** K POINTS COORDINATES (OBLIQUE COORDINATES IN UNITS OF SHRINK FAC. )
   1-R(  0  0  0)   2-C(  1  0  0)   3-C(  0  1  2)   4-C(  2  0  1)
   5-C(  0  2  0)   6-C(  1  1  0)   7-C(  1  1  1)   8-C(  1  0  1)
   9-C(  0  1  1)  10-C(  2  1  0)  11-C(  0  0  2)  12-C(  2  1  1)
  13-C(  2  1  2)  14-C(  2  2  1)

 GCALCO - MAX INDICES DIRECT LATTICE VECTOR    14    14    16
 NO.OF VECTORS CREATED 6999 STARS  486 RMAX   204.19219 BOHR
 TTTTTTTTTTTTTTTTTTTTTTTTTTTTTT gordsh1     TELAPSE   383800.73 TCPU   380926.62

 MATRIX SIZE: P(G) 1872748, F(G)  937080, P(G) IRR  938734, F(G) IRR  938734
 MAX G-VECTOR INDEX FOR 1- AND 2-ELECTRON INTEGRALS  59

 TTTTTTTTTTTTTTTTTTTTTTTTTTTTTT INPUT       TELAPSE   383801.12 TCPU   380927.00
 TTTTTTTTTTTTTTTTTTTTTTTTTTTTTT SYMM        TELAPSE   383801.12 TCPU   380927.00

 ***** NEW REFERENCE GEOMETRY *****
 TTTTTTTTTTTTTTTTTTTTTTTTTTTTTT INT_SCREEN  TELAPSE   383801.14 TCPU   380927.02
 INFORMATION **** EXCBUF **** EXCH. BIPO BUFFER: WORDS USED =           0

 DFT PARAMETERS

     ATOM       ELECTRONS   NET CHARGE   R(ANGSTROM)
   1   1  H       1.0000      0.0000     1.11000000
   9   6  C       6.0000      0.0000     0.77000000
  33   7  N       7.0000      0.0000     0.74000000
  53  17  CL     17.0000      0.0000     0.99000000
  61  30  ZN     30.0000      0.0000     1.37000000

 SIZE OF GRID=    1862434
 TTTTTTTTTTTTTTTTTTTTTTTTTTTTTT MAKE_GRID2  TELAPSE   383803.47 TCPU   380929.34
 BECKE WEIGHT FUNCTION
 RADSAFE =     2.00
 TOLERANCES - DENSITY:10**- 6; POTENTIAL:10**- 9; GRID WGT:10**-14

 RADIAL INTEGRATION  - INTERVALS (POINTS,UPPER LIMIT):            1( 75,  4.0*R)

 ANGULAR INTEGRATION - INTERVALS (ACCURACY LEVEL [N. POINTS] UPPER LIMIT):
  1(  4[  86]   0.2)  2(  8[ 194]   0.5)  3( 12[ 350]   0.9)  4( 16[ 974]   3.5)
  5( 12[ 350]9999.0)
 TTTTTTTTTTTTTTTTTTTTTTTTTTTTTT INT_CALC    TELAPSE   383803.58 TCPU   380929.46
 CYCLE   0   ALPHA 1593.248358  EPSILON    4.956625  DELTA    1.5932E+03
 TTTTTTTTTTTTTTTTTTTTTTTTTTTTTT MOQGAD      TELAPSE   385427.85 TCPU   382547.48
 TTTTTTTTTTTTTTTTTTTTTTTTTTTTTT CP_MONMON   TELAPSE   385460.46 TCPU   382580.01
 DIIS TEST: 0.33261E+03 AT CPHF  CYCLE   1 - MIX    0 %
 CYCLE   1   ALPHA  391.249210  EPSILON    1.971616  DELTA   -1.2020E+03
 TTTTTTTTTTTTTTTTTTTTTTTTTTTTTT MOQGAD      TELAPSE   387041.70 TCPU   384154.84
 TTTTTTTTTTTTTTTTTTTTTTTTTTTTTT CP_MONMON   TELAPSE   387074.31 TCPU   384187.28
 DIIS TEST: 0.26197E+04 AT CPHF  CYCLE   2 - DIIS ACTIVE - HISTORY:     2 CYCLES
 CYCLE   2   ALPHA 1113.661869  EPSILON    3.765634  DELTA    7.2241E+02
 TTTTTTTTTTTTTTTTTTTTTTTTTTTTTT MOQGAD      TELAPSE   388640.28 TCPU   385746.18
 TTTTTTTTTTTTTTTTTTTTTTTTTTTTTT CP_MONMON   TELAPSE   388672.61 TCPU   385778.42
 DIIS TEST: 0.71120E+02 AT CPHF  CYCLE   3 - DIIS ACTIVE - HISTORY:     3 CYCLES
 CYCLE   3   ALPHA 1173.587764  EPSILON    3.914452  DELTA    5.9926E+01
 TTTTTTTTTTTTTTTTTTTTTTTTTTTTTT MOQGAD      TELAPSE   390270.37 TCPU   387365.54
 TTTTTTTTTTTTTTTTTTTTTTTTTTTTTT CP_MONMON   TELAPSE   390302.67 TCPU   387397.73
 DIIS TEST: 0.62248E+01 AT CPHF  CYCLE   4 - DIIS ACTIVE - HISTORY:     4 CYCLES
 CYCLE   4   ALPHA 1185.466604  EPSILON    3.943952  DELTA    1.1879E+01
 TTTTTTTTTTTTTTTTTTTTTTTTTTTTTT MOQGAD      TELAPSE   391856.68 TCPU   388940.57
 TTTTTTTTTTTTTTTTTTTTTTTTTTTTTT CP_MONMON   TELAPSE   391889.28 TCPU   388972.99
 DIIS TEST: 0.11514E+01 AT CPHF  CYCLE   5 - DIIS ACTIVE - HISTORY:     5 CYCLES
 CYCLE   5   ALPHA 1189.767331  EPSILON    3.954632  DELTA    4.3007E+00
 TTTTTTTTTTTTTTTTTTTTTTTTTTTTTT MOQGAD      TELAPSE   393450.74 TCPU   390526.72
 TTTTTTTTTTTTTTTTTTTTTTTTTTTTTT CP_MONMON   TELAPSE   393483.07 TCPU   390558.98
 DIIS TEST: 0.15150E+00 AT CPHF  CYCLE   6 - DIIS ACTIVE - HISTORY:     6 CYCLES
 CYCLE   6   ALPHA 1191.515807  EPSILON    3.958974  DELTA    1.7485E+00
 TTTTTTTTTTTTTTTTTTTTTTTTTTTTTT MOQGAD      TELAPSE   395080.80 TCPU   392146.56
 TTTTTTTTTTTTTTTTTTTTTTTTTTTTTT CP_MONMON   TELAPSE   395113.41 TCPU   392179.03
 DIIS TEST: 0.16956E-01 AT CPHF  CYCLE   7 - DIIS ACTIVE - HISTORY:     7 CYCLES
 CYCLE   7   ALPHA 1191.965542  EPSILON    3.960091  DELTA    4.4973E-01
 TTTTTTTTTTTTTTTTTTTTTTTTTTTTTT MOQGAD      TELAPSE   396716.22 TCPU   393776.18
 TTTTTTTTTTTTTTTTTTTTTTTTTTTTTT CP_MONMON   TELAPSE   396748.59 TCPU   393808.47
 DIIS TEST: 0.15074E-02 AT CPHF  CYCLE   8 - DIIS ACTIVE - HISTORY:     8 CYCLES
 CYCLE   8   ALPHA 1192.045198  EPSILON    3.960289  DELTA    7.9656E-02
 TTTTTTTTTTTTTTTTTTTTTTTTTTTTTT MOQGAD      TELAPSE   398334.13 TCPU   395384.82
 TTTTTTTTTTTTTTTTTTTTTTTTTTTTTT CP_MONMON   TELAPSE   398366.75 TCPU   395417.26
 DIIS TEST: 0.17441E-03 AT CPHF  CYCLE   9 - DIIS ACTIVE - HISTORY:     9 CYCLES
 CYCLE   9   ALPHA 1192.031567  EPSILON    3.960255  DELTA   -1.3631E-02
 TTTTTTTTTTTTTTTTTTTTTTTTTTTTTT MOQGAD      TELAPSE   399919.26 TCPU   396961.95
 TTTTTTTTTTTTTTTTTTTTTTTTTTTTTT CP_MONMON   TELAPSE   399951.87 TCPU   396994.46
 DIIS TEST: 0.34242E-04 AT CPHF  CYCLE  10 - DIIS ACTIVE - HISTORY:    10 CYCLES
 CYCLE  10   ALPHA 1192.011913  EPSILON    3.960206  DELTA   -1.9654E-02
 TTTTTTTTTTTTTTTTTTTTTTTTTTTTTT MOQGAD      TELAPSE   401526.29 TCPU   398562.04
 TTTTTTTTTTTTTTTTTTTTTTTTTTTTTT CP_MONMON   TELAPSE   401558.64 TCPU   398594.32
 DIIS TEST: 0.23767E-05 AT CPHF  CYCLE  11 - DIIS ACTIVE - HISTORY:    11 CYCLES
 CYCLE  11   ALPHA 1192.005935  EPSILON    3.960191  DELTA   -5.9786E-03
 TTTTTTTTTTTTTTTTTTTTTTTTTTTTTT MOQGAD      TELAPSE   403163.06 TCPU   400191.52
 TTTTTTTTTTTTTTTTTTTTTTTTTTTTTT CP_MONMON   TELAPSE   403195.43 TCPU   400223.81
 DIIS TEST: 0.72044E-06 AT CPHF  CYCLE  12 - DIIS ACTIVE - HISTORY:    12 CYCLES
 CYCLE  12   ALPHA 1192.003347  EPSILON    3.960185  DELTA   -2.5875E-03
 TTTTTTTTTTTTTTTTTTTTTTTTTTTTTT MOQGAD      TELAPSE   404754.92 TCPU   401776.23
 TTTTTTTTTTTTTTTTTTTTTTTTTTTTTT CP_MONMON   TELAPSE   404787.52 TCPU   401808.73
 DIIS TEST: 0.49730E-07 AT CPHF  CYCLE  13 - DIIS ACTIVE - HISTORY:    13 CYCLES
 CYCLE  13   ALPHA 1192.003148  EPSILON    3.960184  DELTA   -1.9940E-04
 TTTTTTTTTTTTTTTTTTTTTTTTTTTTTT CP_SC       TELAPSE   404843.51 TCPU   401863.54

 *******************************************************************************

 ELECTRIC FIELD APPLIED ALONG CARTESIAN DIRECTION Z

 *******************************************************************************
 THE NUMBER OF SYMMETRY OPERATORS HAS BEEN REDUCED FROM  4 TO  2

 NEW GRID IN RECIPROCAL SPACE
 *******************************************************************************
 POINTS IN THE IBZ                  10 SHRINKING FACTORS               3  3  3
 *******************************************************************************
 *** K POINTS COORDINATES (OBLIQUE COORDINATES IN UNITS OF SHRINK FAC. )
   1-R(  0  0  0)   2-C(  1  0  0)   3-C(  2  0  1)   4-C(  1  1  0)
   5-C(  1  0  1)   6-C(  2  1  0)   7-C(  0  0  2)   8-C(  2  1  1)
   9-C(  2  1  2)  10-C(  2  2  1)

 GCALCO - MAX INDICES DIRECT LATTICE VECTOR    14    14    16
 NO.OF VECTORS CREATED 6999 STARS  486 RMAX   204.19219 BOHR
 TTTTTTTTTTTTTTTTTTTTTTTTTTTTTT gordsh1     TELAPSE   404843.52 TCPU   401863.55

 MATRIX SIZE: P(G) 1872748, F(G)  937080, P(G) IRR  471874, F(G) IRR  471874
 MAX G-VECTOR INDEX FOR 1- AND 2-ELECTRON INTEGRALS  59

 TTTTTTTTTTTTTTTTTTTTTTTTTTTTTT INPUT       TELAPSE   404843.63 TCPU   401863.65
 TTTTTTTTTTTTTTTTTTTTTTTTTTTTTT SYMM        TELAPSE   404843.63 TCPU   401863.65

 ***** NEW REFERENCE GEOMETRY *****
 TTTTTTTTTTTTTTTTTTTTTTTTTTTTTT INT_SCREEN  TELAPSE   404843.63 TCPU   401863.66
 INFORMATION **** EXCBUF **** EXCH. BIPO BUFFER: WORDS USED =           0

 DFT PARAMETERS

     ATOM       ELECTRONS   NET CHARGE   R(ANGSTROM)
   1   1  H       1.0000      0.0000     1.11000000
   9   6  C       6.0000      0.0000     0.77000000
  33   7  N       7.0000      0.0000     0.74000000
  53  17  CL     17.0000      0.0000     0.99000000
  61  30  ZN     30.0000      0.0000     1.37000000

 SIZE OF GRID=     931330
 TTTTTTTTTTTTTTTTTTTTTTTTTTTTTT MAKE_GRID2  TELAPSE   404845.01 TCPU   401865.04
 BECKE WEIGHT FUNCTION
 RADSAFE =     2.00
 TOLERANCES - DENSITY:10**- 6; POTENTIAL:10**- 9; GRID WGT:10**-14

 RADIAL INTEGRATION  - INTERVALS (POINTS,UPPER LIMIT):            1( 75,  4.0*R)

 ANGULAR INTEGRATION - INTERVALS (ACCURACY LEVEL [N. POINTS] UPPER LIMIT):
  1(  4[  86]   0.2)  2(  8[ 194]   0.5)  3( 12[ 350]   0.9)  4( 16[ 974]   3.5)
  5( 12[ 350]9999.0)
 TTTTTTTTTTTTTTTTTTTTTTTTTTTTTT INT_CALC    TELAPSE   404845.09 TCPU   401865.11
 CYCLE   0   ALPHA  712.444369  EPSILON    2.769263  DELTA    7.1244E+02
 TTTTTTTTTTTTTTTTTTTTTTTTTTTTTT MOQGAD      TELAPSE   405620.66 TCPU   402637.72
 TTTTTTTTTTTTTTTTTTTTTTTTTTTTTT CP_MONMON   TELAPSE   405637.97 TCPU   402654.99
 DIIS TEST: 0.71545E+02 AT CPHF  CYCLE   1 - MIX    0 %
 CYCLE   1   ALPHA  405.109227  EPSILON    2.006036  DELTA   -3.0734E+02
 TTTTTTTTTTTTTTTTTTTTTTTTTTTTTT MOQGAD      TELAPSE   406471.83 TCPU   403481.45
 TTTTTTTTTTTTTTTTTTTTTTTTTTTTTT CP_MONMON   TELAPSE   406489.30 TCPU   403498.85
 DIIS TEST: 0.36523E+03 AT CPHF  CYCLE   2 - DIIS ACTIVE - HISTORY:     2 CYCLES
 CYCLE   2   ALPHA  533.616705  EPSILON    2.325168  DELTA    1.2851E+02
 TTTTTTTTTTTTTTTTTTTTTTTTTTTTTT MOQGAD      TELAPSE   407278.15 TCPU   404285.13
 TTTTTTTTTTTTTTTTTTTTTTTTTTTTTT CP_MONMON   TELAPSE   407295.61 TCPU   404302.55
 DIIS TEST: 0.39767E+02 AT CPHF  CYCLE   3 - DIIS ACTIVE - HISTORY:     3 CYCLES
 CYCLE   3   ALPHA  565.101617  EPSILON    2.403356  DELTA    3.1485E+01
 TTTTTTTTTTTTTTTTTTTTTTTTTTTTTT MOQGAD      TELAPSE   408104.42 TCPU   405104.67
 TTTTTTTTTTTTTTTTTTTTTTTTTTTTTT CP_MONMON   TELAPSE   408121.77 TCPU   405121.97
 DIIS TEST: 0.50102E+02 AT CPHF  CYCLE   4 - DIIS ACTIVE - HISTORY:     4 CYCLES
 CYCLE   4   ALPHA  566.302889  EPSILON    2.406339  DELTA    1.2013E+00
 TTTTTTTTTTTTTTTTTTTTTTTTTTTTTT MOQGAD      TELAPSE   408914.18 TCPU   405911.82
 TTTTTTTTTTTTTTTTTTTTTTTTTTTTTT CP_MONMON   TELAPSE   408931.65 TCPU   405929.21
 DIIS TEST: 0.10172E+02 AT CPHF  CYCLE   5 - DIIS ACTIVE - HISTORY:     5 CYCLES
 CYCLE   5   ALPHA  567.773914  EPSILON    2.409993  DELTA    1.4710E+00
 TTTTTTTTTTTTTTTTTTTTTTTTTTTTTT MOQGAD      TELAPSE   409719.98 TCPU   406712.96
 TTTTTTTTTTTTTTTTTTTTTTTTTTTTTT CP_MONMON   TELAPSE   409737.34 TCPU   406730.26
 DIIS TEST: 0.21822E+01 AT CPHF  CYCLE   6 - DIIS ACTIVE - HISTORY:     6 CYCLES
 CYCLE   6   ALPHA  568.161941  EPSILON    2.410956  DELTA    3.8803E-01
 TTTTTTTTTTTTTTTTTTTTTTTTTTTTTT MOQGAD      TELAPSE   410547.95 TCPU   407538.08
 TTTTTTTTTTTTTTTTTTTTTTTTTTTTTT CP_MONMON   TELAPSE   410565.27 TCPU   407555.36
 DIIS TEST: 0.28438E+01 AT CPHF  CYCLE   7 - DIIS ACTIVE - HISTORY:     7 CYCLES
 CYCLE   7   ALPHA  568.228950  EPSILON    2.411123  DELTA    6.7009E-02
 TTTTTTTTTTTTTTTTTTTTTTTTTTTTTT MOQGAD      TELAPSE   411357.25 TCPU   408343.47
 TTTTTTTTTTTTTTTTTTTTTTTTTTTTTT CP_MONMON   TELAPSE   411374.56 TCPU   408360.73
 DIIS TEST: 0.31018E+01 AT CPHF  CYCLE   8 - DIIS ACTIVE - HISTORY:     8 CYCLES
 CYCLE   8   ALPHA  568.269048  EPSILON    2.411222  DELTA    4.0098E-02
 TTTTTTTTTTTTTTTTTTTTTTTTTTTTTT MOQGAD      TELAPSE   412162.56 TCPU   409143.14
 TTTTTTTTTTTTTTTTTTTTTTTTTTTTTT CP_MONMON   TELAPSE   412180.03 TCPU   409160.56
 DIIS TEST: 0.28043E+01 AT CPHF  CYCLE   9 - DIIS ACTIVE - HISTORY:     9 CYCLES
 CYCLE   9   ALPHA  568.320146  EPSILON    2.411349  DELTA    5.1098E-02
 TTTTTTTTTTTTTTTTTTTTTTTTTTTTTT MOQGAD      TELAPSE   413002.10 TCPU   409977.44
 TTTTTTTTTTTTTTTTTTTTTTTTTTTTTT CP_MONMON   TELAPSE   413019.58 TCPU   409994.86
 DIIS TEST: 0.26623E+01 AT CPHF  CYCLE  10 - DIIS ACTIVE - HISTORY:    10 CYCLES
 CYCLE  10   ALPHA  568.323767  EPSILON    2.411358  DELTA    3.6212E-03
 TTTTTTTTTTTTTTTTTTTTTTTTTTTTTT MOQGAD      TELAPSE   413809.94 TCPU   410780.35
 TTTTTTTTTTTTTTTTTTTTTTTTTTTTTT CP_MONMON   TELAPSE   413827.26 TCPU   410797.63
 DIIS TEST: 0.25461E+01 AT CPHF  CYCLE  11 - DIIS ACTIVE - HISTORY:    11 CYCLES
 CYCLE  11   ALPHA  568.284491  EPSILON    2.411260  DELTA   -3.9276E-02
 TTTTTTTTTTTTTTTTTTTTTTTTTTTTTT MOQGAD      TELAPSE   414631.14 TCPU   411596.32
 TTTTTTTTTTTTTTTTTTTTTTTTTTTTTT CP_MONMON   TELAPSE   414648.49 TCPU   411613.62
 DIIS TEST: 0.20022E+01 AT CPHF  CYCLE  12 - DIIS ACTIVE - HISTORY:    12 CYCLES
 CYCLE  12   ALPHA  568.377742  EPSILON    2.411492  DELTA    9.3251E-02
 TTTTTTTTTTTTTTTTTTTTTTTTTTTTTT MOQGAD      TELAPSE   415434.11 TCPU   412396.37
 TTTTTTTTTTTTTTTTTTTTTTTTTTTTTT CP_MONMON   TELAPSE   415451.46 TCPU   412413.67
 DIIS TEST: 0.29905E+00 AT CPHF  CYCLE  13 - DIIS ACTIVE - HISTORY:    13 CYCLES
 CYCLE  13   ALPHA  568.528056  EPSILON    2.411865  DELTA    1.5031E-01
 TTTTTTTTTTTTTTTTTTTTTTTTTTTTTT MOQGAD      TELAPSE   416254.54 TCPU   413213.45
 TTTTTTTTTTTTTTTTTTTTTTTTTTTTTT CP_MONMON   TELAPSE   416271.94 TCPU   413230.78
 DIIS TEST: 0.50094E-01 AT CPHF  CYCLE  14 - DIIS ACTIVE - HISTORY:    14 CYCLES
 CYCLE  14   ALPHA  568.574641  EPSILON    2.411981  DELTA    4.6586E-02
 TTTTTTTTTTTTTTTTTTTTTTTTTTTTTT MOQGAD      TELAPSE   417057.04 TCPU   414007.84
 TTTTTTTTTTTTTTTTTTTTTTTTTTTTTT CP_MONMON   TELAPSE   417074.38 TCPU   414025.13
 DIIS TEST: 0.15012E-01 AT CPHF  CYCLE  15 - DIIS ACTIVE - HISTORY:    15 CYCLES
 CYCLE  15   ALPHA  568.567494  EPSILON    2.411963  DELTA   -7.1471E-03
 TTTTTTTTTTTTTTTTTTTTTTTTTTTTTT MOQGAD      TELAPSE   417859.50 TCPU   414803.35
 TTTTTTTTTTTTTTTTTTTTTTTTTTTTTT CP_MONMON   TELAPSE   417876.85 TCPU   414820.65
 DIIS TEST: 0.13610E-02 AT CPHF  CYCLE  16 - DIIS ACTIVE - HISTORY:    16 CYCLES
 CYCLE  16   ALPHA  568.563852  EPSILON    2.411954  DELTA   -3.6420E-03
 TTTTTTTTTTTTTTTTTTTTTTTTTTTTTT MOQGAD      TELAPSE   418678.57 TCPU   415615.58
 TTTTTTTTTTTTTTTTTTTTTTTTTTTTTT CP_MONMON   TELAPSE   418696.05 TCPU   415633.01
 DIIS TEST: 0.10430E-02 AT CPHF  CYCLE  17 - DIIS ACTIVE - HISTORY:    17 CYCLES
 CYCLE  17   ALPHA  568.563547  EPSILON    2.411953  DELTA   -3.0513E-04
 TTTTTTTTTTTTTTTTTTTTTTTTTTTTTT CP_SC       TELAPSE   418747.53 TCPU   415680.80

 *******************************************************************************

 POLARIZABILITY (ALPHA), DIELECTRIC (EPSILON) AND FIRST-ORDER ELECTRIC
 SUSCEPTIBILITY (CHI(1)) TENSORS (INDEPENDENT COMPONENTS)

  FR.(eV) COMP.   ALPHA(Re,Im)           EPSILON(Re,Im)                CHI(1)
  1.165   XX    1192.0031       0.0000       3.9602       0.0000       2.9602
  1.165   ZZ     568.5635       0.0000       2.4120       0.0000       1.4120

 DIELECTRIC TENSOR

 TENSOR IN PRINCIPAL AXES SYSTEM
 AA  3.960184E+00 BB  3.960184E+00 CC  2.411953E+00

 REFRACTIVE INDICES 
 AA  1.553047E+00 BB  1.990021E+00 CC  1.990021E+00

 OPTICALLY ANISOTROPIC - UNIAXIAL CRYSTAL

 BIREFRINGENCE =  0.4370 (NEGATIVE) - OBLATE OPTICAL ELLIPSOID

 EPSILON=N**2=1+CHI(1)=1+ALPHA*4*PI/V,   4*PI/V=   0.00248 BOHR**(-3)
 ALPHA IN BOHR**3; EPSILON AND CHI(1) ARE DIMENSIONLESS.
 *******************************************************************************


 GCALCO - MAX INDICES DIRECT LATTICE VECTOR    14    14    16
 NO.OF VECTORS CREATED 6999 STARS  486 RMAX   204.19219 BOHR

 CAPPA:IS1  3;IS2  3;IS3  3; K PTS MONK NET   6; SYMMOPS:K SPACE   8;G SPACE   4

 TTTTTTTTTTTTTTTTTTTTTTTTTTTTTT END         TELAPSE   418747.59 TCPU   415680.80
 EEEEEEEEEE TERMINATION  DATE 09 12 2023 TIME 13:57:37.9
NODE    0 CPU TIME =    415680.804
NODE    1 CPU TIME =    416339.950
NODE    2 CPU TIME =    415894.148
NODE    3 CPU TIME =    415643.990
NODE    4 CPU TIME =    416082.742
NODE    5 CPU TIME =    416267.032
NODE    6 CPU TIME =    415959.809
NODE    7 CPU TIME =    415551.935
NODE    8 CPU TIME =    416008.756
NODE    9 CPU TIME =    416298.059
NODE   10 CPU TIME =    415743.720
NODE   11 CPU TIME =    415452.128
NODE   12 CPU TIME =    415899.044
NODE   13 CPU TIME =    416182.789
NODE   14 CPU TIME =    415575.763
NODE   15 CPU TIME =    415330.970
NODE   16 CPU TIME =    415673.453
NODE   17 CPU TIME =    416069.301
NODE   18 CPU TIME =    415514.661
NODE   19 CPU TIME =    415275.774
NODE   20 CPU TIME =    415702.435
NODE   21 CPU TIME =    416020.489
NODE   22 CPU TIME =    415429.604
NODE   23 CPU TIME =    415138.311
    TOTAL CPU TIME =   9978735.665
trying normal rsh (/usr/bin/rsh)
exec: No such file or directory
trying normal rsh (/usr/bin/rsh)
exec: No such file or directory
trying normal rsh (/usr/bin/rsh)
exec: No such file or directory
trying normal rsh (/usr/bin/rsh)
exec: No such file or directory
