Loading crystal17/1.0.2/intel/19.0
  Loading requirement: intel/19.0 ompi/4.0.1/intel/19.0
 PROCESS           10  OF           24  WORKING
 PROCESS           14  OF           24  WORKING
 PROCESS           20  OF           24  WORKING
 PROCESS            0  OF           24  WORKING
 PROCESS            4  OF           24  WORKING
 PROCESS            1  OF           24  WORKING
 PROCESS            3  OF           24  WORKING
 PROCESS            5  OF           24  WORKING
 PROCESS            8  OF           24  WORKING
 PROCESS            9  OF           24  WORKING
 PROCESS           23  OF           24  WORKING
 PROCESS           11  OF           24  WORKING
 PROCESS           12  OF           24  WORKING
 PROCESS           13  OF           24  WORKING
 PROCESS           15  OF           24  WORKING
 PROCESS           17  OF           24  WORKING
 PROCESS           18  OF           24  WORKING
 PROCESS           19  OF           24  WORKING
 PROCESS           21  OF           24  WORKING
 PROCESS           22  OF           24  WORKING
 PROCESS            2  OF           24  WORKING
 PROCESS            6  OF           24  WORKING
 PROCESS            7  OF           24  WORKING
 PROCESS           16  OF           24  WORKING

         
 *******************************************************************************
 *                                                                             *
 *                               CRYSTAL17                                     *
 *                      public : 1.0.2 - March 1st, 2018                       *
 *                       HTTP://WWW.CRYSTAL.UNITO.IT                           *
 *                                                                             *
 *                              MAIN AUTHORS                                   *
 *                                                                             *
 *  R. DOVESI(1,11), V.R. SAUNDERS(2), C. ROETTI(1,11), R. ORLANDO(1,11),      *
 *  C.M. ZICOVICH-WILSON(1,3), F. PASCALE(4), B. CIVALLERI(1,11),              *
 *  K. DOLL(5), N.M. HARRISON(2,6), I.J. BUSH(7), Ph. D'ARCO(8),               *
 *  M. LLUNELL(9), M. CAUSA'(10), Y. NOEL(8), L. MASCHIO(1,11), A. ERBA(1,11)  *
 *  M. RE'RAT(14), S. CASASSA(1,11)                                            *
 *                                                                             *
 *        CONTRIBUTIONS TO THE CODE HAVE ALSO BEEN GIVEN BY                    *
 *                                                                             *
 *  M. FERRABONE(1,11), M. DE LA PIERRE(1,11), M. FERRERO(1,11),               *
 *  J. BAIMA(1,11), E. ALBANESE(1,11), M.F. PEINTINGER(12), R. BAST(13),       *
 *  B. KIRTMAN(15), V. LACIVITA(1,11), R. DEMICHELIS(1,16)                     *
 *  G. BRANDEBURG(17), S. SALUSTRO(1,11), G. SANSONE(1,11)                     *
 *  M.T. RUGGIERO(18)                                                          *
 *                                                                             *
 * (1) THEORETICAL CHEMISTRY GROUP - UNIVERSITA' DI TORINO - TORINO (ITALY)    *
 * (2) COMPUTATIONAL SCIENCE & ENGINEERING DEPARTMENT - STFC DARESBURY (UK)    *
 * (3) UNIVERSIDAD AUTONOMA DEL ESTADO DE MORELOS - CUERNAVACA (MEXICO)        *
 * (4) UNIVERSITE' DE LORRAINE - NANCY (FRANCE)                                *
 * (5) UNIVERSITAET STUTTGART- STUTTGART (GERMANY)                             *
 * (6) IMPERIAL COLLEGE - LONDON (UK)                                          *
 * (7) OXFORD E-RESEARCH CENTRE - OXFORD (UK)                                  *
 * (8) UPMC - SORBONNE UNIVERSITES - PARIS (FRANCE)                            *
 * (9) UNIVERSIDAD DE BARCELONA - BARCELONA (SPAIN)                            *
 *(10) UNIVERSITA' DI NAPOLI "FEDERICO II" - NAPOLI (ITALY)                    *
 *(11) NIS - NANOSTRUCTURED INTERFACES AND SURFACES - TORINO (ITALY)           *
 *(12) MPI FUER CHEMISCHE ENERGIEKONVERSION - MUELHEIM AN DER RUHR (GERMANY)   *
 *(13) UNIVERSITY OF TROMSO - TROMSO (NORWAY)                                  *
 *(14) UNIVERSITE' DE PAU ET DES PAYS DE L'ADOUR - PAU (FRANCE)                *
 *(15) UNIVERSITY OF CALIFORNIA SANTA BARBARA - SANTA BARBARA (USA)            *
 *(16) CURTIN UNIVERSITY - PERTH (AUSTRALIA)                                   *
 *(17) UNIVERSITY COLLEGE LONDON - LONDON (UK)                                 *
 *(18) CAMBRIDGE UNIVERSITY - CAMBRIDGE (UK)                                   *
 *                                                                             *
 *******************************************************************************
 EEEEEEEEEE STARTING  DATE 04 12 2023 TIME 21:21:33.5
 Z:\home\sanoj\Downloads\tmp_p\newconn.mol                                       

 CRYSTAL CALCULATION
 (INPUT ACCORDING TO THE INTERNATIONAL TABLES FOR X-RAY CRYSTALLOGRAPHY)
 CRYSTAL FAMILY                       :  TETRAGONAL  
 CRYSTAL CLASS  (GROTH - 1921)        :  TETRAGONAL DISPHENOIDAL              

 SPACE GROUP (NONCENTROSYMMETRIC)     :  I -4            

 LATTICE PARAMETERS  (ANGSTROMS AND DEGREES) - CONVENTIONAL CELL
        A           B           C        ALPHA        BETA       GAMMA
    10.63546    10.63546    14.04419    90.00000    90.00000    90.00000


 NUMBER OF IRREDUCIBLE ATOMS IN THE CONVENTIONAL CELL:   17

 INPUT COORDINATES

 ATOM AT. N.              COORDINATES
   1   1     8.260000000000E-02  7.153200000000E-01  3.532300000000E-01
   2   1     3.842800000000E-01  4.429100000000E-01  3.876900000000E-01
   3   6     2.688700000000E-01  7.878200000000E-01  3.848900000000E-01
   4   6     2.418400000000E-01 -7.802000000000E-02  3.693800000000E-01
   5   6     1.804500000000E-01  6.915500000000E-01  3.679800000000E-01
   6   6     3.484400000000E-01  5.391600000000E-01  3.872400000000E-01
   7   6     3.923600000000E-01  7.484600000000E-01  4.058200000000E-01
   8   6     7.769000000000E-01  4.333300000000E-01  3.674300000000E-01
   9   7     3.112000000000E-01 -3.690000000000E-03  3.099500000000E-01
  10   7     2.535700000000E-01  1.119800000000E-01  3.090500000000E-01
  11   7     1.452600000000E-01 -9.430000000000E-03  4.054000000000E-01
  12   7     1.546000000000E-01  1.092300000000E-01  3.654900000000E-01
  13   7     4.306300000000E-01  6.304200000000E-01  4.079300000000E-01
  14  17     5.094800000000E-01  8.581300000000E-01  4.282200000000E-01
  15  17     1.328600000000E-01  4.344700000000E-01  3.427900000000E-01
  16  30     0.000000000000E+00  5.000000000000E-01  7.500000000000E-01
  17  30     0.000000000000E+00  0.000000000000E+00  5.000000000000E-01

 *******************************************************************************

 << INFORMATION >>: FROM NOW ON, ALL COORDINATES REFER TO THE PRIMITIVE CELL

 *******************************************************************************

 LATTICE PARAMETERS  (ANGSTROMS AND DEGREES) - PRIMITIVE CELL
       A          B          C        ALPHA      BETA     GAMMA        VOLUME
   10.28914   10.28914   10.28914   117.76036 117.76036  93.92502    794.289899

 COORDINATES OF THE EQUIVALENT ATOMS (FRACTIONAL UNITS)

 N. ATOM EQUIV AT. N.          X                  Y                  Z

   1   1   1    1 H     6.85500000000E-02  4.35830000000E-01 -2.02080000000E-01
   2   1   2    1 H    -3.62090000000E-01  2.70630000000E-01  2.02080000000E-01
   3   1   3    1 H    -4.35830000000E-01  3.62090000000E-01 -3.67280000000E-01
   4   1   4    1 H    -2.70630000000E-01 -6.85500000000E-02  3.67280000000E-01

   5   2   1    1 H    -1.69400000000E-01 -2.28030000000E-01 -1.72810000000E-01
   6   2   2    1 H    -5.52200000000E-02  3.41000000000E-03  1.72810000000E-01
   7   2   3    1 H     2.28030000000E-01  5.52200000000E-02  5.86300000000E-02
   8   2   4    1 H    -3.41000000000E-03  1.69400000000E-01 -5.86300000000E-02

   9   3   1    6 C     1.72710000000E-01 -3.46240000000E-01  5.66900000000E-02
  10   3   2    6 C    -4.02930000000E-01  1.16020000000E-01 -5.66900000000E-02
  11   3   3    6 C     3.46240000000E-01  4.02930000000E-01 -4.81050000000E-01
  12   3   4    6 C    -1.16020000000E-01 -1.72710000000E-01  4.81050000000E-01

  13   4   1    6 C     2.91360000000E-01 -3.88780000000E-01  1.63820000000E-01
  14   4   2    6 C     4.47400000000E-01  1.27540000000E-01 -1.63820000000E-01
  15   4   3    6 C     3.88780000000E-01 -4.47400000000E-01 -3.19860000000E-01
  16   4   4    6 C    -1.27540000000E-01 -2.91360000000E-01  3.19860000000E-01

  17   5   1    6 C     5.95300000000E-02 -4.51570000000E-01 -1.28000000000E-01
  18   5   2    6 C    -3.23570000000E-01  1.87530000000E-01  1.28000000000E-01
  19   5   3    6 C     4.51570000000E-01  3.23570000000E-01 -4.88900000000E-01
  20   5   4    6 C    -1.87530000000E-01 -5.95300000000E-02  4.88900000000E-01

  21   6   1    6 C    -7.36000000000E-02 -2.64320000000E-01 -1.12400000000E-01
  22   6   2    6 C    -1.51920000000E-01  3.88000000000E-02  1.12400000000E-01
  23   6   3    6 C     2.64320000000E-01  1.51920000000E-01  1.90720000000E-01
  24   6   4    6 C    -3.88000000000E-02  7.36000000000E-02 -1.90720000000E-01

  25   7   1    6 C     1.54280000000E-01 -2.01820000000E-01  1.40820000000E-01
  26   7   2    6 C    -3.42640000000E-01  1.34600000000E-02 -1.40820000000E-01
  27   7   3    6 C     2.01820000000E-01  3.42640000000E-01  3.56100000000E-01
  28   7   4    6 C    -1.34600000000E-02 -1.54280000000E-01 -3.56100000000E-01

  29   8   1    6 C    -1.99240000000E-01  1.44330000000E-01  2.10230000000E-01
  30   8   2    6 C    -6.59000000000E-02 -4.09470000000E-01 -2.10230000000E-01
  31   8   3    6 C    -1.44330000000E-01  6.59000000000E-02 -3.43570000000E-01
  32   8   4    6 C     4.09470000000E-01  1.99240000000E-01  3.43570000000E-01

  33   9   1    7 N     3.06260000000E-01 -3.78850000000E-01  3.07510000000E-01
  34   9   2    7 N     3.13640000000E-01 -1.25000000000E-03 -3.07510000000E-01
  35   9   3    7 N     3.78850000000E-01 -3.13640000000E-01 -3.14890000000E-01
  36   9   4    7 N     1.25000000000E-03 -3.06260000000E-01  3.14890000000E-01

  37  10   1    7 N     4.21030000000E-01 -4.37380000000E-01  3.65550000000E-01
  38  10   2    7 N     1.97070000000E-01  5.54800000000E-02 -3.65550000000E-01
  39  10   3    7 N     4.37380000000E-01 -1.97070000000E-01 -1.41590000000E-01
  40  10   4    7 N    -5.54800000000E-02 -4.21030000000E-01  1.41590000000E-01

  41  11   1    7 N     3.95970000000E-01 -4.49340000000E-01  1.35830000000E-01
  42  11   2    7 N     4.14830000000E-01  2.60140000000E-01 -1.35830000000E-01
  43  11   3    7 N     4.49340000000E-01 -4.14830000000E-01 -1.54690000000E-01
  44  11   4    7 N    -2.60140000000E-01 -3.95970000000E-01  1.54690000000E-01

  45  12   1    7 N     4.74720000000E-01 -4.79910000000E-01  2.63830000000E-01
  46  12   2    7 N     2.56260000000E-01  2.10890000000E-01 -2.63830000000E-01
  47  12   3    7 N     4.79910000000E-01 -2.56260000000E-01 -4.53700000000E-02
  48  12   4    7 N    -2.10890000000E-01 -4.74720000000E-01  4.53700000000E-02

  49  13   1    7 N     3.83500000000E-02 -1.61440000000E-01  6.10500000000E-02
  50  13   2    7 N    -2.22490000000E-01 -2.27000000000E-02 -6.10500000000E-02
  51  13   3    7 N     1.61440000000E-01  2.22490000000E-01  1.99790000000E-01
  52  13   4    7 N     2.27000000000E-02 -3.83500000000E-02 -1.99790000000E-01

  53  14   1   17 CL    2.86350000000E-01 -6.23000000000E-02  3.67610000000E-01
  54  14   2   17 CL   -4.29910000000E-01 -8.12600000000E-02 -3.67610000000E-01
  55  14   3   17 CL    6.23000000000E-02  4.29910000000E-01  3.48650000000E-01
  56  14   4   17 CL    8.12600000000E-02 -2.86350000000E-01 -3.48650000000E-01

  57  15   1   17 CL   -2.22740000000E-01  4.75650000000E-01 -4.32670000000E-01
  58  15   2   17 CL   -9.16800000000E-02  2.09930000000E-01  4.32670000000E-01
  59  15   3   17 CL   -4.75650000000E-01  9.16800000000E-02  3.01610000000E-01
  60  15   4   17 CL   -2.09930000000E-01  2.22740000000E-01 -3.01610000000E-01

  61  16   1   30 ZN    2.50000000000E-01 -2.50000000000E-01 -5.00000000000E-01

  62  17   1   30 ZN   -5.00000000000E-01 -5.00000000000E-01  0.00000000000E+00

 NUMBER OF SYMMETRY OPERATORS         :    4
 *******************************************************************************
 * GEOMETRY EDITING - INPUT COORDINATES ARE GIVEN IN ANGSTROM         
 *******************************************************************************

 GEOMETRY NOW FULLY CONSISTENT WITH THE GROUP

 GCALCO - MAX INDICES DIRECT LATTICE VECTOR    14    14    16
 NO.OF VECTORS CREATED 6999 STARS  481 RMAX   207.87203 BOHR

 GEOMETRY FOR WAVE FUNCTION - DIMENSIONALITY OF THE SYSTEM    3
 (NON PERIODIC DIRECTION: LATTICE PARAMETER FORMALLY SET TO 500)
 *******************************************************************************
 LATTICE PARAMETERS (ANGSTROMS AND DEGREES) - BOHR = 0.5291772083 ANGSTROM
 PRIMITIVE CELL - CENTRING CODE 6/0 VOLUME=   794.289899 - DENSITY  2.057 g/cm^3
         A              B              C           ALPHA      BETA       GAMMA 
    10.28913501    10.28913501    10.28913501   117.760362 117.760362  93.925015
 *******************************************************************************
 ATOMS IN THE ASYMMETRIC UNIT   17 - ATOMS IN THE UNIT CELL:   62
     ATOM                 X/A                 Y/B                 Z/C    
 *******************************************************************************
      1 T   1 H     6.855000000000E-02  4.358300000000E-01 -2.020800000000E-01
      2 F   1 H    -3.620900000000E-01  2.706300000000E-01  2.020800000000E-01
      3 F   1 H    -4.358300000000E-01  3.620900000000E-01 -3.672800000000E-01
      4 F   1 H    -2.706300000000E-01 -6.855000000000E-02  3.672800000000E-01
      5 T   1 H    -1.694000000000E-01 -2.280300000000E-01 -1.728100000000E-01
      6 F   1 H    -5.522000000000E-02  3.410000000000E-03  1.728100000000E-01
      7 F   1 H     2.280300000000E-01  5.522000000000E-02  5.863000000000E-02
      8 F   1 H    -3.410000000000E-03  1.694000000000E-01 -5.863000000000E-02
      9 T   6 C     1.727100000000E-01 -3.462400000000E-01  5.669000000000E-02
     10 F   6 C    -4.029300000000E-01  1.160200000000E-01 -5.669000000000E-02
     11 F   6 C     3.462400000000E-01  4.029300000000E-01 -4.810500000000E-01
     12 F   6 C    -1.160200000000E-01 -1.727100000000E-01  4.810500000000E-01
     13 T   6 C     2.913600000000E-01 -3.887800000000E-01  1.638200000000E-01
     14 F   6 C     4.474000000000E-01  1.275400000000E-01 -1.638200000000E-01
     15 F   6 C     3.887800000000E-01 -4.474000000000E-01 -3.198600000000E-01
     16 F   6 C    -1.275400000000E-01 -2.913600000000E-01  3.198600000000E-01
     17 T   6 C     5.953000000000E-02 -4.515700000000E-01 -1.280000000000E-01
     18 F   6 C    -3.235700000000E-01  1.875300000000E-01  1.280000000000E-01
     19 F   6 C     4.515700000000E-01  3.235700000000E-01 -4.889000000000E-01
     20 F   6 C    -1.875300000000E-01 -5.953000000000E-02  4.889000000000E-01
     21 T   6 C    -7.360000000000E-02 -2.643200000000E-01 -1.124000000000E-01
     22 F   6 C    -1.519200000000E-01  3.880000000000E-02  1.124000000000E-01
     23 F   6 C     2.643200000000E-01  1.519200000000E-01  1.907200000000E-01
     24 F   6 C    -3.880000000000E-02  7.360000000000E-02 -1.907200000000E-01
     25 T   6 C     1.542800000000E-01 -2.018200000000E-01  1.408200000000E-01
     26 F   6 C    -3.426400000000E-01  1.346000000000E-02 -1.408200000000E-01
     27 F   6 C     2.018200000000E-01  3.426400000000E-01  3.561000000000E-01
     28 F   6 C    -1.346000000000E-02 -1.542800000000E-01 -3.561000000000E-01
     29 T   6 C    -1.992400000000E-01  1.443300000000E-01  2.102300000000E-01
     30 F   6 C    -6.590000000000E-02 -4.094700000000E-01 -2.102300000000E-01
     31 F   6 C    -1.443300000000E-01  6.590000000000E-02 -3.435700000000E-01
     32 F   6 C     4.094700000000E-01  1.992400000000E-01  3.435700000000E-01
     33 T   7 N     3.062600000000E-01 -3.788500000000E-01  3.075100000000E-01
     34 F   7 N     3.136400000000E-01 -1.250000000000E-03 -3.075100000000E-01
     35 F   7 N     3.788500000000E-01 -3.136400000000E-01 -3.148900000000E-01
     36 F   7 N     1.250000000000E-03 -3.062600000000E-01  3.148900000000E-01
     37 T   7 N     4.210300000000E-01 -4.373800000000E-01  3.655500000000E-01
     38 F   7 N     1.970700000000E-01  5.548000000000E-02 -3.655500000000E-01
     39 F   7 N     4.373800000000E-01 -1.970700000000E-01 -1.415900000000E-01
     40 F   7 N    -5.548000000000E-02 -4.210300000000E-01  1.415900000000E-01
     41 T   7 N     3.959700000000E-01 -4.493400000000E-01  1.358300000000E-01
     42 F   7 N     4.148300000000E-01  2.601400000000E-01 -1.358300000000E-01
     43 F   7 N     4.493400000000E-01 -4.148300000000E-01 -1.546900000000E-01
     44 F   7 N    -2.601400000000E-01 -3.959700000000E-01  1.546900000000E-01
     45 T   7 N     4.747200000000E-01 -4.799100000000E-01  2.638300000000E-01
     46 F   7 N     2.562600000000E-01  2.108900000000E-01 -2.638300000000E-01
     47 F   7 N     4.799100000000E-01 -2.562600000000E-01 -4.537000000000E-02
     48 F   7 N    -2.108900000000E-01 -4.747200000000E-01  4.537000000000E-02
     49 T   7 N     3.835000000000E-02 -1.614400000000E-01  6.105000000000E-02
     50 F   7 N    -2.224900000000E-01 -2.270000000000E-02 -6.105000000000E-02
     51 F   7 N     1.614400000000E-01  2.224900000000E-01  1.997900000000E-01
     52 F   7 N     2.270000000000E-02 -3.835000000000E-02 -1.997900000000E-01
     53 T  17 CL    2.863500000000E-01 -6.230000000000E-02  3.676100000000E-01
     54 F  17 CL   -4.299100000000E-01 -8.126000000000E-02 -3.676100000000E-01
     55 F  17 CL    6.230000000000E-02  4.299100000000E-01  3.486500000000E-01
     56 F  17 CL    8.126000000000E-02 -2.863500000000E-01 -3.486500000000E-01
     57 T  17 CL   -2.227400000000E-01  4.756500000000E-01 -4.326700000000E-01
     58 F  17 CL   -9.168000000000E-02  2.099300000000E-01  4.326700000000E-01
     59 F  17 CL   -4.756500000000E-01  9.168000000000E-02  3.016100000000E-01
     60 F  17 CL   -2.099300000000E-01  2.227400000000E-01 -3.016100000000E-01
     61 T  30 ZN    2.500000000000E-01 -2.500000000000E-01 -5.000000000000E-01
     62 T  30 ZN    5.000000000000E-01 -5.000000000000E-01  0.000000000000E+00

 TRANSFORMATION MATRIX PRIMITIVE-CRYSTALLOGRAPHIC CELL
  0.0000  1.0000  1.0000  1.0000  0.0000  1.0000  1.0000  1.0000  0.0000

 *******************************************************************************
 CRYSTALLOGRAPHIC CELL (VOLUME=       1588.57979811)
         A              B              C           ALPHA      BETA       GAMMA 
    10.63545672    10.63545672    14.04419162    90.000000  90.000000  90.000000

 COORDINATES IN THE CRYSTALLOGRAPHIC CELL
     ATOM                 X/A                 Y/B                 Z/C    
 *******************************************************************************
      1 T   1 H    -4.174000000000E-01  2.153200000000E-01 -1.467700000000E-01
      2 F   1 H     4.174000000000E-01 -2.153200000000E-01 -1.467700000000E-01
      3 F   1 H     2.153200000000E-01  4.174000000000E-01  1.467700000000E-01
      4 F   1 H    -2.153200000000E-01 -4.174000000000E-01  1.467700000000E-01
      5 T   1 H    -1.157200000000E-01 -5.709000000000E-02 -1.123100000000E-01
      6 F   1 H     1.157200000000E-01  5.709000000000E-02 -1.123100000000E-01
      7 F   1 H    -5.709000000000E-02  1.157200000000E-01  1.123100000000E-01
      8 F   1 H     5.709000000000E-02 -1.157200000000E-01  1.123100000000E-01
      9 T   6 C    -2.311300000000E-01  2.878200000000E-01 -1.151100000000E-01
     10 F   6 C     2.311300000000E-01 -2.878200000000E-01 -1.151100000000E-01
     11 F   6 C     2.878200000000E-01  2.311300000000E-01  1.151100000000E-01
     12 F   6 C    -2.878200000000E-01 -2.311300000000E-01  1.151100000000E-01
     13 T   6 C    -2.581600000000E-01  4.219800000000E-01 -1.306200000000E-01
     14 F   6 C     2.581600000000E-01 -4.219800000000E-01 -1.306200000000E-01
     15 F   6 C     4.219800000000E-01  2.581600000000E-01  1.306200000000E-01
     16 F   6 C    -4.219800000000E-01 -2.581600000000E-01  1.306200000000E-01
     17 T   6 C    -3.195500000000E-01  1.915500000000E-01 -1.320200000000E-01
     18 F   6 C     3.195500000000E-01 -1.915500000000E-01 -1.320200000000E-01
     19 F   6 C     1.915500000000E-01  3.195500000000E-01  1.320200000000E-01
     20 F   6 C    -1.915500000000E-01 -3.195500000000E-01  1.320200000000E-01
     21 T   6 C    -1.515600000000E-01  3.916000000000E-02 -1.127600000000E-01
     22 F   6 C     1.515600000000E-01 -3.916000000000E-02 -1.127600000000E-01
     23 F   6 C     3.916000000000E-02  1.515600000000E-01  1.127600000000E-01
     24 F   6 C    -3.916000000000E-02 -1.515600000000E-01  1.127600000000E-01
     25 T   6 C    -1.076400000000E-01  2.484600000000E-01 -9.418000000000E-02
     26 F   6 C     1.076400000000E-01 -2.484600000000E-01 -9.418000000000E-02
     27 F   6 C     2.484600000000E-01  1.076400000000E-01  9.418000000000E-02
     28 F   6 C    -2.484600000000E-01 -1.076400000000E-01  9.418000000000E-02
     29 T   6 C     2.769000000000E-01 -6.667000000000E-02 -1.325700000000E-01
     30 F   6 C    -2.769000000000E-01  6.667000000000E-02 -1.325700000000E-01
     31 F   6 C    -6.667000000000E-02 -2.769000000000E-01  1.325700000000E-01
     32 F   6 C     6.667000000000E-02  2.769000000000E-01  1.325700000000E-01
     33 T   7 N     3.112000000000E-01 -3.690000000000E-03  3.099500000000E-01
     34 F   7 N    -3.112000000000E-01  3.690000000000E-03  3.099500000000E-01
     35 F   7 N    -3.690000000000E-03 -3.112000000000E-01 -3.099500000000E-01
     36 F   7 N     3.690000000000E-03  3.112000000000E-01 -3.099500000000E-01
     37 T   7 N     2.535700000000E-01  1.119800000000E-01  3.090500000000E-01
     38 F   7 N    -2.535700000000E-01 -1.119800000000E-01  3.090500000000E-01
     39 F   7 N     1.119800000000E-01 -2.535700000000E-01 -3.090500000000E-01
     40 F   7 N    -1.119800000000E-01  2.535700000000E-01 -3.090500000000E-01
     41 T   7 N     1.452600000000E-01 -9.430000000000E-03  4.054000000000E-01
     42 F   7 N    -1.452600000000E-01  9.430000000000E-03  4.054000000000E-01
     43 F   7 N    -9.430000000000E-03 -1.452600000000E-01 -4.054000000000E-01
     44 F   7 N     9.430000000000E-03  1.452600000000E-01 -4.054000000000E-01
     45 T   7 N     1.546000000000E-01  1.092300000000E-01  3.654900000000E-01
     46 F   7 N    -1.546000000000E-01 -1.092300000000E-01  3.654900000000E-01
     47 F   7 N     1.092300000000E-01 -1.546000000000E-01 -3.654900000000E-01
     48 F   7 N    -1.092300000000E-01  1.546000000000E-01 -3.654900000000E-01
     49 T   7 N    -6.937000000000E-02  1.304200000000E-01 -9.207000000000E-02
     50 F   7 N     6.937000000000E-02 -1.304200000000E-01 -9.207000000000E-02
     51 F   7 N     1.304200000000E-01  6.937000000000E-02  9.207000000000E-02
     52 F   7 N    -1.304200000000E-01 -6.937000000000E-02  9.207000000000E-02
     53 T  17 CL    9.480000000000E-03  3.581300000000E-01 -7.178000000000E-02
     54 F  17 CL   -9.480000000000E-03 -3.581300000000E-01 -7.178000000000E-02
     55 F  17 CL    3.581300000000E-01 -9.480000000000E-03  7.178000000000E-02
     56 F  17 CL   -3.581300000000E-01  9.480000000000E-03  7.178000000000E-02
     57 T  17 CL   -3.671400000000E-01 -6.553000000000E-02 -1.572100000000E-01
     58 F  17 CL    3.671400000000E-01  6.553000000000E-02 -1.572100000000E-01
     59 F  17 CL   -6.553000000000E-02  3.671400000000E-01  1.572100000000E-01
     60 F  17 CL    6.553000000000E-02 -3.671400000000E-01  1.572100000000E-01
     61 T  30 ZN    5.000000000000E-01  4.419215733230E-17  2.500000000000E-01
     62 T  30 ZN    0.000000000000E+00  0.000000000000E+00 -5.000000000000E-01

 T = ATOM BELONGING TO THE ASYMMETRIC UNIT

 ****    4 SYMMOPS - TRANSLATORS IN FRACTIONAL UNITS
 **** MATRICES AND TRANSLATORS IN THE CRYSTALLOGRAPHIC REFERENCE FRAME
   V INV                    ROTATION MATRICES                   TRANSLATORS
   1   1  1.00  0.00  0.00  0.00  1.00  0.00  0.00  0.00  1.00  0.00  0.00  0.00
   2   2 -0.00  1.00 -1.00  1.00 -0.00 -1.00  0.00  0.00 -1.00  0.00  0.00  0.00
   3   4  0.00 -1.00 -0.00  0.00 -1.00  1.00  1.00 -1.00  0.00  0.00  0.00  0.00
   4   3 -1.00  0.00  1.00 -1.00  0.00 -0.00 -1.00  1.00  0.00  0.00  0.00  0.00

 DIRECT LATTICE VECTORS CARTESIAN COMPONENTS (ANGSTROM)
          X                    Y                    Z
  -0.531772835930E+01   0.531772835930E+01   0.702209580770E+01
   0.531772835930E+01  -0.531772835930E+01   0.702209580770E+01
   0.531772835930E+01   0.531772835930E+01  -0.702209580770E+01


 CARTESIAN COORDINATES - PRIMITIVE CELL
 *******************************************************************************
 *      ATOM          X(ANGSTROM)         Y(ANGSTROM)         Z(ANGSTROM)
 *******************************************************************************
    1     1 H    -4.439239634344E+00  2.290026540649E+00 -2.061266003392E+00
    2     1 H     4.439239634344E+00 -2.290026540649E+00 -2.061266003392E+00
    3     1 H     2.290026540649E+00  4.439239634344E+00  2.061266003392E+00
    4     1 H    -2.290026540649E+00 -4.439239634344E+00  2.061266003392E+00
    5     1 H    -1.230735051476E+00 -6.071782240649E-01 -1.577303160326E+00
    6     1 H     1.230735051476E+00  6.071782240649E-01 -1.577303160326E+00
    7     1 H    -6.071782240649E-01  1.230735051476E+00  1.577303160326E+00
    8     1 H     6.071782240649E-01 -1.230735051476E+00  1.577303160326E+00
    9     6 C    -2.458173111370E+00  3.061097152747E+00 -1.616626896849E+00
   10     6 C     2.458173111370E+00 -3.061097152747E+00 -1.616626896849E+00
   11     6 C     3.061097152747E+00  2.458173111370E+00  1.616626896849E+00
   12     6 C    -3.061097152747E+00 -2.458173111370E+00  1.616626896849E+00
   13     6 C    -2.745649506474E+00  4.487950026115E+00 -1.834452308804E+00
   14     6 C     2.745649506474E+00 -4.487950026115E+00 -1.834452308804E+00
   15     6 C     4.487950026115E+00  2.745649506474E+00  1.834452308804E+00
   16     6 C    -4.487950026115E+00 -2.745649506474E+00  1.834452308804E+00
   17     6 C    -3.398560194429E+00  2.037221734448E+00 -1.854114177065E+00
   18     6 C     3.398560194429E+00 -2.037221734448E+00 -1.854114177065E+00
   19     6 C     2.037221734448E+00  3.398560194429E+00  1.854114177065E+00
   20     6 C    -2.037221734448E+00 -3.398560194429E+00  1.854114177065E+00
   21     6 C    -1.611909820271E+00  4.164844851004E-01 -1.583623046553E+00
   22     6 C     1.611909820271E+00 -4.164844851004E-01 -1.583623046553E+00
   23     6 C     4.164844851004E-01  1.611909820271E+00  1.583623046553E+00
   24     6 C    -4.164844851004E-01 -1.611909820271E+00  1.583623046553E+00
   25     6 C    -1.144800561190E+00  2.642485576303E+00 -1.322681966338E+00
   26     6 C     1.144800561190E+00 -2.642485576303E+00 -1.322681966338E+00
   27     6 C     2.642485576303E+00  1.144800561190E+00  1.322681966338E+00
   28     6 C    -2.642485576303E+00 -1.144800561190E+00  1.322681966338E+00
   29     6 C     2.944957965380E+00 -7.090658994291E-01 -1.861838482454E+00
   30     6 C    -2.944957965380E+00  7.090658994291E-01 -1.861838482454E+00
   31     6 C    -7.090658994291E-01 -2.944957965380E+00  1.861838482454E+00
   32     6 C     7.090658994291E-01  2.944957965380E+00  1.861838482454E+00
   33     7 N     3.309754130828E+00 -3.924483529163E-02  4.352997191193E+00
   34     7 N    -3.309754130828E+00  3.924483529163E-02  4.352997191193E+00
   35     7 N    -3.924483529164E-02 -3.309754130828E+00 -4.352997191193E+00
   36     7 N     3.924483529163E-02  3.309754130828E+00 -4.352997191193E+00
   37     7 N     2.696832760135E+00  1.190958443349E+00  4.340357418739E+00
   38     7 N    -2.696832760135E+00 -1.190958443349E+00  4.340357418739E+00
   39     7 N     1.190958443349E+00 -2.696832760135E+00 -4.340357418739E+00
   40     7 N    -1.190958443349E+00  2.696832760135E+00 -4.340357418739E+00
   41     7 N     1.544906442944E+00 -1.002923568564E-01  5.693515280883E+00
   42     7 N    -1.544906442944E+00  1.002923568564E-01  5.693515280883E+00
   43     7 N    -1.002923568564E-01 -1.544906442944E+00 -5.693515280883E+00
   44     7 N     1.002923568564E-01  1.544906442944E+00 -5.693515280883E+00
   45     7 N     1.644241608696E+00  1.161710937373E+00  5.133011593513E+00
   46     7 N    -1.644241608696E+00 -1.161710937373E+00  5.133011593513E+00
   47     7 N     1.161710937373E+00 -1.644241608696E+00 -5.133011593513E+00
   48     7 N    -1.161710937373E+00  1.644241608696E+00 -5.133011593513E+00
   49     7 N    -7.377816325693E-01  1.387076265240E+00 -1.293048722030E+00
   50     7 N     7.377816325693E-01 -1.387076265240E+00 -1.293048722030E+00
   51     7 N     1.387076265240E+00  7.377816325693E-01  1.293048722030E+00
   52     7 N    -1.387076265240E+00 -7.377816325693E-01  1.293048722030E+00
   53    17 CL    1.008241296923E-01  3.808876114632E+00 -1.008092074153E+00
   54    17 CL   -1.008241296923E-01 -3.808876114632E+00 -1.008092074153E+00
   55    17 CL    3.808876114632E+00 -1.008241296923E-01  1.008092074153E+00
   56    17 CL   -3.808876114632E+00  1.008241296923E-01  1.008092074153E+00
   57    17 CL   -3.904701579667E+00 -6.969414787699E-01 -2.207887363857E+00
   58    17 CL    3.904701579667E+00  6.969414787699E-01 -2.207887363857E+00
   59    17 CL   -6.969414787699E-01  3.904701579667E+00  2.207887363857E+00
   60    17 CL    6.969414787699E-01 -3.904701579667E+00  2.207887363857E+00
   61    30 ZN    5.317728359300E+00  4.700037766092E-16 -1.053314371155E+01
   62    30 ZN    0.000000000000E+00  0.000000000000E+00  7.022095807700E+00

 *******************************************************************************
 STARTING BASIS SET HANDLING 
 *******************************************************************************

 Loading internal basis set: POB-DZVPP           

 Please cite in your publication:
 Peintinger, M. F., Oliveira, D. V. and Bredow, T. (2013), Generally applicable 
 solid-state Gaussian basis sets, in preparation                                
                                                                                
                    

 *******************************************************************************
 LOCAL ATOMIC FUNCTIONS BASIS SET
 *******************************************************************************
   ATOM   X(AU)   Y(AU)   Z(AU)  N. TYPE  EXPONENT  S COEF   P COEF   D/F/G COEF
 *******************************************************************************
   1 H   -8.389   4.328  -3.895
                                  1 S  
                                         2.263E+01 1.441E-02 0.000E+00 0.000E+00
                                         3.236E+00 1.072E-01 0.000E+00 0.000E+00
                                         7.304E-01 3.846E-01 0.000E+00 0.000E+00
                                  2 S  
                                         1.417E-01 1.000E+00 0.000E+00 0.000E+00
                           3-     5 P  
                                         3.944E-01 0.000E+00 1.000E+00 0.000E+00
                           6-     8 P  
                                         1.006E-01 0.000E+00 1.000E+00 0.000E+00
   2 H    8.389  -4.328  -3.895
   3 H    4.328   8.389   3.895
   4 H   -4.328  -8.389   3.895
   5 H   -2.326  -1.147  -2.981
   6 H    2.326   1.147  -2.981
   7 H   -1.147   2.326   2.981
   8 H    1.147  -2.326   2.981
   9 C   -4.645   5.785  -3.055
                                 65 S  
                                         1.238E+03 5.457E-03 0.000E+00 0.000E+00
                                         1.863E+02 4.064E-02 0.000E+00 0.000E+00
                                         4.225E+01 1.803E-01 0.000E+00 0.000E+00
                                         1.168E+01 4.632E-01 0.000E+00 0.000E+00
                                         3.593E+00 4.409E-01 0.000E+00 0.000E+00
                                 66 S  
                                         5.281E+00 1.000E+00 0.000E+00 0.000E+00
                                 67 S  
                                         4.447E-01 1.000E+00 0.000E+00 0.000E+00
                          68-    70 P  
                                         9.468E+00 0.000E+00 3.839E-02 0.000E+00
                                         2.010E+00 0.000E+00 2.112E-01 0.000E+00
                                         5.477E-01 0.000E+00 5.133E-01 0.000E+00
                          71-    73 P  
                                         1.604E-01 0.000E+00 1.000E+00 0.000E+00
                          74-    78 D  
                                         6.070E-01 0.000E+00 0.000E+00 1.000E+00
                          79-    83 D  
                                         2.939E-01 0.000E+00 0.000E+00 1.000E+00
  10 C    4.645  -5.785  -3.055
  11 C    5.785   4.645   3.055
  12 C   -5.785  -4.645   3.055
  13 C   -5.189   8.481  -3.467
  14 C    5.189  -8.481  -3.467
  15 C    8.481   5.189   3.467
  16 C   -8.481  -5.189   3.467
  17 C   -6.422   3.850  -3.504
  18 C    6.422  -3.850  -3.504
  19 C    3.850   6.422   3.504
  20 C   -3.850  -6.422   3.504
  21 C   -3.046   0.787  -2.993
  22 C    3.046  -0.787  -2.993
  23 C    0.787   3.046   2.993
  24 C   -0.787  -3.046   2.993
  25 C   -2.163   4.994  -2.500
  26 C    2.163  -4.994  -2.500
  27 C    4.994   2.163   2.500
  28 C   -4.994  -2.163   2.500
  29 C    5.565  -1.340  -3.518
  30 C   -5.565   1.340  -3.518
  31 C   -1.340  -5.565   3.518
  32 C    1.340   5.565   3.518
  33 N    6.255  -0.074   8.226
                                521 S  
                                         1.713E+03-5.393E-03 0.000E+00 0.000E+00
                                         2.576E+02-4.022E-02 0.000E+00 0.000E+00
                                         5.846E+01-1.793E-01 0.000E+00 0.000E+00
                                         1.620E+01-4.638E-01 0.000E+00 0.000E+00
                                         5.005E+00-4.417E-01 0.000E+00 0.000E+00
                                522 S  
                                         6.217E-01 1.000E+00 0.000E+00 0.000E+00
                                523 S  
                                         2.921E-01 1.000E+00 0.000E+00 0.000E+00
                         524-   526 P  
                                         1.357E+01 0.000E+00-4.007E-02 0.000E+00
                                         2.926E+00 0.000E+00-2.181E-01 0.000E+00
                                         7.993E-01 0.000E+00-5.129E-01 0.000E+00
                         527-   529 P  
                                         2.244E-01 0.000E+00 1.000E+00 0.000E+00
                         530-   534 D  
                                         3.118E-01 0.000E+00 0.000E+00 1.000E+00
  34 N   -6.255   0.074   8.226
  35 N   -0.074  -6.255  -8.226
  36 N    0.074   6.255  -8.226
  37 N    5.096   2.251   8.202
  38 N   -5.096  -2.251   8.202
  39 N    2.251  -5.096  -8.202
  40 N   -2.251   5.096  -8.202
  41 N    2.919  -0.190  10.759
  42 N   -2.919   0.190  10.759
  43 N   -0.190  -2.919 -10.759
  44 N    0.190   2.919 -10.759
  45 N    3.107   2.195   9.700
  46 N   -3.107  -2.195   9.700
  47 N    2.195  -3.107  -9.700
  48 N   -2.195   3.107  -9.700
  49 N   -1.394   2.621  -2.444
  50 N    1.394  -2.621  -2.444
  51 N    2.621   1.394   2.444
  52 N   -2.621  -1.394   2.444
  53 CL   0.191   7.198  -1.905
                                801 S  
                                         1.045E+04 1.971E-03 0.000E+00 0.000E+00
                                         1.572E+03 1.475E-02 0.000E+00 0.000E+00
                                         3.571E+02 6.668E-02 0.000E+00 0.000E+00
                                         1.003E+02 1.723E-01 0.000E+00 0.000E+00
                                         3.081E+01 1.588E-01 0.000E+00 0.000E+00
                                802 S  
                                         5.192E+01-1.001E-01 0.000E+00 0.000E+00
                                         5.705E+00 6.084E-01 0.000E+00 0.000E+00
                                         2.351E+00 5.435E-01 0.000E+00 0.000E+00
                                803 S  
                                         4.886E-01 1.000E+00 0.000E+00 0.000E+00
                                804 S  
                                         1.984E-01 1.000E+00 0.000E+00 0.000E+00
                         805-   807 P  
                                         3.077E+02 0.000E+00-8.780E-03 0.000E+00
                                         7.210E+01 0.000E+00-6.356E-02 0.000E+00
                                         2.253E+01 0.000E+00-2.402E-01 0.000E+00
                                         7.899E+00 0.000E+00-4.780E-01 0.000E+00
                                         2.877E+00 0.000E+00-3.852E-01 0.000E+00
                         808-   810 P  
                                         9.483E-01 0.000E+00 1.000E+00 0.000E+00
                         811-   813 P  
                                         2.521E-01 0.000E+00 1.000E+00 0.000E+00
                         814-   818 D  
                                         9.722E-01 0.000E+00 0.000E+00 1.000E+00
                         819-   823 D  
                                         2.060E-01 0.000E+00 0.000E+00 1.000E+00
  54 CL  -0.191  -7.198  -1.905
  55 CL   7.198  -0.191   1.905
  56 CL  -7.198   0.191   1.905
  57 CL  -7.379  -1.317  -4.172
  58 CL   7.379   1.317  -4.172
  59 CL  -1.317   7.379   4.172
  60 CL   1.317  -7.379   4.172
  61 ZN  10.049   0.000 -19.905
                                985 S  
                                         8.200E+04 1.421E-03 0.000E+00 0.000E+00
                                         1.231E+04 1.089E-02 0.000E+00 0.000E+00
                                         2.801E+03 5.406E-02 0.000E+00 0.000E+00
                                         7.910E+02 1.885E-01 0.000E+00 0.000E+00
                                         2.576E+02 3.835E-01 0.000E+00 0.000E+00
                                         8.881E+01 2.972E-01 0.000E+00 0.000E+00
                                986 S  
                                         1.719E+02-1.105E-01 0.000E+00 0.000E+00
                                         2.030E+01 6.461E-01 0.000E+00 0.000E+00
                                         8.346E+00 4.422E-01 0.000E+00 0.000E+00
                                987 S  
                                         1.485E+01-2.271E-01 0.000E+00 0.000E+00
                                         2.450E+00 7.243E-01 0.000E+00 0.000E+00
                                         9.985E-01 4.484E-01 0.000E+00 0.000E+00
                                988 S  
                                         1.493E+00 1.000E+00 0.000E+00 0.000E+00
                                989 S  
                                         1.830E-01 1.000E+00 0.000E+00 0.000E+00
                         990-   992 P  
                                         1.072E+03 0.000E+00 9.277E-03 0.000E+00
                                         2.527E+02 0.000E+00 6.954E-02 0.000E+00
                                         8.010E+01 0.000E+00 2.716E-01 0.000E+00
                                         2.890E+01 0.000E+00 5.340E-01 0.000E+00
                                         1.077E+01 0.000E+00 3.450E-01 0.000E+00
                         993-   995 P  
                                         5.645E+00 0.000E+00 3.413E-01 0.000E+00
                                         2.168E+00 0.000E+00 5.639E-01 0.000E+00
                                         8.054E-01 0.000E+00 2.368E-01 0.000E+00
                         996-   998 P  
                                         2.721E-01 0.000E+00 1.000E+00 0.000E+00
                         999-  1003 D  
                                         5.609E+01 0.000E+00 0.000E+00 2.959E-02
                                         1.575E+01 0.000E+00 0.000E+00 1.587E-01
                                         5.312E+00 0.000E+00 0.000E+00 3.798E-01
                                         1.774E+00 0.000E+00 0.000E+00 4.690E-01
                        1004-  1008 D  
                                         5.073E-01 0.000E+00 0.000E+00 1.000E+00
                        1009-  1015 F  
                                         2.814E+00 0.000E+00 0.000E+00 1.000E+00
                        1016-  1022 F  
                                         1.300E+00 0.000E+00 0.000E+00 1.000E+00
  62 ZN   0.000   0.000  13.270

 *******************************************************************************
 FINISHED BASIS SET HANDLING 
 *******************************************************************************

 INFORMATION **** SET_MPP **** PCRYSTAL CALCULATION
 INFORMATION **** READM2 **** NEW DEFAULT: FOCK/KS MATRIX MIXING SET TO 30 %
 INFORMATION **** READM2 **** NEW DEFAULT: FULL DIRECT SCF MODE
 INFORMATION **** READM2 **** NEW DEFAULT: COULOMB BIPOLAR BUFFER SET TO 32 Mb
 INFORMATION **** READM2 **** NEW DEFAULT: EXCHANGE BIPOLAR BUFFER SET TO 32 Mb

 *******************************************************************************
 NEW DEFAULT: DFT INTEGRATION GRID INCREASED TO XLGRID
 NEW DEFAULT: DIIS ACCELERATOR ACTIVE
 USE KEYWORD NODIIS TO TURN IT OFF
 *******************************************************************************

 INFORMATION **** DFTD3_INPUT **** PERFORM DISPERSION CORRECTION DFT-D3(BJ) IN THE BECKE-JOHNSON DAMPING SCHEME

 PLEASE CITE:
 (1) DFT-D3 Reference
  S. Grimme, J. Antony, S. Ehrlich, and H. Krieg, J. Chem. Phys. 132 (2010), 154104
 (2) BJ-Damping Reference
  S. Grimme, S. Ehrlich, and L. Goerigk, J. Comput. Chem. 32 (2011), 1456-1465
 (3) General DFT-D Review
  S. Grimme, A. Hansen, J. G. Brandenburg, and C. Bannwarth,
  Chem. Rev. 116 (2016), 5105-5154

 INFORMATION **** TOLINTEG **** COULOMB AND EXCHANGE SERIES TOLERANCES MODIFIED
 INFORMATION **** BIPOSIZE **** COULOMB BIPOLAR BUFFER SET TO   100000000
 INFORMATION **** MAXCYCLE **** MAX NUMBER OF SCF CYCLES SET TO          50
 *******************************************************************************
 N. OF ATOMS PER CELL        62  COULOMB OVERLAP TOL         (T1) 10**  -12
 NUMBER OF SHELLS           416  COULOMB PENETRATION TOL     (T2) 10**  -12
 NUMBER OF AO              1060  EXCHANGE OVERLAP TOL        (T3) 10**   20
 N. OF ELECTRONS PER CELL   488  EXCHANGE PSEUDO OVP (F(G))  (T4) 10**   20
 CORE ELECTRONS PER CELL    204  EXCHANGE PSEUDO OVP (P(G))  (T5) 10**   20
 N. OF SYMMETRY OPERATORS     4  POLE ORDER IN MONO ZONE                  4
 *******************************************************************************
 TYPE OF CALCULATION :  RESTRICTED CLOSED SHELL
 KOHN-SHAM HAMILTONIAN

 (EXCHANGE)[CORRELATION] FUNCTIONAL:(PERDEW-BURKE-ERNZERHOF)[PERDEW-BURKE-ERNZERHOF]


 CAPPA:IS1  3;IS2  3;IS3  3; K PTS MONK NET   6; SYMMOPS:K SPACE   8;G SPACE   4

 *******************************************************************************
 MAX NUMBER OF SCF CYCLES      50  CONVERGENCE ON DELTAP        10**-16
 WEIGHT OF F(I) IN F(I+1)      30% CONVERGENCE ON ENERGY        10**- 6
 SHRINK. FACT.(MONKH.)    3  3  3  NUMBER OF K POINTS IN THE IBZ      6
 SHRINKING FACTOR(GILAT NET)    3  NUMBER OF K POINTS(GILAT NET)      6
 *******************************************************************************
 *** K POINTS COORDINATES (OBLIQUE COORDINATES IN UNITS OF IS =  3)
   1-R(  0  0  0)   2-C(  1  0  0)   3-C(  1  1  0)   4-C(  2  1  0)
   5-C(  2  1  1)   6-C(  2  2  1)

 DIRECT LATTICE VECTORS COMPON. (A.U.)     RECIP. LATTICE VECTORS COMPON. (A.U.) 
        X            Y            Z              X            Y            Z
  -10.0490503   10.0490503   13.2698380      0.0000000    0.3126258    0.2367469
   10.0490503  -10.0490503   13.2698380      0.3126258    0.0000000    0.2367469
   10.0490503   10.0490503  -13.2698380      0.3126258    0.3126258    0.0000000

 DISK SPACE FOR EIGENVECTORS (FTN 10)    12359600 REALS

 SYMMETRY ADAPTION OF THE BLOCH FUNCTIONS ENABLED
 TTTTTTTTTTTTTTTTTTTTTTTTTTTTTT gordsh1     TELAPSE       19.31 TCPU        0.05

 MATRIX SIZE: P(G) 1774808, F(G)  888110, P(G) IRR  224385, F(G) IRR  224385
 MAX G-VECTOR INDEX FOR 1- AND 2-ELECTRON INTEGRALS  63

 TTTTTTTTTTTTTTTTTTTTTTTTTTTTTT INPUT       TELAPSE       19.34 TCPU        0.09

 NEIGHBORS OF THE NON-EQUIVALENT ATOMS

 N = NUMBER OF NEIGHBORS AT DISTANCE R
    ATOM  N     R/ANG      R/AU   NEIGHBORS (ATOM LABELS AND CELL INDICES)
   1 H    1     1.0908     2.0613   17 C    0 0 0
   1 H    1     2.1718     4.1042    9 C    0 0 0
   1 H    1     2.1845     4.1281   30 C    0 0 0
   1 H    1     2.7840     5.2610   13 C    0 0 0
   1 H    1     2.7947     5.2813   58 CL   0-1-1
   1 H    1     2.8950     5.4707   60 CL   0-1 0

   5 H    1     1.0923     2.0642   21 C    0 0 0
   5 H    1     2.0739     3.9190   49 N    0 0 0
   5 H    1     2.1364     4.0372   50 N    0 0 0
   5 H    1     2.1799     4.1194   30 C    0 0 0
   5 H    1     2.7447     5.1868    6 H    0 0 0
   5 H    1     2.7488     5.1944   57 CL   0 0 0

   9 C    1     1.4095     2.6635   25 C    0 0 0
   9 C    1     1.4103     2.6651   17 C    0 0 0
   9 C    1     1.4717     2.7812   13 C    0 0 0
   9 C    1     2.1718     4.1042    1 H    0 0 0
   9 C    1     2.4144     4.5625   30 C    0 0 0
   9 C    1     2.4221     4.5772   49 N    0 0 0

  13 C    1     1.3576     2.5655   41 N    0-1 0
  13 C    1     1.3659     2.5812   33 N    0-1 0
  13 C    1     1.4717     2.7812    9 C    0 0 0
  13 C    1     2.1947     4.1474   37 N    0-1 0
  13 C    1     2.1977     4.1531   45 N    0-1 0
  13 C    1     2.4961     4.7169   25 C    0 0 0

  17 C    1     1.0908     2.0613    1 H    0 0 0
  17 C    1     1.4035     2.6522   30 C    0 0 0
  17 C    1     1.4103     2.6651    9 C    0 0 0
  17 C    1     2.3934     4.5228   25 C    0 0 0
  17 C    1     2.4274     4.5870   21 C    0 0 0
  17 C    1     2.5363     4.7929   13 C    0 0 0

  21 C    1     1.0923     2.0642    5 H    0 0 0
  21 C    1     1.3381     2.5287   49 N    0 0 0
  21 C    1     1.3928     2.6321   30 C    0 0 0
  21 C    1     2.2894     4.3263   25 C    0 0 0
  21 C    1     2.4274     4.5870   17 C    0 0 0
  21 C    1     2.6242     4.9590   57 CL   0 0 0

  25 C    1     1.3201     2.4946   49 N    0 0 0
  25 C    1     1.4095     2.6635    9 C    0 0 0
  25 C    1     1.7352     3.2791   53 CL   0 0 0
  25 C    1     2.2894     4.3263   21 C    0 0 0
  25 C    1     2.3934     4.5228   17 C    0 0 0
  25 C    1     2.4961     4.7169   13 C    0 0 0

  29 C    1     1.3928     2.6321   22 C    0 0 0
  29 C    1     1.4035     2.6522   18 C    0 0 0
  29 C    1     1.7372     3.2828   58 CL   0 0 0
  29 C    1     2.1799     4.1194    6 H    0 0 0
  29 C    1     2.1845     4.1281    2 H    0 0 0
  29 C    1     2.3780     4.4938   50 N    0 0 0

  33 N    1     1.3659     2.5812   13 C    0 1 0
  33 N    1     1.3745     2.5974   37 N    0 0 0
  33 N    1     2.1777     4.1153   61 ZN   1 1 0
  33 N    1     2.1965     4.1508   45 N    0 0 0
  33 N    1     2.2171     4.1897   41 N    0 0 0
  33 N    1     2.4954     4.7157    9 C    0 1 0

  37 N    1     1.3180     2.4906   45 N    0 0 0
  37 N    1     1.3745     2.5974   33 N    0 0 0
  37 N    1     2.1947     4.1474   13 C    0 1 0
  37 N    1     2.1967     4.1511   41 N    0 0 0
  37 N    1     2.9959     5.6614   61 ZN   1 1 0
  37 N    1     3.0185     5.7042   27 C    0 0 0

  41 N    1     1.3576     2.5655   13 C    0 1 0
  41 N    1     1.3844     2.6162   45 N    0 0 0
  41 N    1     2.0401     3.8552   62 ZN   0 0 0
  41 N    1     2.1967     4.1511   37 N    0 0 0
  41 N    1     2.2171     4.1897   33 N    0 0 0
  41 N    1     2.5419     4.8034    9 C    0 1 0

  45 N    1     1.3180     2.4906   37 N    0 0 0
  45 N    1     1.3844     2.6162   41 N    0 0 0
  45 N    1     2.1965     4.1508   33 N    0 0 0
  45 N    1     2.1977     4.1531   13 C    0 1 0
  45 N    1     2.7608     5.2171   62 ZN   0 0 0
  45 N    1     3.1426     5.9386    2 H    1 0 0

  49 N    1     1.3201     2.4946   25 C    0 0 0
  49 N    1     1.3381     2.5287   21 C    0 0 0
  49 N    1     2.0739     3.9190    5 H    0 0 0
  49 N    1     2.1364     4.0372    6 H    0 0 0
  49 N    1     2.3780     4.4938   30 C    0 0 0
  49 N    1     2.4221     4.5772    9 C    0 0 0

  53 CL   1     1.7352     3.2791   25 C    0 0 0
  53 CL   1     2.5787     4.8730   49 N    0 0 0
  53 CL   1     2.7346     5.1676    9 C    0 0 0
  53 CL   1     2.9243     5.5261   61 ZN   1 0 0
  53 CL   1     2.9653     5.6035   34 N    0 0 1
  53 CL   1     3.0244     5.7154   54 CL   1 0 1

  57 CL   1     1.7372     3.2828   30 C    0 0 0
  57 CL   1     2.6242     4.9590   21 C    0 0 0
  57 CL   1     2.7488     5.1944    5 H    0 0 0
  57 CL   1     2.7947     5.2813    2 H    0-1-1
  57 CL   1     2.8030     5.2970   17 C    0 0 0
  57 CL   1     2.8950     5.4707    3 H   -1-1-1

  61 ZN   4     2.1777     4.1153   33 N   -1-1 0   34 N   -1 0 1   35 N    0 0 1
                                    36 N   -1 0 0
  61 ZN   4     2.9243     5.5261   53 CL  -1 0 0   54 CL   0 0 1   55 CL  -1-1 0
                                    56 CL  -1 0 1
  61 ZN   4     2.9959     5.6614   37 N   -1-1 0   38 N   -1 0 1   39 N    0 0 1
                                    40 N   -1 0 0
  61 ZN   4     3.3224     6.2784   13 C   -1 0 0   14 C    0 0 1   15 C   -1-1 0
                                    16 C   -1 0 1
  61 ZN   4     3.6409     6.8804   25 C   -1 0 0   26 C    0 0 1   27 C   -1-1 0
                                    28 C   -1 0 1
  61 ZN   4     3.8372     7.2512    9 C   -1 0 0   10 C    0 0 1   11 C   -1-1 0
                                    12 C   -1 0 1

  62 ZN   4     2.0401     3.8552   41 N    0 0 0   42 N    0 0 0   43 N    1 1 0
                                    44 N    1 1 0
  62 ZN   4     2.7608     5.2171   45 N    0 0 0   46 N    0 0 0   47 N    1 1 0
                                    48 N    1 1 0
  62 ZN   4     3.2664     6.1726   13 C    0 1 0   14 C    1 0 0   15 C    0 0-1
                                    16 C    1 1 1
  62 ZN   4     3.7666     7.1179    1 H    0 1 0    2 H    1 0 0    3 H    0 0-1
                                     4 H    1 1 1
  62 ZN   4     3.9853     7.5312    9 C    0 1 0   10 C    1 0 0   11 C    0 0-1
                                    12 C    1 1 1
  62 ZN   4     3.9853     7.5312   37 N    0 0 0   38 N    0 0 0   39 N    1 1 0
                                    40 N    1 1 0


 SYMMETRY ALLOWED INTERNAL DEGREE(S) OF FREEDOM:  45
 TTTTTTTTTTTTTTTTTTTTTTTTTTTTTT SYMM        TELAPSE       19.72 TCPU        0.46
 TTTTTTTTTTTTTTTTTTTTTTTTTTTTTT INT_SCREEN  TELAPSE       19.72 TCPU        0.47
 INFORMATION **** EXCBUF **** EXCH. BIPO BUFFER: WORDS USED =           0

 DFT PARAMETERS

     ATOM       ELECTRONS   NET CHARGE   R(ANGSTROM)
   1   1  H       1.0000      0.0000     1.11000000
   9   6  C       6.0000      0.0000     0.77000000
  33   7  N       7.0000      0.0000     0.74000000
  53  17  CL     17.0000      0.0000     0.99000000
  61  30  ZN     30.0000      0.0000     1.37000000

 SIZE OF GRID=     475573
 TTTTTTTTTTTTTTTTTTTTTTTTTTTTTT MAKE_GRID2  TELAPSE       20.53 TCPU        1.27
 BECKE WEIGHT FUNCTION
 RADSAFE =     2.00
 TOLERANCES - DENSITY:10**- 6; POTENTIAL:10**- 9; GRID WGT:10**-14

 RADIAL INTEGRATION  - INTERVALS (POINTS,UPPER LIMIT):            1( 75,  4.0*R)

 ANGULAR INTEGRATION - INTERVALS (ACCURACY LEVEL [N. POINTS] UPPER LIMIT):
  1(  4[  86]   0.2)  2(  8[ 194]   0.5)  3( 12[ 350]   0.9)  4( 16[ 974]   3.5)
  5( 12[ 350]9999.0)
 TTTTTTTTTTTTTTTTTTTTTTTTTTTTTT INT_CALC    TELAPSE       20.57 TCPU        1.31
 EEEEEEEEEE INT_CALC TERMINATION  DATE 04 12 2023 TIME 21:21:54.0

 *******************************************************************************
 Z:\home\sanoj\Downloads\tmp_p\newconn.mol                                       
 CRYSTAL - SCF - TYPE OF CALCULATION :  RESTRICTED CLOSED SHELL
 *******************************************************************************

 CAPPA:IS1  3;IS2  3;IS3  3; K PTS MONK NET   6; SYMMOPS:K SPACE   8;G SPACE   4

 TTTTTTTTTTTTTTTTTTTTTTTTTTTTTT SDIK        TELAPSE       20.82 TCPU        1.55

 AAAAAAAAAAAAAAAAAAAAAAAAAAAAAAAAAAAAAAAAAAAAAAAAAAAAAAAAAAAAAAAAAAAAAAAAAAAAAAA
         ATOMIC WAVEFUNCTION(S)


 NUCLEAR CHARGE  1.0  SYMMETRY SPECIES            S
 N. ELECTRONS    1.0  NUMBER OF PRIMITIVE GTOS    4
                      NUMBER OF CONTRACTED GTOS   2
                      NUMBER OF CLOSED SHELLS     0
                      OPEN SHELL OCCUPATION       1

  ZNUC SCFIT  TOTAL HF ENERGY   KINETIC ENERGY   VIRIAL THEOREM ACCURACY
   1.0   1   -4.946643675E-01  4.917913167E-01 -2.005842012E+00  9.4E-17

 NUCLEAR CHARGE  6.0  SYMMETRY SPECIES            S    P
 N. ELECTRONS    6.0  NUMBER OF PRIMITIVE GTOS    7    4
                      NUMBER OF CONTRACTED GTOS   3    2
                      NUMBER OF CLOSED SHELLS     2    0
                      OPEN SHELL OCCUPATION       0    2

  ZNUC SCFIT  TOTAL HF ENERGY   KINETIC ENERGY   VIRIAL THEOREM ACCURACY
   6.0   6   -3.750912652E+01  3.905246519E+01 -1.960480378E+00  3.7E-06

 NUCLEAR CHARGE  7.0  SYMMETRY SPECIES            S    P
 N. ELECTRONS    7.0  NUMBER OF PRIMITIVE GTOS    7    4
                      NUMBER OF CONTRACTED GTOS   3    2
                      NUMBER OF CLOSED SHELLS     2    0
                      OPEN SHELL OCCUPATION       0    3

  ZNUC SCFIT  TOTAL HF ENERGY   KINETIC ENERGY   VIRIAL THEOREM ACCURACY
   7.0   9   -5.432196661E+01  5.425066284E+01 -2.001314339E+00  1.2E-06

 NUCLEAR CHARGE 17.0  SYMMETRY SPECIES            S    P
 N. ELECTRONS   17.0  NUMBER OF PRIMITIVE GTOS   10    7
                      NUMBER OF CONTRACTED GTOS   4    3
                      NUMBER OF CLOSED SHELLS     3    1
                      OPEN SHELL OCCUPATION       0    5

  ZNUC SCFIT  TOTAL HF ENERGY   KINETIC ENERGY   VIRIAL THEOREM ACCURACY
  17.0   9   -4.593005957E+02  4.593991532E+02 -1.999785464E+00  2.3E-06

 NUCLEAR CHARGE 30.0  SYMMETRY SPECIES            S    P    D
 N. ELECTRONS   30.0  NUMBER OF PRIMITIVE GTOS   14    9    5
                      NUMBER OF CONTRACTED GTOS   5    3    2
                      NUMBER OF CLOSED SHELLS     4    2    1
                      OPEN SHELL OCCUPATION       0    0    0

  ZNUC SCFIT  TOTAL HF ENERGY   KINETIC ENERGY   VIRIAL THEOREM ACCURACY
  30.0  10   -1.777404290E+03  1.777325716E+03 -2.000044209E+00  2.5E-06

 AAAAAAAAAAAAAAAAAAAAAAAAAAAAAAAAAAAAAAAAAAAAAAAAAAAAAAAAAAAAAAAAAAAAAAAAAAAAAAA

 TOTAL ATOMIC CHARGES:
   1.0000000   1.0000000   1.0000000   1.0000000   1.0000000   1.0000000
   1.0000000   1.0000000   6.0000000   6.0000000   6.0000000   6.0000000
   6.0000000   6.0000000   6.0000000   6.0000000   6.0000000   6.0000000
   6.0000000   6.0000000   6.0000000   6.0000000   6.0000000   6.0000000
   6.0000000   6.0000000   6.0000000   6.0000000   6.0000000   6.0000000
   6.0000000   6.0000000   7.0000000   7.0000000   7.0000000   7.0000000
   7.0000000   7.0000000   7.0000000   7.0000000   7.0000000   7.0000000
   7.0000000   7.0000000   7.0000000   7.0000000   7.0000000   7.0000000
   7.0000000   7.0000000   7.0000000   7.0000000  17.0000000  17.0000000
  17.0000000  17.0000000  17.0000000  17.0000000  17.0000000  17.0000000
  30.0000000  30.0000000
 TTTTTTTTTTTTTTTTTTTTTTTTTTTTTT MOQGAD      TELAPSE       23.29 TCPU        4.00
 TTTTTTTTTTTTTTTTTTTTTTTTTTTTTT SHELLXN     TELAPSE       86.75 TCPU       63.55
 TTTTTTTTTTTTTTTTTTTTTTTTTTTTTT MONMO3      TELAPSE       95.88 TCPU       72.66
 NUMERICALLY INTEGRATED DENSITY    487.9998936039
 TTTTTTTTTTTTTTTTTTTTTTTTTTTTTT NUMDFT      TELAPSE       98.17 TCPU       74.95
 CYC   0 ETOT(AU) -9.251277606311E+03 DETOT -9.25E+03 tst  0.00E+00 PX  1.00E+00
 TTTTTTTTTTTTTTTTTTTTTTTTTTTTTT DIIS        TELAPSE       98.26 TCPU       75.03
 TTTTTTTTTTTTTTTTTTTTTTTTTTTTTT FDIK        TELAPSE      136.81 TCPU      110.34
 INSULATING STATE
 TOP OF VALENCE BANDS -    BAND    244; K    4; EIG -1.2596394E-01 AU
 TOP OF VALENCE BANDS -    BAND    244; K    1; EIG -1.2749460E-01 AU
 BOTTOM OF VIRTUAL BANDS - BAND    245; K    4; EIG -1.0312975E-01 AU
 DIRECT ENERGY BAND GAP:   0.6214 eV
 BOTTOM OF VIRTUAL BANDS - BAND    245; K    1; EIG -1.0308455E-01 AU
 TTTTTTTTTTTTTTTTTTTTTTTTTTTTTT PDIG        TELAPSE      137.54 TCPU      111.07
 TOTAL ATOMIC CHARGES:
   1.2171906   1.2171906   1.2171906   1.2171906   1.2771768   1.2771768
   1.2771768   1.2771768   6.1819896   6.1819896   6.1819896   6.1819896
   5.4842076   5.4842076   5.4842076   5.4842076   6.3338097   6.3338097
   6.3338097   6.3338097   5.9312835   5.9312835   5.9312835   5.9312835
   5.0483888   5.0483888   5.0483888   5.0483888   5.1631865   5.1631865
   5.1631865   5.1631865   7.4550715   7.4550715   7.4550715   7.4550715
   7.1873763   7.1873763   7.1873763   7.1873763   7.4185744   7.4185744
   7.4185744   7.4185744   7.1499887   7.1499887   7.1499887   7.1499887
   7.5153632   7.5153632   7.5153632   7.5153632  17.3450072  17.3450072
  17.3450072  17.3450072  17.2865551  17.2865551  17.2865551  17.2865551
  28.0239754  27.9953462
 TTTTTTTTTTTTTTTTTTTTTTTTTTTTTT MOQGAD      TELAPSE      137.59 TCPU      111.11
 TTTTTTTTTTTTTTTTTTTTTTTTTTTTTT SHELLXN     TELAPSE      211.83 TCPU      180.71
 TTTTTTTTTTTTTTTTTTTTTTTTTTTTTT MONMO3      TELAPSE      219.66 TCPU      188.52
 NUMERICALLY INTEGRATED DENSITY    487.9998745705
 TTTTTTTTTTTTTTTTTTTTTTTTTTTTTT NUMDFT      TELAPSE      225.92 TCPU      194.77
 CYC   1 ETOT(AU) -9.246255717760E+03 DETOT  5.02E+00 tst  0.00E+00 PX  1.00E+00
 TTTTTTTTTTTTTTTTTTTTTTTTTTTTTT DIIS        TELAPSE      226.29 TCPU      195.13
 DIIS TEST: 0.88528E+01 AT SCF   CYCLE   1 - MIX   30 %
 TTTTTTTTTTTTTTTTTTTTTTTTTTTTTT FDIK        TELAPSE      242.61 TCPU      208.01
 INSULATING STATE
 TOP OF VALENCE BANDS -    BAND    244; K    3; EIG -1.5506013E-01 AU
 TOP OF VALENCE BANDS -    BAND    244; K    1; EIG -1.5689792E-01 AU
 BOTTOM OF VIRTUAL BANDS - BAND    245; K    5; EIG -1.2235230E-01 AU
 INDIRECT ENERGY BAND GAP:   0.8900 eV
 BOTTOM OF VIRTUAL BANDS - BAND    245; K    1; EIG -1.2189205E-01 AU
 TTTTTTTTTTTTTTTTTTTTTTTTTTTTTT PDIG        TELAPSE      243.33 TCPU      208.73
 TOTAL ATOMIC CHARGES:
   1.1865171   1.1865171   1.1865171   1.1865171   1.2487799   1.2487799
   1.2487799   1.2487799   6.3303744   6.3303744   6.3303744   6.3303744
   6.3824969   6.3824969   6.3824969   6.3824969   6.3056207   6.3056207
   6.3056207   6.3056207   5.9262454   5.9262454   5.9262454   5.9262454
   6.1218056   6.1218056   6.1218056   6.1218056   5.6869945   5.6869945
   5.6869945   5.6869945   6.8921158   6.8921158   6.8921158   6.8921158
   6.9183026   6.9183026   6.9183026   6.9183026   6.9613632   6.9613632
   6.9613632   6.9613632   6.8560621   6.8560621   6.8560621   6.8560621
   6.0443122   6.0443122   6.0443122   6.0443122  17.2844316  17.2844316
  17.2844316  17.2844316  17.1217993  17.1217993  17.1217993  17.1217993
  29.4535890  29.4775260
 TTTTTTTTTTTTTTTTTTTTTTTTTTTTTT MOQGAD      TELAPSE      243.37 TCPU      208.77
 TTTTTTTTTTTTTTTTTTTTTTTTTTTTTT SHELLXN     TELAPSE      317.86 TCPU      278.33
 TTTTTTTTTTTTTTTTTTTTTTTTTTTTTT MONMO3      TELAPSE      325.57 TCPU      286.01
 NUMERICALLY INTEGRATED DENSITY    487.9998726891
 TTTTTTTTTTTTTTTTTTTTTTTTTTTTTT NUMDFT      TELAPSE      331.89 TCPU      292.28
 CYC   2 ETOT(AU) -9.244868597699E+03 DETOT  1.39E+00 tst  3.12E-02 PX  6.08E-01
 TTTTTTTTTTTTTTTTTTTTTTTTTTTTTT DIIS        TELAPSE      332.34 TCPU      292.74
 DIIS TEST: 0.20146E+02 AT SCF   CYCLE   2 - DIIS ACTIVE - HISTORY:     2 CYCLES
 TTTTTTTTTTTTTTTTTTTTTTTTTTTTTT FDIK        TELAPSE      346.78 TCPU      304.76
 INSULATING STATE
 TOP OF VALENCE BANDS -    BAND    244; K    3; EIG -2.4469614E-01 AU
 TOP OF VALENCE BANDS -    BAND    244; K    1; EIG -2.4630589E-01 AU
 BOTTOM OF VIRTUAL BANDS - BAND    245; K    1; EIG -1.2786921E-01 AU
 INDIRECT ENERGY BAND GAP:   3.1790 eV
 TTTTTTTTTTTTTTTTTTTTTTTTTTTTTT PDIG        TELAPSE      347.51 TCPU      305.48
 TOTAL ATOMIC CHARGES:
   1.1762459   1.1762459   1.1762459   1.1762459   1.1968376   1.1968376
   1.1968376   1.1968376   5.9810138   5.9810138   5.9810138   5.9810138
   5.8956966   5.8956966   5.8956966   5.8956966   6.1359882   6.1359882
   6.1359882   6.1359882   6.1817458   6.1817458   6.1817458   6.1817458
   5.5425090   5.5425090   5.5425090   5.5425090   5.4570364   5.4570364
   5.4570364   5.4570364   7.0790754   7.0790754   7.0790754   7.0790754
   7.1132902   7.1132902   7.1132902   7.1132902   7.0415078   7.0415078
   7.0415078   7.0415078   7.0581069   7.0581069   7.0581069   7.0581069
   7.3351481   7.3351481   7.3351481   7.3351481  17.1346271  17.1346271
  17.1346271  17.1346271  17.1085021  17.1085021  17.1085021  17.1085021
  29.0764467  29.1742292
 TTTTTTTTTTTTTTTTTTTTTTTTTTTTTT MOQGAD      TELAPSE      347.56 TCPU      305.53
 TTTTTTTTTTTTTTTTTTTTTTTTTTTTTT SHELLXN     TELAPSE      419.92 TCPU      375.16
 TTTTTTTTTTTTTTTTTTTTTTTTTTTTTT MONMO3      TELAPSE      427.41 TCPU      382.64
 NUMERICALLY INTEGRATED DENSITY    487.9998757254
 TTTTTTTTTTTTTTTTTTTTTTTTTTTTTT NUMDFT      TELAPSE      433.68 TCPU      388.89
 CYC   3 ETOT(AU) -9.247362932910E+03 DETOT -2.49E+00 tst  1.22E-02 PX  3.81E-01
 TTTTTTTTTTTTTTTTTTTTTTTTTTTTTT DIIS        TELAPSE      433.95 TCPU      389.15
 DIIS TEST: 0.30704E+01 AT SCF   CYCLE   3 - DIIS ACTIVE - HISTORY:     3 CYCLES
 TTTTTTTTTTTTTTTTTTTTTTTTTTTTTT FDIK        TELAPSE      449.88 TCPU      401.23
 INSULATING STATE
 TOP OF VALENCE BANDS -    BAND    244; K    3; EIG -2.2766394E-01 AU
 TOP OF VALENCE BANDS -    BAND    244; K    1; EIG -2.2973067E-01 AU
 BOTTOM OF VIRTUAL BANDS - BAND    245; K    1; EIG -1.2390561E-01 AU
 INDIRECT ENERGY BAND GAP:   2.8234 eV
 TTTTTTTTTTTTTTTTTTTTTTTTTTTTTT PDIG        TELAPSE      450.59 TCPU      401.94
 TOTAL ATOMIC CHARGES:
   1.1600563   1.1600563   1.1600563   1.1600563   1.2280821   1.2280821
   1.2280821   1.2280821   6.2475104   6.2475104   6.2475104   6.2475104
   5.8221441   5.8221441   5.8221441   5.8221441   6.3737392   6.3737392
   6.3737392   6.3737392   5.8747989   5.8747989   5.8747989   5.8747989
   5.4371592   5.4371592   5.4371592   5.4371592   5.4112087   5.4112087
   5.4112087   5.4112087   7.2390459   7.2390459   7.2390459   7.2390459
   7.0696213   7.0696213   7.0696213   7.0696213   7.2203151   7.2203151
   7.2203151   7.2203151   7.0279804   7.0279804   7.0279804   7.0279804
   6.9952772   6.9952772   6.9952772   6.9952772  17.2664999  17.2664999
  17.2664999  17.2664999  17.2243859  17.2243859  17.2243859  17.2243859
  28.7809097  28.8277916
 TTTTTTTTTTTTTTTTTTTTTTTTTTTTTT MOQGAD      TELAPSE      450.64 TCPU      401.99
 TTTTTTTTTTTTTTTTTTTTTTTTTTTTTT SHELLXN     TELAPSE      524.17 TCPU      471.56
 TTTTTTTTTTTTTTTTTTTTTTTTTTTTTT MONMO3      TELAPSE      531.88 TCPU      479.25
 NUMERICALLY INTEGRATED DENSITY    487.9998753139
 TTTTTTTTTTTTTTTTTTTTTTTTTTTTTT NUMDFT      TELAPSE      538.16 TCPU      485.49
 CYC   4 ETOT(AU) -9.247765012209E+03 DETOT -4.02E-01 tst  4.22E-03 PX  2.11E-01
 TTTTTTTTTTTTTTTTTTTTTTTTTTTTTT DIIS        TELAPSE      538.65 TCPU      485.97
 DIIS TEST: 0.60528E+00 AT SCF   CYCLE   4 - DIIS ACTIVE - HISTORY:     4 CYCLES
 TTTTTTTTTTTTTTTTTTTTTTTTTTTTTT FDIK        TELAPSE      555.86 TCPU      498.51
 INSULATING STATE
 TOP OF VALENCE BANDS -    BAND    244; K    4; EIG -2.4572750E-01 AU
 TOP OF VALENCE BANDS -    BAND    244; K    1; EIG -2.4875937E-01 AU
 BOTTOM OF VIRTUAL BANDS - BAND    245; K    1; EIG -1.2762445E-01 AU
 INDIRECT ENERGY BAND GAP:   3.2137 eV
 TTTTTTTTTTTTTTTTTTTTTTTTTTTTTT PDIG        TELAPSE      556.59 TCPU      499.24
 TOTAL ATOMIC CHARGES:
   1.1648361   1.1648361   1.1648361   1.1648361   1.2173370   1.2173370
   1.2173370   1.2173370   6.1880093   6.1880093   6.1880093   6.1880093
   5.8670659   5.8670659   5.8670659   5.8670659   6.2708653   6.2708653
   6.2708653   6.2708653   5.9943953   5.9943953   5.9943953   5.9943953
   5.5447067   5.5447067   5.5447067   5.5447067   5.4054709   5.4054709
   5.4054709   5.4054709   7.1773147   7.1773147   7.1773147   7.1773147
   7.1141845   7.1141845   7.1141845   7.1141845   7.1502273   7.1502273
   7.1502273   7.1502273   7.0331436   7.0331436   7.0331436   7.0331436
   7.0506551   7.0506551   7.0506551   7.0506551  17.2507942  17.2507942
  17.2507942  17.2507942  17.1792860  17.1792860  17.1792860  17.1792860
  28.7693161  28.7975160
 TTTTTTTTTTTTTTTTTTTTTTTTTTTTTT MOQGAD      TELAPSE      556.64 TCPU      499.29
 TTTTTTTTTTTTTTTTTTTTTTTTTTTTTT SHELLXN     TELAPSE      628.94 TCPU      568.75
 TTTTTTTTTTTTTTTTTTTTTTTTTTTTTT MONMO3      TELAPSE      636.92 TCPU      576.71
 NUMERICALLY INTEGRATED DENSITY    487.9998751521
 TTTTTTTTTTTTTTTTTTTTTTTTTTTTTT NUMDFT      TELAPSE      643.16 TCPU      582.93
 CYC   5 ETOT(AU) -9.247838503105E+03 DETOT -7.35E-02 tst  4.94E-04 PX  5.31E-02
 TTTTTTTTTTTTTTTTTTTTTTTTTTTTTT DIIS        TELAPSE      643.54 TCPU      583.30
 DIIS TEST: 0.81237E-01 AT SCF   CYCLE   5 - DIIS ACTIVE - HISTORY:     5 CYCLES
 TTTTTTTTTTTTTTTTTTTTTTTTTTTTTT FDIK        TELAPSE      657.40 TCPU      594.70
 INSULATING STATE
 TOP OF VALENCE BANDS -    BAND    244; K    3; EIG -2.4366564E-01 AU
 TOP OF VALENCE BANDS -    BAND    244; K    1; EIG -2.4691917E-01 AU
 BOTTOM OF VIRTUAL BANDS - BAND    245; K    1; EIG -1.2614252E-01 AU
 INDIRECT ENERGY BAND GAP:   3.1980 eV
 TTTTTTTTTTTTTTTTTTTTTTTTTTTTTT PDIG        TELAPSE      658.12 TCPU      595.42
 TOTAL ATOMIC CHARGES:
   1.1658752   1.1658752   1.1658752   1.1658752   1.2177597   1.2177597
   1.2177597   1.2177597   6.1672320   6.1672320   6.1672320   6.1672320
   5.8449601   5.8449601   5.8449601   5.8449601   6.3044513   6.3044513
   6.3044513   6.3044513   5.9811243   5.9811243   5.9811243   5.9811243
   5.4722122   5.4722122   5.4722122   5.4722122   5.4348938   5.4348938
   5.4348938   5.4348938   7.1759024   7.1759024   7.1759024   7.1759024
   7.0687860   7.0687860   7.0687860   7.0687860   7.1912907   7.1912907
   7.1912907   7.1912907   7.0570172   7.0570172   7.0570172   7.0570172
   7.0703723   7.0703723   7.0703723   7.0703723  17.2482073  17.2482073
  17.2482073  17.2482073  17.1906724  17.1906724  17.1906724  17.1906724
  28.7959026  28.8410696
 TTTTTTTTTTTTTTTTTTTTTTTTTTTTTT MOQGAD      TELAPSE      658.16 TCPU      595.47
 TTTTTTTTTTTTTTTTTTTTTTTTTTTTTT SHELLXN     TELAPSE      730.58 TCPU      665.03
 TTTTTTTTTTTTTTTTTTTTTTTTTTTTTT MONMO3      TELAPSE      738.02 TCPU      672.43
 NUMERICALLY INTEGRATED DENSITY    487.9998744999
 TTTTTTTTTTTTTTTTTTTTTTTTTTTTTT NUMDFT      TELAPSE      744.30 TCPU      678.67
 CYC   6 ETOT(AU) -9.247847162099E+03 DETOT -8.66E-03 tst  7.24E-05 PX  3.85E-02
 TTTTTTTTTTTTTTTTTTTTTTTTTTTTTT DIIS        TELAPSE      745.01 TCPU      679.39
 DIIS TEST: 0.29619E-01 AT SCF   CYCLE   6 - DIIS ACTIVE - HISTORY:     6 CYCLES
 TTTTTTTTTTTTTTTTTTTTTTTTTTTTTT FDIK        TELAPSE      758.45 TCPU      692.62
 INSULATING STATE
 TOP OF VALENCE BANDS -    BAND    244; K    4; EIG -2.4356366E-01 AU
 TOP OF VALENCE BANDS -    BAND    244; K    1; EIG -2.4679021E-01 AU
 BOTTOM OF VIRTUAL BANDS - BAND    245; K    1; EIG -1.2646993E-01 AU
 INDIRECT ENERGY BAND GAP:   3.1863 eV
 TTTTTTTTTTTTTTTTTTTTTTTTTTTTTT PDIG        TELAPSE      759.17 TCPU      693.35
 TOTAL ATOMIC CHARGES:
   1.1653122   1.1653122   1.1653122   1.1653122   1.2188185   1.2188185
   1.2188185   1.2188185   6.1747292   6.1747292   6.1747292   6.1747292
   5.8506801   5.8506801   5.8506801   5.8506801   6.2937466   6.2937466
   6.2937466   6.2937466   5.9736719   5.9736719   5.9736719   5.9736719
   5.4970223   5.4970223   5.4970223   5.4970223   5.4162709   5.4162709
   5.4162709   5.4162709   7.2091201   7.2091201   7.2091201   7.2091201
   7.1031039   7.1031039   7.1031039   7.1031039   7.1564969   7.1564969
   7.1564969   7.1564969   7.0218220   7.0218220   7.0218220   7.0218220
   7.0780626   7.0780626   7.0780626   7.0780626  17.2418149  17.2418149
  17.2418149  17.2418149  17.1876031  17.1876031  17.1876031  17.1876031
  28.8040684  28.8428314
 TTTTTTTTTTTTTTTTTTTTTTTTTTTTTT MOQGAD      TELAPSE      759.22 TCPU      693.39
 TTTTTTTTTTTTTTTTTTTTTTTTTTTTTT SHELLXN     TELAPSE      831.42 TCPU      762.92
 TTTTTTTTTTTTTTTTTTTTTTTTTTTTTT MONMO3      TELAPSE      838.91 TCPU      770.38
 NUMERICALLY INTEGRATED DENSITY    487.9998745084
 TTTTTTTTTTTTTTTTTTTTTTTTTTTTTT NUMDFT      TELAPSE      845.24 TCPU      776.68
 CYC   7 ETOT(AU) -9.247849033080E+03 DETOT -1.87E-03 tst  3.24E-05 PX  1.00E-02
 TTTTTTTTTTTTTTTTTTTTTTTTTTTTTT DIIS        TELAPSE      845.60 TCPU      777.03
 DIIS TEST: 0.16540E-01 AT SCF   CYCLE   7 - DIIS ACTIVE - HISTORY:     7 CYCLES
 TTTTTTTTTTTTTTTTTTTTTTTTTTTTTT FDIK        TELAPSE      856.07 TCPU      787.11
 INSULATING STATE
 TOP OF VALENCE BANDS -    BAND    244; K    4; EIG -2.4360843E-01 AU
 TOP OF VALENCE BANDS -    BAND    244; K    1; EIG -2.4682034E-01 AU
 BOTTOM OF VIRTUAL BANDS - BAND    245; K    1; EIG -1.2645736E-01 AU
 INDIRECT ENERGY BAND GAP:   3.1878 eV
 TTTTTTTTTTTTTTTTTTTTTTTTTTTTTT PDIG        TELAPSE      856.79 TCPU      787.83
 TOTAL ATOMIC CHARGES:
   1.1654665   1.1654665   1.1654665   1.1654665   1.2183185   1.2183185
   1.2183185   1.2183185   6.1732054   6.1732054   6.1732054   6.1732054
   5.8542169   5.8542169   5.8542169   5.8542169   6.2906353   6.2906353
   6.2906353   6.2906353   5.9827605   5.9827605   5.9827605   5.9827605
   5.5028762   5.5028762   5.5028762   5.5028762   5.4196441   5.4196441
   5.4196441   5.4196441   7.1775707   7.1775707   7.1775707   7.1775707
   7.0880885   7.0880885   7.0880885   7.0880885   7.1744966   7.1744966
   7.1744966   7.1744966   7.0455058   7.0455058   7.0455058   7.0455058
   7.0700477   7.0700477   7.0700477   7.0700477  17.2406303  17.2406303
  17.2406303  17.2406303  17.1863252  17.1863252  17.1863252  17.1863252
  28.7995196  28.8413273
 TTTTTTTTTTTTTTTTTTTTTTTTTTTTTT MOQGAD      TELAPSE      856.83 TCPU      787.87
 TTTTTTTTTTTTTTTTTTTTTTTTTTTTTT SHELLXN     TELAPSE      929.41 TCPU      857.62
 TTTTTTTTTTTTTTTTTTTTTTTTTTTTTT MONMO3      TELAPSE      936.78 TCPU      864.98
 NUMERICALLY INTEGRATED DENSITY    487.9998748145
 TTTTTTTTTTTTTTTTTTTTTTTTTTTTTT NUMDFT      TELAPSE      943.13 TCPU      871.30
 CYC   8 ETOT(AU) -9.247851244702E+03 DETOT -2.21E-03 tst  1.48E-05 PX  8.14E-03
 TTTTTTTTTTTTTTTTTTTTTTTTTTTTTT DIIS        TELAPSE      943.48 TCPU      871.65
 DIIS TEST: 0.15852E-02 AT SCF   CYCLE   8 - DIIS ACTIVE - HISTORY:     8 CYCLES
 TTTTTTTTTTTTTTTTTTTTTTTTTTTTTT FDIK        TELAPSE      958.14 TCPU      882.23
 INSULATING STATE
 TOP OF VALENCE BANDS -    BAND    244; K    4; EIG -2.4392265E-01 AU
 TOP OF VALENCE BANDS -    BAND    244; K    1; EIG -2.4711225E-01 AU
 BOTTOM OF VIRTUAL BANDS - BAND    245; K    1; EIG -1.2655644E-01 AU
 INDIRECT ENERGY BAND GAP:   3.1937 eV
 TTTTTTTTTTTTTTTTTTTTTTTTTTTTTT PDIG        TELAPSE      958.87 TCPU      882.96
 TOTAL ATOMIC CHARGES:
   1.1646757   1.1646757   1.1646757   1.1646757   1.2173662   1.2173662
   1.2173662   1.2173662   6.1700391   6.1700391   6.1700391   6.1700391
   5.8489635   5.8489635   5.8489635   5.8489635   6.2919762   6.2919762
   6.2919762   6.2919762   5.9854634   5.9854634   5.9854634   5.9854634
   5.4944128   5.4944128   5.4944128   5.4944128   5.4259357   5.4259357
   5.4259357   5.4259357   7.1903754   7.1903754   7.1903754   7.1903754
   7.0908136   7.0908136   7.0908136   7.0908136   7.1701801   7.1701801
   7.1701801   7.1701801   7.0375870   7.0375870   7.0375870   7.0375870
   7.0684677   7.0684677   7.0684677   7.0684677  17.2467978  17.2467978
  17.2467978  17.2467978  17.1867316  17.1867316  17.1867316  17.1867316
  28.7994560  28.8413998
 TTTTTTTTTTTTTTTTTTTTTTTTTTTTTT MOQGAD      TELAPSE      958.92 TCPU      883.01
 TTTTTTTTTTTTTTTTTTTTTTTTTTTTTT SHELLXN     TELAPSE     1031.22 TCPU      952.46
 TTTTTTTTTTTTTTTTTTTTTTTTTTTTTT MONMO3      TELAPSE     1039.57 TCPU      960.79
 NUMERICALLY INTEGRATED DENSITY    487.9998747366
 TTTTTTTTTTTTTTTTTTTTTTTTTTTTTT NUMDFT      TELAPSE     1045.86 TCPU      967.06
 CYC   9 ETOT(AU) -9.247851402336E+03 DETOT -1.58E-04 tst  1.96E-06 PX  3.18E-03
 TTTTTTTTTTTTTTTTTTTTTTTTTTTTTT DIIS        TELAPSE     1046.57 TCPU      967.76
 DIIS TEST: 0.73706E-03 AT SCF   CYCLE   9 - DIIS ACTIVE - HISTORY:     9 CYCLES
 TTTTTTTTTTTTTTTTTTTTTTTTTTTTTT FDIK        TELAPSE     1060.42 TCPU      979.30
 INSULATING STATE
 TOP OF VALENCE BANDS -    BAND    244; K    4; EIG -2.4391627E-01 AU
 TOP OF VALENCE BANDS -    BAND    244; K    1; EIG -2.4714012E-01 AU
 BOTTOM OF VIRTUAL BANDS - BAND    245; K    1; EIG -1.2658500E-01 AU
 INDIRECT ENERGY BAND GAP:   3.1927 eV
 TTTTTTTTTTTTTTTTTTTTTTTTTTTTTT PDIG        TELAPSE     1061.14 TCPU      980.02
 TOTAL ATOMIC CHARGES:
   1.1647122   1.1647122   1.1647122   1.1647122   1.2176869   1.2176869
   1.2176869   1.2176869   6.1735132   6.1735132   6.1735132   6.1735132
   5.8505362   5.8505362   5.8505362   5.8505362   6.2920516   6.2920516
   6.2920516   6.2920516   5.9812587   5.9812587   5.9812587   5.9812587
   5.4968157   5.4968157   5.4968157   5.4968157   5.4201525   5.4201525
   5.4201525   5.4201525   7.1861101   7.1861101   7.1861101   7.1861101
   7.0893467   7.0893467   7.0893467   7.0893467   7.1720535   7.1720535
   7.1720535   7.1720535   7.0402395   7.0402395   7.0402395   7.0402395
   7.0734931   7.0734931   7.0734931   7.0734931  17.2439109  17.2439109
  17.2439109  17.2439109  17.1874639  17.1874639  17.1874639  17.1874639
  28.8006196  28.8420015
 TTTTTTTTTTTTTTTTTTTTTTTTTTTTTT MOQGAD      TELAPSE     1061.19 TCPU      980.07
 TTTTTTTTTTTTTTTTTTTTTTTTTTTTTT SHELLXN     TELAPSE     1133.37 TCPU     1049.61
 TTTTTTTTTTTTTTTTTTTTTTTTTTTTTT MONMO3      TELAPSE     1140.11 TCPU     1056.33
 NUMERICALLY INTEGRATED DENSITY    487.9998746966
 TTTTTTTTTTTTTTTTTTTTTTTTTTTTTT NUMDFT      TELAPSE     1146.42 TCPU     1062.63
 CYC  10 ETOT(AU) -9.247851504468E+03 DETOT -1.02E-04 tst  3.04E-07 PX  1.61E-03
 TTTTTTTTTTTTTTTTTTTTTTTTTTTTTT DIIS        TELAPSE     1146.88 TCPU     1063.08
 DIIS TEST: 0.99406E-04 AT SCF   CYCLE  10 - DIIS ACTIVE - HISTORY:    10 CYCLES
 TTTTTTTTTTTTTTTTTTTTTTTTTTTTTT FDIK        TELAPSE     1161.37 TCPU     1074.85
 INSULATING STATE
 TOP OF VALENCE BANDS -    BAND    244; K    4; EIG -2.4384144E-01 AU
 TOP OF VALENCE BANDS -    BAND    244; K    1; EIG -2.4705512E-01 AU
 BOTTOM OF VIRTUAL BANDS - BAND    245; K    1; EIG -1.2654438E-01 AU
 INDIRECT ENERGY BAND GAP:   3.1918 eV
 TTTTTTTTTTTTTTTTTTTTTTTTTTTTTT PDIG        TELAPSE     1162.09 TCPU     1075.57
 TOTAL ATOMIC CHARGES:
   1.1648527   1.1648527   1.1648527   1.1648527   1.2176896   1.2176896
   1.2176896   1.2176896   6.1716958   6.1716958   6.1716958   6.1716958
   5.8513140   5.8513140   5.8513140   5.8513140   6.2918945   6.2918945
   6.2918945   6.2918945   5.9827065   5.9827065   5.9827065   5.9827065
   5.4975812   5.4975812   5.4975812   5.4975812   5.4221333   5.4221333
   5.4221333   5.4221333   7.1857361   7.1857361   7.1857361   7.1857361
   7.0909411   7.0909411   7.0909411   7.0909411   7.1708348   7.1708348
   7.1708348   7.1708348   7.0404477   7.0404477   7.0404477   7.0404477
   7.0716098   7.0716098   7.0716098   7.0716098  17.2432173  17.2432173
  17.2432173  17.2432173  17.1869848  17.1869848  17.1869848  17.1869848
  28.8000507  28.8413922
 TTTTTTTTTTTTTTTTTTTTTTTTTTTTTT MOQGAD      TELAPSE     1162.14 TCPU     1075.61
 TTTTTTTTTTTTTTTTTTTTTTTTTTTTTT SHELLXN     TELAPSE     1233.78 TCPU     1144.59
 TTTTTTTTTTTTTTTTTTTTTTTTTTTTTT MONMO3      TELAPSE     1241.55 TCPU     1152.33
 NUMERICALLY INTEGRATED DENSITY    487.9998747341
 TTTTTTTTTTTTTTTTTTTTTTTTTTTTTT NUMDFT      TELAPSE     1247.85 TCPU     1158.62
 CYC  11 ETOT(AU) -9.247851515264E+03 DETOT -1.08E-05 tst  4.00E-08 PX  8.44E-04
 TTTTTTTTTTTTTTTTTTTTTTTTTTTTTT DIIS        TELAPSE     1248.23 TCPU     1159.00
 DIIS TEST: 0.20426E-04 AT SCF   CYCLE  11 - DIIS ACTIVE - HISTORY:    11 CYCLES
 TTTTTTTTTTTTTTTTTTTTTTTTTTTTTT FDIK        TELAPSE     1261.20 TCPU     1170.20
 INSULATING STATE
 TOP OF VALENCE BANDS -    BAND    244; K    4; EIG -2.4385081E-01 AU
 TOP OF VALENCE BANDS -    BAND    244; K    1; EIG -2.4706838E-01 AU
 BOTTOM OF VIRTUAL BANDS - BAND    245; K    1; EIG -1.2654995E-01 AU
 INDIRECT ENERGY BAND GAP:   3.1919 eV
 TTTTTTTTTTTTTTTTTTTTTTTTTTTTTT PDIG        TELAPSE     1261.92 TCPU     1170.92
 TOTAL ATOMIC CHARGES:
   1.1648556   1.1648556   1.1648556   1.1648556   1.2177009   1.2177009
   1.2177009   1.2177009   6.1724236   6.1724236   6.1724236   6.1724236
   5.8506806   5.8506806   5.8506806   5.8506806   6.2915833   6.2915833
   6.2915833   6.2915833   5.9825100   5.9825100   5.9825100   5.9825100
   5.4971197   5.4971197   5.4971197   5.4971197   5.4215103   5.4215103
   5.4215103   5.4215103   7.1872083   7.1872083   7.1872083   7.1872083
   7.0892990   7.0892990   7.0892990   7.0892990   7.1720481   7.1720481
   7.1720481   7.1720481   7.0395946   7.0395946   7.0395946   7.0395946
   7.0720512   7.0720512   7.0720512   7.0720512  17.2439389  17.2439389
  17.2439389  17.2439389  17.1870153  17.1870153  17.1870153  17.1870153
  28.8000573  28.8417844
 TTTTTTTTTTTTTTTTTTTTTTTTTTTTTT MOQGAD      TELAPSE     1261.97 TCPU     1170.96
 TTTTTTTTTTTTTTTTTTTTTTTTTTTTTT SHELLXN     TELAPSE     1333.47 TCPU     1239.78
 TTTTTTTTTTTTTTTTTTTTTTTTTTTTTT MONMO3      TELAPSE     1341.62 TCPU     1247.91
 NUMERICALLY INTEGRATED DENSITY    487.9998747142
 TTTTTTTTTTTTTTTTTTTTTTTTTTTTTT NUMDFT      TELAPSE     1347.94 TCPU     1254.20
 CYC  12 ETOT(AU) -9.247851516264E+03 DETOT -1.00E-06 tst  5.91E-08 PX  4.11E-04
 TTTTTTTTTTTTTTTTTTTTTTTTTTTTTT DIIS        TELAPSE     1348.57 TCPU     1254.84
 DIIS TEST: 0.16831E-04 AT SCF   CYCLE  12 - DIIS ACTIVE - HISTORY:    12 CYCLES
 TTTTTTTTTTTTTTTTTTTTTTTTTTTTTT FDIK        TELAPSE     1361.60 TCPU     1265.40
 INSULATING STATE
 TOP OF VALENCE BANDS -    BAND    244; K    4; EIG -2.4385519E-01 AU
 TOP OF VALENCE BANDS -    BAND    244; K    1; EIG -2.4706940E-01 AU
 BOTTOM OF VIRTUAL BANDS - BAND    245; K    1; EIG -1.2653966E-01 AU
 INDIRECT ENERGY BAND GAP:   3.1923 eV
 TTTTTTTTTTTTTTTTTTTTTTTTTTTTTT PDIG        TELAPSE     1362.33 TCPU     1266.13
 TOTAL ATOMIC CHARGES:
   1.1647942   1.1647942   1.1647942   1.1647942   1.2177011   1.2177011
   1.2177011   1.2177011   6.1724149   6.1724149   6.1724149   6.1724149
   5.8507272   5.8507272   5.8507272   5.8507272   6.2919747   6.2919747
   6.2919747   6.2919747   5.9823471   5.9823471   5.9823471   5.9823471
   5.4970149   5.4970149   5.4970149   5.4970149   5.4216175   5.4216175
   5.4216175   5.4216175   7.1862519   7.1862519   7.1862519   7.1862519
   7.0904138   7.0904138   7.0904138   7.0904138   7.1711151   7.1711151
   7.1711151   7.1711151   7.0400998   7.0400998   7.0400998   7.0400998
   7.0719189   7.0719189   7.0719189   7.0719189  17.2439143  17.2439143
  17.2439143  17.2439143  17.1871694  17.1871694  17.1871694  17.1871694
  28.8002668  28.8418337
 TTTTTTTTTTTTTTTTTTTTTTTTTTTTTT MOQGAD      TELAPSE     1362.38 TCPU     1266.17
 TTTTTTTTTTTTTTTTTTTTTTTTTTTTTT SHELLXN     TELAPSE     1433.04 TCPU     1335.07
 TTTTTTTTTTTTTTTTTTTTTTTTTTTTTT MONMO3      TELAPSE     1440.29 TCPU     1342.29
 NUMERICALLY INTEGRATED DENSITY    487.9998747248
 TTTTTTTTTTTTTTTTTTTTTTTTTTTTTT NUMDFT      TELAPSE     1446.59 TCPU     1348.55
 CYC  13 ETOT(AU) -9.247851518633E+03 DETOT -2.37E-06 tst  2.68E-08 PX  2.63E-04
 TTTTTTTTTTTTTTTTTTTTTTTTTTTTTT DIIS        TELAPSE     1447.14 TCPU     1349.10
[...]
 TTTTTTTTTTTTTTTTTTTTTTTTTTTTTT MOQGAD      TELAPSE   283997.42 TCPU   281788.25
 TTTTTTTTTTTTTTTTTTTTTTTTTTTTTT CP_MONMON   TELAPSE   284013.43 TCPU   281804.19
 DIIS TEST: 0.21115E+00 AT CPHF  CYCLE   5 - DIIS ACTIVE - HISTORY:     5 CYCLES
 CYCLE   5   ALPHA  617.171121  EPSILON    2.446904  DELTA    6.5507E-01
 TTTTTTTTTTTTTTTTTTTTTTTTTTTTTT MOQGAD      TELAPSE   284693.08 TCPU   282479.63
 TTTTTTTTTTTTTTTTTTTTTTTTTTTTTT CP_MONMON   TELAPSE   284709.24 TCPU   282495.72
 DIIS TEST: 0.82480E-01 AT CPHF  CYCLE   6 - DIIS ACTIVE - HISTORY:     6 CYCLES
 CYCLE   6   ALPHA  617.337853  EPSILON    2.447295  DELTA    1.6673E-01
 TTTTTTTTTTTTTTTTTTTTTTTTTTTTTT MOQGAD      TELAPSE   285386.46 TCPU   283168.16
 TTTTTTTTTTTTTTTTTTTTTTTTTTTTTT CP_MONMON   TELAPSE   285402.48 TCPU   283184.12
 DIIS TEST: 0.83174E-01 AT CPHF  CYCLE   7 - DIIS ACTIVE - HISTORY:     7 CYCLES
 CYCLE   7   ALPHA  617.496686  EPSILON    2.447668  DELTA    1.5883E-01
 TTTTTTTTTTTTTTTTTTTTTTTTTTTTTT MOQGAD      TELAPSE   286081.13 TCPU   283859.06
 TTTTTTTTTTTTTTTTTTTTTTTTTTTTTT CP_MONMON   TELAPSE   286097.16 TCPU   283875.01
 DIIS TEST: 0.47018E-01 AT CPHF  CYCLE   8 - DIIS ACTIVE - HISTORY:     8 CYCLES
 CYCLE   8   ALPHA  617.697300  EPSILON    2.448138  DELTA    2.0061E-01
 TTTTTTTTTTTTTTTTTTTTTTTTTTTTTT MOQGAD      TELAPSE   286780.92 TCPU   284553.51
 TTTTTTTTTTTTTTTTTTTTTTTTTTTTTT CP_MONMON   TELAPSE   286796.96 TCPU   284569.48
 DIIS TEST: 0.49160E-02 AT CPHF  CYCLE   9 - DIIS ACTIVE - HISTORY:     9 CYCLES
 CYCLE   9   ALPHA  617.781091  EPSILON    2.448334  DELTA    8.3791E-02
 TTTTTTTTTTTTTTTTTTTTTTTTTTTTTT MOQGAD      TELAPSE   287479.99 TCPU   285247.59
 TTTTTTTTTTTTTTTTTTTTTTTTTTTTTT CP_MONMON   TELAPSE   287496.10 TCPU   285263.58
 DIIS TEST: 0.10695E-02 AT CPHF  CYCLE  10 - DIIS ACTIVE - HISTORY:    10 CYCLES
 CYCLE  10   ALPHA  617.752851  EPSILON    2.448268  DELTA   -2.8240E-02
 TTTTTTTTTTTTTTTTTTTTTTTTTTTTTT MOQGAD      TELAPSE   288173.10 TCPU   285936.78
 TTTTTTTTTTTTTTTTTTTTTTTTTTTTTT CP_MONMON   TELAPSE   288189.24 TCPU   285952.87
 DIIS TEST: 0.19026E-03 AT CPHF  CYCLE  11 - DIIS ACTIVE - HISTORY:    11 CYCLES
 CYCLE  11   ALPHA  617.743697  EPSILON    2.448247  DELTA   -9.1541E-03
 TTTTTTTTTTTTTTTTTTTTTTTTTTTTTT MOQGAD      TELAPSE   288867.98 TCPU   286626.83
 TTTTTTTTTTTTTTTTTTTTTTTTTTTTTT CP_MONMON   TELAPSE   288884.13 TCPU   286642.94
 DIIS TEST: 0.25777E-04 AT CPHF  CYCLE  12 - DIIS ACTIVE - HISTORY:    12 CYCLES
 CYCLE  12   ALPHA  617.736723  EPSILON    2.448230  DELTA   -6.9743E-03
 TTTTTTTTTTTTTTTTTTTTTTTTTTTTTT MOQGAD      TELAPSE   289560.37 TCPU   287314.94
 TTTTTTTTTTTTTTTTTTTTTTTTTTTTTT CP_MONMON   TELAPSE   289576.42 TCPU   287330.95
 DIIS TEST: 0.67862E-05 AT CPHF  CYCLE  13 - DIIS ACTIVE - HISTORY:    13 CYCLES
 CYCLE  13   ALPHA  617.735509  EPSILON    2.448227  DELTA   -1.2144E-03
 TTTTTTTTTTTTTTTTTTTTTTTTTTTTTT MOQGAD      TELAPSE   290255.13 TCPU   288005.15
 TTTTTTTTTTTTTTTTTTTTTTTTTTTTTT CP_MONMON   TELAPSE   290271.27 TCPU   288021.26
 DIIS TEST: 0.53451E-05 AT CPHF  CYCLE  14 - DIIS ACTIVE - HISTORY:    14 CYCLES
 CYCLE  14   ALPHA  617.735382  EPSILON    2.448227  DELTA   -1.2697E-04
 TTTTTTTTTTTTTTTTTTTTTTTTTTTTTT CP_SC       TELAPSE   290320.29 TCPU   288069.43

 *******************************************************************************

 POLARIZABILITY (ALPHA), DIELECTRIC (EPSILON) AND FIRST-ORDER ELECTRIC
 SUSCEPTIBILITY (CHI(1)) TENSORS (INDEPENDENT COMPONENTS)

  FR.(eV) COMP.   ALPHA(Re,Im)           EPSILON(Re,Im)                CHI(1)
  1.435   XX    1120.2343       0.0000       3.6263       0.0000       2.6263
  1.435   ZZ     617.7354       0.0000       2.4482       0.0000       1.4482

 DIELECTRIC TENSOR

 TENSOR IN PRINCIPAL AXES SYSTEM
 AA  3.626292E+00 BB  3.626292E+00 CC  2.448227E+00

 REFRACTIVE INDICES 
 AA  1.564681E+00 BB  1.904283E+00 CC  1.904283E+00

 OPTICALLY ANISOTROPIC - UNIAXIAL CRYSTAL

 BIREFRINGENCE =  0.3396 (NEGATIVE) - OBLATE OPTICAL ELLIPSOID

 EPSILON=N**2=1+CHI(1)=1+ALPHA*4*PI/V,   4*PI/V=   0.00234 BOHR**(-3)
 ALPHA IN BOHR**3; EPSILON AND CHI(1) ARE DIMENSIONLESS.
 *******************************************************************************

 DYNAMIC FIELD: RUN 10/ 10 - RADIATION WAVELENGTH: 1064.0000 NM

 *******************************************************************************

 ELECTRIC FIELD APPLIED ALONG CARTESIAN DIRECTION X

 *******************************************************************************
 THE NUMBER OF SYMMETRY OPERATORS HAS BEEN REDUCED FROM  4 TO  1

 NEW GRID IN RECIPROCAL SPACE
 *******************************************************************************
 POINTS IN THE IBZ                  14 SHRINKING FACTORS               3  3  3
 *******************************************************************************
 *** K POINTS COORDINATES (OBLIQUE COORDINATES IN UNITS OF SHRINK FAC. )
   1-R(  0  0  0)   2-C(  1  0  0)   3-C(  0  1  2)   4-C(  2  0  1)
   5-C(  0  2  0)   6-C(  1  1  0)   7-C(  1  1  1)   8-C(  1  0  1)
   9-C(  0  1  1)  10-C(  2  1  0)  11-C(  0  0  2)  12-C(  2  1  1)
  13-C(  2  1  2)  14-C(  2  2  1)

 GCALCO - MAX INDICES DIRECT LATTICE VECTOR    14    14    16
 NO.OF VECTORS CREATED 6999 STARS  481 RMAX   207.87203 BOHR
 TTTTTTTTTTTTTTTTTTTTTTTTTTTTTT gordsh1     TELAPSE   290320.30 TCPU   288069.44

 MATRIX SIZE: P(G) 1774808, F(G)  888110, P(G) IRR  889764, F(G) IRR  889764
 MAX G-VECTOR INDEX FOR 1- AND 2-ELECTRON INTEGRALS  63

 TTTTTTTTTTTTTTTTTTTTTTTTTTTTTT INPUT       TELAPSE   290320.66 TCPU   288069.80
 TTTTTTTTTTTTTTTTTTTTTTTTTTTTTT SYMM        TELAPSE   290320.66 TCPU   288069.80

 ***** NEW REFERENCE GEOMETRY *****
 TTTTTTTTTTTTTTTTTTTTTTTTTTTTTT INT_SCREEN  TELAPSE   290320.68 TCPU   288069.81
 INFORMATION **** EXCBUF **** EXCH. BIPO BUFFER: WORDS USED =           0

 DFT PARAMETERS

     ATOM       ELECTRONS   NET CHARGE   R(ANGSTROM)
   1   1  H       1.0000      0.0000     1.11000000
   9   6  C       6.0000      0.0000     0.77000000
  33   7  N       7.0000      0.0000     0.74000000
  53  17  CL     17.0000      0.0000     0.99000000
  61  30  ZN     30.0000      0.0000     1.37000000

 SIZE OF GRID=    1902062
 TTTTTTTTTTTTTTTTTTTTTTTTTTTTTT MAKE_GRID2  TELAPSE   290322.88 TCPU   288072.01
 BECKE WEIGHT FUNCTION
 RADSAFE =     2.00
 TOLERANCES - DENSITY:10**- 6; POTENTIAL:10**- 9; GRID WGT:10**-14

 RADIAL INTEGRATION  - INTERVALS (POINTS,UPPER LIMIT):            1( 75,  4.0*R)

 ANGULAR INTEGRATION - INTERVALS (ACCURACY LEVEL [N. POINTS] UPPER LIMIT):
  1(  4[  86]   0.2)  2(  8[ 194]   0.5)  3( 12[ 350]   0.9)  4( 16[ 974]   3.5)
  5( 12[ 350]9999.0)
 TTTTTTTTTTTTTTTTTTTTTTTTTTTTTT INT_CALC    TELAPSE   290322.98 TCPU   288072.11
 CYCLE   0   ALPHA 1497.409191  EPSILON    4.510546  DELTA    1.4974E+03
 TTTTTTTTTTTTTTTTTTTTTTTTTTTTTT MOQGAD      TELAPSE   291672.07 TCPU   289415.94
 TTTTTTTTTTTTTTTTTTTTTTTTTTTTTT CP_MONMON   TELAPSE   291701.79 TCPU   289445.59
 DIIS TEST: 0.31081E+03 AT CPHF  CYCLE   1 - MIX    0 %
 CYCLE   1   ALPHA  338.856236  EPSILON    1.794419  DELTA   -1.1586E+03
 TTTTTTTTTTTTTTTTTTTTTTTTTTTTTT MOQGAD      TELAPSE   293064.45 TCPU   290803.52
 TTTTTTTTTTTTTTTTTTTTTTTTTTTTTT CP_MONMON   TELAPSE   293094.33 TCPU   290833.31
 DIIS TEST: 0.23266E+04 AT CPHF  CYCLE   2 - DIIS ACTIVE - HISTORY:     2 CYCLES
 CYCLE   2   ALPHA 1027.874362  EPSILON    3.409763  DELTA    6.8902E+02
 TTTTTTTTTTTTTTTTTTTTTTTTTTTTTT MOQGAD      TELAPSE   294456.29 TCPU   292188.10
 TTTTTTTTTTTTTTTTTTTTTTTTTTTTTT CP_MONMON   TELAPSE   294486.18 TCPU   292217.88
 DIIS TEST: 0.57203E+02 AT CPHF  CYCLE   3 - DIIS ACTIVE - HISTORY:     3 CYCLES
 CYCLE   3   ALPHA 1084.389710  EPSILON    3.542258  DELTA    5.6515E+01
 TTTTTTTTTTTTTTTTTTTTTTTTTTTTTT MOQGAD      TELAPSE   295852.32 TCPU   293577.20
 TTTTTTTTTTTTTTTTTTTTTTTTTTTTTT CP_MONMON   TELAPSE   295882.20 TCPU   293606.99
 DIIS TEST: 0.76080E+01 AT CPHF  CYCLE   4 - DIIS ACTIVE - HISTORY:     4 CYCLES
 CYCLE   4   ALPHA 1095.861641  EPSILON    3.569153  DELTA    1.1472E+01
 TTTTTTTTTTTTTTTTTTTTTTTTTTTTTT MOQGAD      TELAPSE   297245.66 TCPU   294964.79
 TTTTTTTTTTTTTTTTTTTTTTTTTTTTTT CP_MONMON   TELAPSE   297275.57 TCPU   294994.56
 DIIS TEST: 0.99371E+00 AT CPHF  CYCLE   5 - DIIS ACTIVE - HISTORY:     5 CYCLES
 CYCLE   5   ALPHA 1099.889244  EPSILON    3.578595  DELTA    4.0276E+00
 TTTTTTTTTTTTTTTTTTTTTTTTTTTTTT MOQGAD      TELAPSE   298640.70 TCPU   296354.55
 TTTTTTTTTTTTTTTTTTTTTTTTTTTTTT CP_MONMON   TELAPSE   298670.39 TCPU   296384.16
 DIIS TEST: 0.14906E+00 AT CPHF  CYCLE   6 - DIIS ACTIVE - HISTORY:     6 CYCLES
 CYCLE   6   ALPHA 1101.713521  EPSILON    3.582872  DELTA    1.8243E+00
 TTTTTTTTTTTTTTTTTTTTTTTTTTTTTT MOQGAD      TELAPSE   300031.66 TCPU   297741.51
 TTTTTTTTTTTTTTTTTTTTTTTTTTTTTT CP_MONMON   TELAPSE   300061.35 TCPU   297771.13
 DIIS TEST: 0.17107E-01 AT CPHF  CYCLE   7 - DIIS ACTIVE - HISTORY:     7 CYCLES
 CYCLE   7   ALPHA 1102.096741  EPSILON    3.583770  DELTA    3.8322E-01
 TTTTTTTTTTTTTTTTTTTTTTTTTTTTTT MOQGAD      TELAPSE   301423.84 TCPU   299129.21
 TTTTTTTTTTTTTTTTTTTTTTTTTTTTTT CP_MONMON   TELAPSE   301453.54 TCPU   299158.75
 DIIS TEST: 0.19728E-02 AT CPHF  CYCLE   8 - DIIS ACTIVE - HISTORY:     8 CYCLES
 CYCLE   8   ALPHA 1102.209498  EPSILON    3.584035  DELTA    1.1276E-01
 TTTTTTTTTTTTTTTTTTTTTTTTTTTTTT MOQGAD      TELAPSE   302819.07 TCPU   300516.95
 TTTTTTTTTTTTTTTTTTTTTTTTTTTTTT CP_MONMON   TELAPSE   302848.94 TCPU   300546.71
 DIIS TEST: 0.11407E-03 AT CPHF  CYCLE   9 - DIIS ACTIVE - HISTORY:     9 CYCLES
 CYCLE   9   ALPHA 1102.177470  EPSILON    3.583960  DELTA   -3.2028E-02
 TTTTTTTTTTTTTTTTTTTTTTTTTTTTTT MOQGAD      TELAPSE   304212.44 TCPU   301903.66
 TTTTTTTTTTTTTTTTTTTTTTTTTTTTTT CP_MONMON   TELAPSE   304242.20 TCPU   301933.35
 DIIS TEST: 0.21647E-04 AT CPHF  CYCLE  10 - DIIS ACTIVE - HISTORY:    10 CYCLES
 CYCLE  10   ALPHA 1102.166538  EPSILON    3.583934  DELTA   -1.0932E-02
 TTTTTTTTTTTTTTTTTTTTTTTTTTTTTT MOQGAD      TELAPSE   305603.88 TCPU   303289.74
 TTTTTTTTTTTTTTTTTTTTTTTTTTTTTT CP_MONMON   TELAPSE   305633.74 TCPU   303319.52
 DIIS TEST: 0.28839E-05 AT CPHF  CYCLE  11 - DIIS ACTIVE - HISTORY:    11 CYCLES
 CYCLE  11   ALPHA 1102.158677  EPSILON    3.583916  DELTA   -7.8611E-03
 TTTTTTTTTTTTTTTTTTTTTTTTTTTTTT MOQGAD      TELAPSE   306997.92 TCPU   304678.53
 TTTTTTTTTTTTTTTTTTTTTTTTTTTTTT CP_MONMON   TELAPSE   307027.62 TCPU   304708.12
 DIIS TEST: 0.51426E-06 AT CPHF  CYCLE  12 - DIIS ACTIVE - HISTORY:    12 CYCLES
 CYCLE  12   ALPHA 1102.157948  EPSILON    3.583914  DELTA   -7.2944E-04
 TTTTTTTTTTTTTTTTTTTTTTTTTTTTTT CP_SC       TELAPSE   307082.51 TCPU   304761.99

 *******************************************************************************

 ELECTRIC FIELD APPLIED ALONG CARTESIAN DIRECTION Z

 *******************************************************************************
 THE NUMBER OF SYMMETRY OPERATORS HAS BEEN REDUCED FROM  4 TO  2

 NEW GRID IN RECIPROCAL SPACE
 *******************************************************************************
 POINTS IN THE IBZ                  10 SHRINKING FACTORS               3  3  3
 *******************************************************************************
 *** K POINTS COORDINATES (OBLIQUE COORDINATES IN UNITS OF SHRINK FAC. )
   1-R(  0  0  0)   2-C(  1  0  0)   3-C(  2  0  1)   4-C(  1  1  0)
   5-C(  1  0  1)   6-C(  2  1  0)   7-C(  0  0  2)   8-C(  2  1  1)
   9-C(  2  1  2)  10-C(  2  2  1)

 GCALCO - MAX INDICES DIRECT LATTICE VECTOR    14    14    16
 NO.OF VECTORS CREATED 6999 STARS  481 RMAX   207.87203 BOHR
 TTTTTTTTTTTTTTTTTTTTTTTTTTTTTT gordsh1     TELAPSE   307082.53 TCPU   304762.00

 MATRIX SIZE: P(G) 1774808, F(G)  888110, P(G) IRR  447146, F(G) IRR  447146
 MAX G-VECTOR INDEX FOR 1- AND 2-ELECTRON INTEGRALS  63

 TTTTTTTTTTTTTTTTTTTTTTTTTTTTTT INPUT       TELAPSE   307082.63 TCPU   304762.11
 TTTTTTTTTTTTTTTTTTTTTTTTTTTTTT SYMM        TELAPSE   307082.63 TCPU   304762.11

 ***** NEW REFERENCE GEOMETRY *****
 TTTTTTTTTTTTTTTTTTTTTTTTTTTTTT INT_SCREEN  TELAPSE   307082.64 TCPU   304762.12
 INFORMATION **** EXCBUF **** EXCH. BIPO BUFFER: WORDS USED =           0

 DFT PARAMETERS

     ATOM       ELECTRONS   NET CHARGE   R(ANGSTROM)
   1   1  H       1.0000      0.0000     1.11000000
   9   6  C       6.0000      0.0000     0.77000000
  33   7  N       7.0000      0.0000     0.74000000
  53  17  CL     17.0000      0.0000     0.99000000
  61  30  ZN     30.0000      0.0000     1.37000000

 SIZE OF GRID=     951146
 TTTTTTTTTTTTTTTTTTTTTTTTTTTTTT MAKE_GRID2  TELAPSE   307083.94 TCPU   304763.42
 BECKE WEIGHT FUNCTION
 RADSAFE =     2.00
 TOLERANCES - DENSITY:10**- 6; POTENTIAL:10**- 9; GRID WGT:10**-14

 RADIAL INTEGRATION  - INTERVALS (POINTS,UPPER LIMIT):            1( 75,  4.0*R)

 ANGULAR INTEGRATION - INTERVALS (ACCURACY LEVEL [N. POINTS] UPPER LIMIT):
  1(  4[  86]   0.2)  2(  8[ 194]   0.5)  3( 12[ 350]   0.9)  4( 16[ 974]   3.5)
  5( 12[ 350]9999.0)
 TTTTTTTTTTTTTTTTTTTTTTTTTTTTTT INT_CALC    TELAPSE   307084.02 TCPU   304763.49
 CYCLE   0   ALPHA  792.734187  EPSILON    2.858497  DELTA    7.9273E+02
 TTTTTTTTTTTTTTTTTTTTTTTTTTTTTT MOQGAD      TELAPSE   307744.05 TCPU   305421.48
 TTTTTTTTTTTTTTTTTTTTTTTTTTTTTT CP_MONMON   TELAPSE   307760.17 TCPU   305437.56
 DIIS TEST: 0.13177E+03 AT CPHF  CYCLE   1 - MIX    0 %
 CYCLE   1   ALPHA  319.882130  EPSILON    1.749936  DELTA   -4.7285E+02
 TTTTTTTTTTTTTTTTTTTTTTTTTTTTTT MOQGAD      TELAPSE   308441.35 TCPU   306112.73
 TTTTTTTTTTTTTTTTTTTTTTTTTTTTTT CP_MONMON   TELAPSE   308457.47 TCPU   306128.79
 DIIS TEST: 0.11060E+04 AT CPHF  CYCLE   2 - DIIS ACTIVE - HISTORY:     2 CYCLES
 CYCLE   2   ALPHA  568.106195  EPSILON    2.331876  DELTA    2.4822E+02
 TTTTTTTTTTTTTTTTTTTTTTTTTTTTTT MOQGAD      TELAPSE   309132.10 TCPU   306800.21
 TTTTTTTTTTTTTTTTTTTTTTTTTTTTTT CP_MONMON   TELAPSE   309148.23 TCPU   306816.30
 DIIS TEST: 0.23470E+02 AT CPHF  CYCLE   3 - DIIS ACTIVE - HISTORY:     3 CYCLES
 CYCLE   3   ALPHA  608.760553  EPSILON    2.427186  DELTA    4.0654E+01
 TTTTTTTTTTTTTTTTTTTTTTTTTTTTTT MOQGAD      TELAPSE   309824.70 TCPU   307488.89
 TTTTTTTTTTTTTTTTTTTTTTTTTTTTTT CP_MONMON   TELAPSE   309840.87 TCPU   307505.02
 DIIS TEST: 0.35433E+01 AT CPHF  CYCLE   4 - DIIS ACTIVE - HISTORY:     4 CYCLES
 CYCLE   4   ALPHA  610.651711  EPSILON    2.431620  DELTA    1.8912E+00
 TTTTTTTTTTTTTTTTTTTTTTTTTTTTTT MOQGAD      TELAPSE   310514.98 TCPU   308176.05
 TTTTTTTTTTTTTTTTTTTTTTTTTTTTTT CP_MONMON   TELAPSE   310531.24 TCPU   308192.27
 DIIS TEST: 0.18233E+00 AT CPHF  CYCLE   5 - DIIS ACTIVE - HISTORY:     5 CYCLES
 CYCLE   5   ALPHA  611.304958  EPSILON    2.433152  DELTA    6.5325E-01
 TTTTTTTTTTTTTTTTTTTTTTTTTTTTTT MOQGAD      TELAPSE   311208.51 TCPU   308865.50
 TTTTTTTTTTTTTTTTTTTTTTTTTTTTTT CP_MONMON   TELAPSE   311224.67 TCPU   308881.62
 DIIS TEST: 0.64899E-01 AT CPHF  CYCLE   6 - DIIS ACTIVE - HISTORY:     6 CYCLES
 CYCLE   6   ALPHA  611.512678  EPSILON    2.433639  DELTA    2.0772E-01
 TTTTTTTTTTTTTTTTTTTTTTTTTTTTTT MOQGAD      TELAPSE   311900.09 TCPU   309550.91
 TTTTTTTTTTTTTTTTTTTTTTTTTTTTTT CP_MONMON   TELAPSE   311916.37 TCPU   309567.15
 DIIS TEST: 0.61885E-01 AT CPHF  CYCLE   7 - DIIS ACTIVE - HISTORY:     7 CYCLES
 CYCLE   7   ALPHA  611.613026  EPSILON    2.433874  DELTA    1.0035E-01
 TTTTTTTTTTTTTTTTTTTTTTTTTTTTTT MOQGAD      TELAPSE   312590.99 TCPU   310237.47
 TTTTTTTTTTTTTTTTTTTTTTTTTTTTTT CP_MONMON   TELAPSE   312607.15 TCPU   310253.58
 DIIS TEST: 0.38764E-01 AT CPHF  CYCLE   8 - DIIS ACTIVE - HISTORY:     8 CYCLES
 CYCLE   8   ALPHA  611.783394  EPSILON    2.434273  DELTA    1.7037E-01
 TTTTTTTTTTTTTTTTTTTTTTTTTTTTTT MOQGAD      TELAPSE   313285.28 TCPU   310927.13
 TTTTTTTTTTTTTTTTTTTTTTTTTTTTTT CP_MONMON   TELAPSE   313301.57 TCPU   310943.37
 DIIS TEST: 0.41426E-02 AT CPHF  CYCLE   9 - DIIS ACTIVE - HISTORY:     9 CYCLES
 CYCLE   9   ALPHA  611.855092  EPSILON    2.434441  DELTA    7.1698E-02
 TTTTTTTTTTTTTTTTTTTTTTTTTTTTTT MOQGAD      TELAPSE   313976.39 TCPU   311613.02
 TTTTTTTTTTTTTTTTTTTTTTTTTTTTTT CP_MONMON   TELAPSE   313992.54 TCPU   311629.13
 DIIS TEST: 0.89589E-03 AT CPHF  CYCLE  10 - DIIS ACTIVE - HISTORY:    10 CYCLES
 CYCLE  10   ALPHA  611.828722  EPSILON    2.434380  DELTA   -2.6370E-02
 TTTTTTTTTTTTTTTTTTTTTTTTTTTTTT MOQGAD      TELAPSE   314668.38 TCPU   312301.42
 TTTTTTTTTTTTTTTTTTTTTTTTTTTTTT CP_MONMON   TELAPSE   314684.56 TCPU   312317.54
 DIIS TEST: 0.13079E-03 AT CPHF  CYCLE  11 - DIIS ACTIVE - HISTORY:    11 CYCLES
 CYCLE  11   ALPHA  611.819831  EPSILON    2.434359  DELTA   -8.8904E-03
 TTTTTTTTTTTTTTTTTTTTTTTTTTTTTT MOQGAD      TELAPSE   315361.15 TCPU   312989.37
 TTTTTTTTTTTTTTTTTTTTTTTTTTTTTT CP_MONMON   TELAPSE   315377.35 TCPU   313005.45
 DIIS TEST: 0.17981E-04 AT CPHF  CYCLE  12 - DIIS ACTIVE - HISTORY:    12 CYCLES
 CYCLE  12   ALPHA  611.813582  EPSILON    2.434344  DELTA   -6.2492E-03
 TTTTTTTTTTTTTTTTTTTTTTTTTTTTTT MOQGAD      TELAPSE   316055.25 TCPU   313678.73
 TTTTTTTTTTTTTTTTTTTTTTTTTTTTTT CP_MONMON   TELAPSE   316071.39 TCPU   313694.82
 DIIS TEST: 0.44817E-05 AT CPHF  CYCLE  13 - DIIS ACTIVE - HISTORY:    13 CYCLES
 CYCLE  13   ALPHA  611.812268  EPSILON    2.434341  DELTA   -1.3140E-03
 TTTTTTTTTTTTTTTTTTTTTTTTTTTTTT MOQGAD      TELAPSE   316748.20 TCPU   314367.36
 TTTTTTTTTTTTTTTTTTTTTTTTTTTTTT CP_MONMON   TELAPSE   316764.38 TCPU   314383.47
 DIIS TEST: 0.30356E-05 AT CPHF  CYCLE  14 - DIIS ACTIVE - HISTORY:    14 CYCLES
 CYCLE  14   ALPHA  611.812176  EPSILON    2.434341  DELTA   -9.2262E-05
 TTTTTTTTTTTTTTTTTTTTTTTTTTTTTT CP_SC       TELAPSE   316812.18 TCPU   314430.44

 *******************************************************************************

 POLARIZABILITY (ALPHA), DIELECTRIC (EPSILON) AND FIRST-ORDER ELECTRIC
 SUSCEPTIBILITY (CHI(1)) TENSORS (INDEPENDENT COMPONENTS)

  FR.(eV) COMP.   ALPHA(Re,Im)           EPSILON(Re,Im)                CHI(1)
  1.165   XX    1102.1579       0.0000       3.5839       0.0000       2.5839
  1.165   ZZ     611.8122       0.0000       2.4343       0.0000       1.4343

 DIELECTRIC TENSOR

 TENSOR IN PRINCIPAL AXES SYSTEM
 AA  3.583914E+00 BB  3.583914E+00 CC  2.434341E+00

 REFRACTIVE INDICES 
 AA  1.560237E+00 BB  1.893123E+00 CC  1.893123E+00

 OPTICALLY ANISOTROPIC - UNIAXIAL CRYSTAL

 BIREFRINGENCE =  0.3329 (NEGATIVE) - OBLATE OPTICAL ELLIPSOID

 EPSILON=N**2=1+CHI(1)=1+ALPHA*4*PI/V,   4*PI/V=   0.00234 BOHR**(-3)
 ALPHA IN BOHR**3; EPSILON AND CHI(1) ARE DIMENSIONLESS.
 *******************************************************************************


 GCALCO - MAX INDICES DIRECT LATTICE VECTOR    14    14    16
 NO.OF VECTORS CREATED 6999 STARS  481 RMAX   207.87203 BOHR

 CAPPA:IS1  3;IS2  3;IS3  3; K PTS MONK NET   6; SYMMOPS:K SPACE   8;G SPACE   4

 TTTTTTTTTTTTTTTTTTTTTTTTTTTTTT END         TELAPSE   316812.24 TCPU   314430.45
 EEEEEEEEEE TERMINATION  DATE 08 12 2023 TIME 13:21:45.7
NODE    0 CPU TIME =    314430.448
NODE    1 CPU TIME =    314963.136
NODE    2 CPU TIME =    314963.365
NODE    3 CPU TIME =    314917.183
NODE    4 CPU TIME =    314786.477
NODE    5 CPU TIME =    314916.087
NODE    6 CPU TIME =    314961.853
NODE    7 CPU TIME =    314853.465
NODE    8 CPU TIME =    314749.718
NODE    9 CPU TIME =    314911.307
NODE   10 CPU TIME =    314921.472
NODE   11 CPU TIME =    314758.996
NODE   12 CPU TIME =    314581.082
NODE   13 CPU TIME =    314825.083
NODE   14 CPU TIME =    314811.741
NODE   15 CPU TIME =    314686.842
NODE   16 CPU TIME =    314529.477
NODE   17 CPU TIME =    314706.765
NODE   18 CPU TIME =    314659.093
NODE   19 CPU TIME =    314682.168
NODE   20 CPU TIME =    314524.372
NODE   21 CPU TIME =    314685.638
NODE   22 CPU TIME =    314631.697
NODE   23 CPU TIME =    314522.160
    TOTAL CPU TIME =   7553979.625
trying normal rsh (/usr/bin/rsh)
exec: No such file or directory
trying normal rsh (/usr/bin/rsh)
exec: No such file or directory
trying normal rsh (/usr/bin/rsh)
exec: No such file or directory
trying normal rsh (/usr/bin/rsh)
exec: No such file or directory
