Loading crystal17/1.0.2/intel/19.0
  Loading requirement: intel/19.0 ompi/4.0.1/intel/19.0
 PROCESS            0  OF           24  WORKING
 PROCESS           23  OF           24  WORKING
 PROCESS            1  OF           24  WORKING
 PROCESS            2  OF           24  WORKING
 PROCESS            3  OF           24  WORKING
 PROCESS            4  OF           24  WORKING
 PROCESS            6  OF           24  WORKING
 PROCESS            7  OF           24  WORKING
 PROCESS            8  OF           24  WORKING
 PROCESS            9  OF           24  WORKING
 PROCESS           10  OF           24  WORKING
 PROCESS           11  OF           24  WORKING
 PROCESS           13  OF           24  WORKING
 PROCESS           14  OF           24  WORKING
 PROCESS           19  OF           24  WORKING
 PROCESS           21  OF           24  WORKING
 PROCESS           22  OF           24  WORKING
 PROCESS            5  OF           24  WORKING
 PROCESS           15  OF           24  WORKING
 PROCESS           16  OF           24  WORKING
 PROCESS           17  OF           24  WORKING
 PROCESS           18  OF           24  WORKING
 PROCESS           20  OF           24  WORKING
 PROCESS           12  OF           24  WORKING

         
 *******************************************************************************
 *                                                                             *
 *                               CRYSTAL17                                     *
 *                      public : 1.0.2 - March 1st, 2018                       *
 *                       HTTP://WWW.CRYSTAL.UNITO.IT                           *
 *                                                                             *
 *                              MAIN AUTHORS                                   *
 *                                                                             *
 *  R. DOVESI(1,11), V.R. SAUNDERS(2), C. ROETTI(1,11), R. ORLANDO(1,11),      *
 *  C.M. ZICOVICH-WILSON(1,3), F. PASCALE(4), B. CIVALLERI(1,11),              *
 *  K. DOLL(5), N.M. HARRISON(2,6), I.J. BUSH(7), Ph. D'ARCO(8),               *
 *  M. LLUNELL(9), M. CAUSA'(10), Y. NOEL(8), L. MASCHIO(1,11), A. ERBA(1,11)  *
 *  M. RE'RAT(14), S. CASASSA(1,11)                                            *
 *                                                                             *
 *        CONTRIBUTIONS TO THE CODE HAVE ALSO BEEN GIVEN BY                    *
 *                                                                             *
 *  M. FERRABONE(1,11), M. DE LA PIERRE(1,11), M. FERRERO(1,11),               *
 *  J. BAIMA(1,11), E. ALBANESE(1,11), M.F. PEINTINGER(12), R. BAST(13),       *
 *  B. KIRTMAN(15), V. LACIVITA(1,11), R. DEMICHELIS(1,16)                     *
 *  G. BRANDEBURG(17), S. SALUSTRO(1,11), G. SANSONE(1,11)                     *
 *  M.T. RUGGIERO(18)                                                          *
 *                                                                             *
 * (1) THEORETICAL CHEMISTRY GROUP - UNIVERSITA' DI TORINO - TORINO (ITALY)    *
 * (2) COMPUTATIONAL SCIENCE & ENGINEERING DEPARTMENT - STFC DARESBURY (UK)    *
 * (3) UNIVERSIDAD AUTONOMA DEL ESTADO DE MORELOS - CUERNAVACA (MEXICO)        *
 * (4) UNIVERSITE' DE LORRAINE - NANCY (FRANCE)                                *
 * (5) UNIVERSITAET STUTTGART- STUTTGART (GERMANY)                             *
 * (6) IMPERIAL COLLEGE - LONDON (UK)                                          *
 * (7) OXFORD E-RESEARCH CENTRE - OXFORD (UK)                                  *
 * (8) UPMC - SORBONNE UNIVERSITES - PARIS (FRANCE)                            *
 * (9) UNIVERSIDAD DE BARCELONA - BARCELONA (SPAIN)                            *
 *(10) UNIVERSITA' DI NAPOLI "FEDERICO II" - NAPOLI (ITALY)                    *
 *(11) NIS - NANOSTRUCTURED INTERFACES AND SURFACES - TORINO (ITALY)           *
 *(12) MPI FUER CHEMISCHE ENERGIEKONVERSION - MUELHEIM AN DER RUHR (GERMANY)   *
 *(13) UNIVERSITY OF TROMSO - TROMSO (NORWAY)                                  *
 *(14) UNIVERSITE' DE PAU ET DES PAYS DE L'ADOUR - PAU (FRANCE)                *
 *(15) UNIVERSITY OF CALIFORNIA SANTA BARBARA - SANTA BARBARA (USA)            *
 *(16) CURTIN UNIVERSITY - PERTH (AUSTRALIA)                                   *
 *(17) UNIVERSITY COLLEGE LONDON - LONDON (UK)                                 *
 *(18) CAMBRIDGE UNIVERSITY - CAMBRIDGE (UK)                                   *
 *                                                                             *
 *******************************************************************************
 EEEEEEEEEE STARTING  DATE 04 12 2023 TIME 22:13:26.8
 Z:\home\sanoj\Downloads\tmp_p\newconn.mol                                       

 CRYSTAL CALCULATION
 (INPUT ACCORDING TO THE INTERNATIONAL TABLES FOR X-RAY CRYSTALLOGRAPHY)
 CRYSTAL FAMILY                       :  TETRAGONAL  
 CRYSTAL CLASS  (GROTH - 1921)        :  TETRAGONAL DISPHENOIDAL              

 SPACE GROUP (NONCENTROSYMMETRIC)     :  I -4            

 LATTICE PARAMETERS  (ANGSTROMS AND DEGREES) - CONVENTIONAL CELL
        A           B           C        ALPHA        BETA       GAMMA
    10.73044    10.73044    13.51546    90.00000    90.00000    90.00000


 NUMBER OF IRREDUCIBLE ATOMS IN THE CONVENTIONAL CELL:   17

 INPUT COORDINATES

 ATOM AT. N.              COORDINATES
   1   1     5.162000000000E-02  7.736400000000E-01  3.554900000000E-01
   2   1     8.372000000000E-02  5.417100000000E-01  3.436200000000E-01
   3   6     2.480000000000E-01  8.100600000000E-01  3.824600000000E-01
   4   6     2.397100000000E-01 -5.527000000000E-02  3.713900000000E-01
   5   6     1.441700000000E-01  7.328600000000E-01  3.656500000000E-01
   6   6     2.822300000000E-01  5.573600000000E-01  3.689900000000E-01
   7   6     3.619700000000E-01  7.493700000000E-01  3.991700000000E-01
   8   6     8.388600000000E-01  3.952000000000E-01  3.576800000000E-01
   9   7     3.179000000000E-01  1.668000000000E-02  3.163300000000E-01
  10   7     2.683300000000E-01  1.349000000000E-01  3.178200000000E-01
  11   7     1.459900000000E-01  1.640000000000E-02  4.069300000000E-01
  12   7     1.655600000000E-01  1.352500000000E-01  3.714400000000E-01
  13   7     3.797900000000E-01  6.278600000000E-01  3.926200000000E-01
  14  17     4.915800000000E-01  8.393900000000E-01  4.304500000000E-01
  15  17     3.073800000000E-01  3.988000000000E-01  3.553800000000E-01
  16  30     0.000000000000E+00  5.000000000000E-01  7.500000000000E-01
  17  30     0.000000000000E+00  0.000000000000E+00  5.000000000000E-01

 *******************************************************************************

 << INFORMATION >>: FROM NOW ON, ALL COORDINATES REFER TO THE PRIMITIVE CELL

 *******************************************************************************

 LATTICE PARAMETERS  (ANGSTROMS AND DEGREES) - PRIMITIVE CELL
       A          B          C        ALPHA      BETA     GAMMA        VOLUME
   10.16062   10.16062   10.16062   116.25364 116.25364  96.62143    778.101130

 COORDINATES OF THE EQUIVALENT ATOMS (FRACTIONAL UNITS)

 N. ATOM EQUIV AT. N.          X                  Y                  Z

   1   1   1    1 H     1.29130000000E-01  4.07110000000E-01 -1.74740000000E-01
   2   1   2    1 H    -4.18150000000E-01  3.03870000000E-01  1.74740000000E-01
   3   1   3    1 H    -4.07110000000E-01  4.18150000000E-01 -2.77980000000E-01
   4   1   4    1 H    -3.03870000000E-01 -1.29130000000E-01  2.77980000000E-01

   5   2   1    1 H    -1.14670000000E-01  4.27340000000E-01 -3.74570000000E-01
   6   2   2    1 H    -1.98090000000E-01  2.59900000000E-01  3.74570000000E-01
   7   2   3    1 H    -4.27340000000E-01  1.98090000000E-01  4.57990000000E-01
   8   2   4    1 H    -2.59900000000E-01  1.14670000000E-01 -4.57990000000E-01

   9   3   1    6 C     1.92520000000E-01 -3.69540000000E-01  5.80600000000E-02
  10   3   2    6 C    -4.27600000000E-01  1.34460000000E-01 -5.80600000000E-02
  11   3   3    6 C     3.69540000000E-01  4.27600000000E-01 -4.37940000000E-01
  12   3   4    6 C    -1.34460000000E-01 -1.92520000000E-01  4.37940000000E-01

  13   4   1    6 C     3.16120000000E-01 -3.88900000000E-01  1.84440000000E-01
  14   4   2    6 C     4.26660000000E-01  1.31680000000E-01 -1.84440000000E-01
  15   4   3    6 C     3.88900000000E-01 -4.26660000000E-01 -2.94980000000E-01
  16   4   4    6 C    -1.31680000000E-01 -3.16120000000E-01  2.94980000000E-01

  17   5   1    6 C     9.85100000000E-02 -4.90180000000E-01 -1.22970000000E-01
  18   5   2    6 C    -3.67210000000E-01  2.21480000000E-01  1.22970000000E-01
  19   5   3    6 C     4.90180000000E-01  3.67210000000E-01 -4.11310000000E-01
  20   5   4    6 C    -2.21480000000E-01 -9.85100000000E-02  4.11310000000E-01

  21   6   1    6 C    -7.36500000000E-02 -3.48780000000E-01 -1.60410000000E-01
  22   6   2    6 C    -1.88370000000E-01  8.67600000000E-02  1.60410000000E-01
  23   6   3    6 C     3.48780000000E-01  1.88370000000E-01  2.75130000000E-01
  24   6   4    6 C    -8.67600000000E-02  7.36500000000E-02 -2.75130000000E-01

  25   7   1    6 C     1.48540000000E-01 -2.38860000000E-01  1.11340000000E-01
  26   7   2    6 C    -3.50200000000E-01  3.72000000000E-02 -1.11340000000E-01
  27   7   3    6 C     2.38860000000E-01  3.50200000000E-01  3.87400000000E-01
  28   7   4    6 C    -3.72000000000E-02 -1.48540000000E-01 -3.87400000000E-01

  29   8   1    6 C    -2.47120000000E-01  1.96540000000E-01  2.34060000000E-01
  30   8   2    6 C    -3.75200000000E-02 -4.81180000000E-01 -2.34060000000E-01
  31   8   3    6 C    -1.96540000000E-01  3.75200000000E-02 -4.43660000000E-01
  32   8   4    6 C     4.81180000000E-01  2.47120000000E-01  4.43660000000E-01

  33   9   1    7 N     3.33010000000E-01 -3.65770000000E-01  3.34580000000E-01
  34   9   2    7 N     2.99650000000E-01 -1.57000000000E-03 -3.34580000000E-01
  35   9   3    7 N     3.65770000000E-01 -2.99650000000E-01 -3.01220000000E-01
  36   9   4    7 N     1.57000000000E-03 -3.33010000000E-01  3.01220000000E-01

  37  10   1    7 N     4.52720000000E-01 -4.13850000000E-01  4.03230000000E-01
  38  10   2    7 N     1.82920000000E-01  4.94900000000E-02 -4.03230000000E-01
  39  10   3    7 N     4.13850000000E-01 -1.82920000000E-01 -1.33430000000E-01
  40  10   4    7 N    -4.94900000000E-02 -4.52720000000E-01  1.33430000000E-01

  41  11   1    7 N     4.23330000000E-01 -4.47080000000E-01  1.62390000000E-01
  42  11   2    7 N     3.90530000000E-01  2.60940000000E-01 -1.62390000000E-01
  43  11   3    7 N     4.47080000000E-01 -3.90530000000E-01 -1.29590000000E-01
  44  11   4    7 N    -2.60940000000E-01 -4.23330000000E-01  1.29590000000E-01

  45  12   1    7 N    -4.93310000000E-01 -4.63000000000E-01  3.00810000000E-01
  46  12   2    7 N     2.36190000000E-01  2.05880000000E-01 -3.00810000000E-01
  47  12   3    7 N     4.63000000000E-01 -2.36190000000E-01 -3.03100000000E-02
  48  12   4    7 N    -2.05880000000E-01  4.93310000000E-01  3.03100000000E-02

  49  13   1    7 N     2.04800000000E-02 -2.27590000000E-01  7.65000000000E-03
  50  13   2    7 N    -2.35240000000E-01  1.28300000000E-02 -7.65000000000E-03
  51  13   3    7 N     2.27590000000E-01  2.35240000000E-01  2.48070000000E-01
  52  13   4    7 N    -1.28300000000E-02 -2.04800000000E-02 -2.48070000000E-01

  53  14   1   17 CL    2.69840000000E-01 -7.79700000000E-02  3.30970000000E-01
  54  14   2   17 CL   -4.08940000000E-01 -6.11300000000E-02 -3.30970000000E-01
  55  14   3   17 CL    7.79700000000E-02  4.08940000000E-01  3.47810000000E-01
  56  14   4   17 CL    6.11300000000E-02 -2.69840000000E-01 -3.47810000000E-01

  57  15   1   17 CL   -2.45820000000E-01 -3.37240000000E-01 -2.93820000000E-01
  58  15   2   17 CL   -4.34200000000E-02  4.80000000000E-02  2.93820000000E-01
  59  15   3   17 CL    3.37240000000E-01  4.34200000000E-02  9.14200000000E-02
  60  15   4   17 CL   -4.80000000000E-02  2.45820000000E-01 -9.14200000000E-02

  61  16   1   30 ZN    2.50000000000E-01 -2.50000000000E-01 -5.00000000000E-01

  62  17   1   30 ZN   -5.00000000000E-01 -5.00000000000E-01  0.00000000000E+00

 NUMBER OF SYMMETRY OPERATORS         :    4
 *******************************************************************************
 * GEOMETRY EDITING - INPUT COORDINATES ARE GIVEN IN ANGSTROM         
 *******************************************************************************

 GEOMETRY NOW FULLY CONSISTENT WITH THE GROUP

 GCALCO - MAX INDICES DIRECT LATTICE VECTOR    14    14    16
 NO.OF VECTORS CREATED 6999 STARS  482 RMAX   206.45467 BOHR

 GEOMETRY FOR WAVE FUNCTION - DIMENSIONALITY OF THE SYSTEM    3
 (NON PERIODIC DIRECTION: LATTICE PARAMETER FORMALLY SET TO 500)
 *******************************************************************************
 LATTICE PARAMETERS (ANGSTROMS AND DEGREES) - BOHR = 0.5291772083 ANGSTROM
 PRIMITIVE CELL - CENTRING CODE 6/0 VOLUME=   778.101130 - DENSITY  2.099 g/cm^3
         A              B              C           ALPHA      BETA       GAMMA 
    10.16061580    10.16061580    10.16061580   116.253642 116.253642  96.621425
 *******************************************************************************
 ATOMS IN THE ASYMMETRIC UNIT   17 - ATOMS IN THE UNIT CELL:   62
     ATOM                 X/A                 Y/B                 Z/C    
 *******************************************************************************
      1 T   1 H     1.291300000000E-01  4.071100000000E-01 -1.747400000000E-01
      2 F   1 H    -4.181500000000E-01  3.038700000000E-01  1.747400000000E-01
      3 F   1 H    -4.071100000000E-01  4.181500000000E-01 -2.779800000000E-01
      4 F   1 H    -3.038700000000E-01 -1.291300000000E-01  2.779800000000E-01
      5 T   1 H    -1.146700000000E-01  4.273400000000E-01 -3.745700000000E-01
      6 F   1 H    -1.980900000000E-01  2.599000000000E-01  3.745700000000E-01
      7 F   1 H    -4.273400000000E-01  1.980900000000E-01  4.579900000000E-01
      8 F   1 H    -2.599000000000E-01  1.146700000000E-01 -4.579900000000E-01
      9 T   6 C     1.925200000000E-01 -3.695400000000E-01  5.806000000000E-02
     10 F   6 C    -4.276000000000E-01  1.344600000000E-01 -5.806000000000E-02
     11 F   6 C     3.695400000000E-01  4.276000000000E-01 -4.379400000000E-01
     12 F   6 C    -1.344600000000E-01 -1.925200000000E-01  4.379400000000E-01
     13 T   6 C     3.161200000000E-01 -3.889000000000E-01  1.844400000000E-01
     14 F   6 C     4.266600000000E-01  1.316800000000E-01 -1.844400000000E-01
     15 F   6 C     3.889000000000E-01 -4.266600000000E-01 -2.949800000000E-01
     16 F   6 C    -1.316800000000E-01 -3.161200000000E-01  2.949800000000E-01
     17 T   6 C     9.851000000000E-02 -4.901800000000E-01 -1.229700000000E-01
     18 F   6 C    -3.672100000000E-01  2.214800000000E-01  1.229700000000E-01
     19 F   6 C     4.901800000000E-01  3.672100000000E-01 -4.113100000000E-01
     20 F   6 C    -2.214800000000E-01 -9.851000000000E-02  4.113100000000E-01
     21 T   6 C    -7.365000000000E-02 -3.487800000000E-01 -1.604100000000E-01
     22 F   6 C    -1.883700000000E-01  8.676000000000E-02  1.604100000000E-01
     23 F   6 C     3.487800000000E-01  1.883700000000E-01  2.751300000000E-01
     24 F   6 C    -8.676000000000E-02  7.365000000000E-02 -2.751300000000E-01
     25 T   6 C     1.485400000000E-01 -2.388600000000E-01  1.113400000000E-01
     26 F   6 C    -3.502000000000E-01  3.720000000000E-02 -1.113400000000E-01
     27 F   6 C     2.388600000000E-01  3.502000000000E-01  3.874000000000E-01
     28 F   6 C    -3.720000000000E-02 -1.485400000000E-01 -3.874000000000E-01
     29 T   6 C    -2.471200000000E-01  1.965400000000E-01  2.340600000000E-01
     30 F   6 C    -3.752000000000E-02 -4.811800000000E-01 -2.340600000000E-01
     31 F   6 C    -1.965400000000E-01  3.752000000000E-02 -4.436600000000E-01
     32 F   6 C     4.811800000000E-01  2.471200000000E-01  4.436600000000E-01
     33 T   7 N     3.330100000000E-01 -3.657700000000E-01  3.345800000000E-01
     34 F   7 N     2.996500000000E-01 -1.570000000000E-03 -3.345800000000E-01
     35 F   7 N     3.657700000000E-01 -2.996500000000E-01 -3.012200000000E-01
     36 F   7 N     1.570000000000E-03 -3.330100000000E-01  3.012200000000E-01
     37 T   7 N     4.527200000000E-01 -4.138500000000E-01  4.032300000000E-01
     38 F   7 N     1.829200000000E-01  4.949000000000E-02 -4.032300000000E-01
     39 F   7 N     4.138500000000E-01 -1.829200000000E-01 -1.334300000000E-01
     40 F   7 N    -4.949000000000E-02 -4.527200000000E-01  1.334300000000E-01
     41 T   7 N     4.233300000000E-01 -4.470800000000E-01  1.623900000000E-01
     42 F   7 N     3.905300000000E-01  2.609400000000E-01 -1.623900000000E-01
     43 F   7 N     4.470800000000E-01 -3.905300000000E-01 -1.295900000000E-01
     44 F   7 N    -2.609400000000E-01 -4.233300000000E-01  1.295900000000E-01
     45 T   7 N    -4.933100000000E-01 -4.630000000000E-01  3.008100000000E-01
     46 F   7 N     2.361900000000E-01  2.058800000000E-01 -3.008100000000E-01
     47 F   7 N     4.630000000000E-01 -2.361900000000E-01 -3.031000000000E-02
     48 F   7 N    -2.058800000000E-01  4.933100000000E-01  3.031000000000E-02
     49 T   7 N     2.048000000000E-02 -2.275900000000E-01  7.650000000000E-03
     50 F   7 N    -2.352400000000E-01  1.283000000000E-02 -7.650000000000E-03
     51 F   7 N     2.275900000000E-01  2.352400000000E-01  2.480700000000E-01
     52 F   7 N    -1.283000000000E-02 -2.048000000000E-02 -2.480700000000E-01
     53 T  17 CL    2.698400000000E-01 -7.797000000000E-02  3.309700000000E-01
     54 F  17 CL   -4.089400000000E-01 -6.113000000000E-02 -3.309700000000E-01
     55 F  17 CL    7.797000000000E-02  4.089400000000E-01  3.478100000000E-01
     56 F  17 CL    6.113000000000E-02 -2.698400000000E-01 -3.478100000000E-01
     57 T  17 CL   -2.458200000000E-01 -3.372400000000E-01 -2.938200000000E-01
     58 F  17 CL   -4.342000000000E-02  4.800000000000E-02  2.938200000000E-01
     59 F  17 CL    3.372400000000E-01  4.342000000000E-02  9.142000000000E-02
     60 F  17 CL   -4.800000000000E-02  2.458200000000E-01 -9.142000000000E-02
     61 T  30 ZN    2.500000000000E-01 -2.500000000000E-01 -5.000000000000E-01
     62 T  30 ZN    5.000000000000E-01  5.000000000000E-01  0.000000000000E+00

 TRANSFORMATION MATRIX PRIMITIVE-CRYSTALLOGRAPHIC CELL
  0.0000  1.0000  1.0000  1.0000  0.0000  1.0000  1.0000  1.0000  0.0000

 *******************************************************************************
 CRYSTALLOGRAPHIC CELL (VOLUME=       1556.20226004)
         A              B              C           ALPHA      BETA       GAMMA 
    10.73044062    10.73044062    13.51546307    90.000000  90.000000  90.000000

 COORDINATES IN THE CRYSTALLOGRAPHIC CELL
     ATOM                 X/A                 Y/B                 Z/C    
 *******************************************************************************
      1 T   1 H     5.162000000000E-02 -2.263600000000E-01  3.554900000000E-01
      2 F   1 H    -5.162000000000E-02  2.263600000000E-01  3.554900000000E-01
      3 F   1 H    -2.263600000000E-01 -5.162000000000E-02 -3.554900000000E-01
      4 F   1 H     2.263600000000E-01  5.162000000000E-02 -3.554900000000E-01
      5 T   1 H    -4.162800000000E-01  4.171000000000E-02 -1.563800000000E-01
      6 F   1 H     4.162800000000E-01 -4.171000000000E-02 -1.563800000000E-01
      7 F   1 H     4.171000000000E-02  4.162800000000E-01  1.563800000000E-01
      8 F   1 H    -4.171000000000E-02 -4.162800000000E-01  1.563800000000E-01
      9 T   6 C    -2.520000000000E-01  3.100600000000E-01 -1.175400000000E-01
     10 F   6 C     2.520000000000E-01 -3.100600000000E-01 -1.175400000000E-01
     11 F   6 C     3.100600000000E-01  2.520000000000E-01  1.175400000000E-01
     12 F   6 C    -3.100600000000E-01 -2.520000000000E-01  1.175400000000E-01
     13 T   6 C     2.397100000000E-01 -5.527000000000E-02  3.713900000000E-01
     14 F   6 C    -2.397100000000E-01  5.527000000000E-02  3.713900000000E-01
     15 F   6 C    -5.527000000000E-02 -2.397100000000E-01 -3.713900000000E-01
     16 F   6 C     5.527000000000E-02  2.397100000000E-01 -3.713900000000E-01
     17 T   6 C    -3.558300000000E-01  2.328600000000E-01 -1.343500000000E-01
     18 F   6 C     3.558300000000E-01 -2.328600000000E-01 -1.343500000000E-01
     19 F   6 C     2.328600000000E-01  3.558300000000E-01  1.343500000000E-01
     20 F   6 C    -2.328600000000E-01 -3.558300000000E-01  1.343500000000E-01
     21 T   6 C    -2.177700000000E-01  5.736000000000E-02 -1.310100000000E-01
     22 F   6 C     2.177700000000E-01 -5.736000000000E-02 -1.310100000000E-01
     23 F   6 C     5.736000000000E-02  2.177700000000E-01  1.310100000000E-01
     24 F   6 C    -5.736000000000E-02 -2.177700000000E-01  1.310100000000E-01
     25 T   6 C    -1.380300000000E-01  2.493700000000E-01 -1.008300000000E-01
     26 F   6 C     1.380300000000E-01 -2.493700000000E-01 -1.008300000000E-01
     27 F   6 C     2.493700000000E-01  1.380300000000E-01  1.008300000000E-01
     28 F   6 C    -2.493700000000E-01 -1.380300000000E-01  1.008300000000E-01
     29 T   6 C     3.388600000000E-01 -1.048000000000E-01 -1.423200000000E-01
     30 F   6 C    -3.388600000000E-01  1.048000000000E-01 -1.423200000000E-01
     31 F   6 C    -1.048000000000E-01 -3.388600000000E-01  1.423200000000E-01
     32 F   6 C     1.048000000000E-01  3.388600000000E-01  1.423200000000E-01
     33 T   7 N     3.179000000000E-01  1.668000000000E-02  3.163300000000E-01
     34 F   7 N    -3.179000000000E-01 -1.668000000000E-02  3.163300000000E-01
     35 F   7 N     1.668000000000E-02 -3.179000000000E-01 -3.163300000000E-01
     36 F   7 N    -1.668000000000E-02  3.179000000000E-01 -3.163300000000E-01
     37 T   7 N    -2.316700000000E-01 -3.651000000000E-01 -1.821800000000E-01
     38 F   7 N     2.316700000000E-01  3.651000000000E-01 -1.821800000000E-01
     39 F   7 N    -3.651000000000E-01  2.316700000000E-01  1.821800000000E-01
     40 F   7 N     3.651000000000E-01 -2.316700000000E-01  1.821800000000E-01
     41 T   7 N     1.459900000000E-01  1.640000000000E-02  4.069300000000E-01
     42 F   7 N    -1.459900000000E-01 -1.640000000000E-02  4.069300000000E-01
     43 F   7 N     1.640000000000E-02 -1.459900000000E-01 -4.069300000000E-01
     44 F   7 N    -1.640000000000E-02  1.459900000000E-01 -4.069300000000E-01
     45 T   7 N     1.655600000000E-01  1.352500000000E-01  3.714400000000E-01
     46 F   7 N    -1.655600000000E-01 -1.352500000000E-01  3.714400000000E-01
     47 F   7 N     1.352500000000E-01 -1.655600000000E-01 -3.714400000000E-01
     48 F   7 N    -1.352500000000E-01  1.655600000000E-01 -3.714400000000E-01
     49 T   7 N    -1.202100000000E-01  1.278600000000E-01 -1.073800000000E-01
     50 F   7 N     1.202100000000E-01 -1.278600000000E-01 -1.073800000000E-01
     51 F   7 N     1.278600000000E-01  1.202100000000E-01  1.073800000000E-01
     52 F   7 N    -1.278600000000E-01 -1.202100000000E-01  1.073800000000E-01
     53 T  17 CL   -8.420000000000E-03  3.393900000000E-01 -6.955000000000E-02
     54 F  17 CL    8.420000000000E-03 -3.393900000000E-01 -6.955000000000E-02
     55 F  17 CL    3.393900000000E-01  8.420000000000E-03  6.955000000000E-02
     56 F  17 CL   -3.393900000000E-01 -8.420000000000E-03  6.955000000000E-02
     57 T  17 CL   -1.926200000000E-01 -1.012000000000E-01 -1.446200000000E-01
     58 F  17 CL    1.926200000000E-01  1.012000000000E-01 -1.446200000000E-01
     59 F  17 CL   -1.012000000000E-01  1.926200000000E-01  1.446200000000E-01
     60 F  17 CL    1.012000000000E-01 -1.926200000000E-01  1.446200000000E-01
     61 T  30 ZN   -5.000000000000E-01  0.000000000000E+00  2.500000000000E-01
     62 T  30 ZN    0.000000000000E+00  0.000000000000E+00  5.000000000000E-01

 T = ATOM BELONGING TO THE ASYMMETRIC UNIT

 ****    4 SYMMOPS - TRANSLATORS IN FRACTIONAL UNITS
 **** MATRICES AND TRANSLATORS IN THE CRYSTALLOGRAPHIC REFERENCE FRAME
   V INV                    ROTATION MATRICES                   TRANSLATORS
   1   1  1.00  0.00  0.00  0.00  1.00  0.00  0.00  0.00  1.00  0.00  0.00  0.00
   2   2 -0.00  1.00 -1.00  1.00 -0.00 -1.00  0.00  0.00 -1.00  0.00  0.00  0.00
   3   4  0.00 -1.00 -0.00  0.00 -1.00  1.00  1.00 -1.00  0.00  0.00  0.00  0.00
   4   3 -1.00  0.00  1.00 -1.00  0.00 -0.00 -1.00  1.00  0.00  0.00  0.00  0.00

 DIRECT LATTICE VECTORS CARTESIAN COMPONENTS (ANGSTROM)
          X                    Y                    Z
  -0.536522031190E+01   0.536522031190E+01   0.675773153495E+01
   0.536522031190E+01  -0.536522031190E+01   0.675773153495E+01
   0.536522031190E+01   0.536522031190E+01  -0.675773153495E+01


 CARTESIAN COORDINATES - PRIMITIVE CELL
 *******************************************************************************
 *      ATOM          X(ANGSTROM)         Y(ANGSTROM)         Z(ANGSTROM)
 *******************************************************************************
    1     1 H     5.539053450006E-01 -2.428942539603E+00  4.804611966719E+00
    2     1 H    -5.539053450006E-01  2.428942539603E+00  4.804611966719E+00
    3     1 H    -2.428942539603E+00 -5.539053450006E-01 -4.804611966719E+00
    4     1 H     2.428942539603E+00  5.539053450006E-01 -4.804611966719E+00
    5     1 H    -4.466867822875E+00  4.475666784187E-01 -2.113548114871E+00
    6     1 H     4.466867822875E+00 -4.475666784187E-01 -2.113548114871E+00
    7     1 H     4.475666784187E-01  4.466867822875E+00  2.113548114871E+00
    8     1 H    -4.475666784187E-01 -4.466867822875E+00  2.113548114871E+00
    9     6 C    -2.704071037198E+00  3.327080419815E+00 -1.588607529236E+00
   10     6 C     2.704071037198E+00 -3.327080419815E+00 -1.588607529236E+00
   11     6 C     3.327080419815E+00  2.704071037198E+00  1.588607529236E+00
   12     6 C    -3.327080419815E+00 -2.704071037198E+00  1.588607529236E+00
   13     6 C     2.572193921931E+00 -5.930714532774E-01  5.019507829530E+00
   14     6 C    -2.572193921931E+00  5.930714532774E-01  5.019507829530E+00
   15     6 C    -5.930714532774E-01 -2.572193921931E+00 -5.019507829530E+00
   16     6 C     5.930714532774E-01  2.572193921931E+00 -5.019507829530E+00
   17     6 C    -3.818212687167E+00  2.498690403658E+00 -1.815802463441E+00
   18     6 C     3.818212687167E+00 -2.498690403658E+00 -1.815802463441E+00
   19     6 C     2.498690403658E+00  3.818212687167E+00  1.815802463441E+00
   20     6 C    -2.498690403658E+00 -3.818212687167E+00  1.815802463441E+00
   21     6 C    -2.336768054645E+00  6.154980741812E-01 -1.770660816788E+00
   22     6 C     2.336768054645E+00 -6.154980741812E-01 -1.770660816788E+00
   23     6 C     6.154980741812E-01  2.336768054645E+00  1.770660816788E+00
   24     6 C    -6.154980741812E-01 -2.336768054645E+00  1.770660816788E+00
   25     6 C    -1.481122719303E+00  2.675849978357E+00 -1.362764141338E+00
   26     6 C     1.481122719303E+00 -2.675849978357E+00 -1.362764141338E+00
   27     6 C     2.675849978357E+00  1.481122719303E+00  1.362764141338E+00
   28     6 C    -2.675849978357E+00 -1.481122719303E+00  1.362764141338E+00
   29     6 C     3.636117109781E+00 -1.124550177374E+00 -1.923520704108E+00
   30     6 C    -3.636117109781E+00  1.124550177374E+00 -1.923520704108E+00
   31     6 C    -1.124550177374E+00 -3.636117109781E+00  1.923520704108E+00
   32     6 C     1.124550177374E+00  3.636117109781E+00  1.923520704108E+00
   33     7 N     3.411207074306E+00  1.789837496050E-01  4.275346432901E+00
   34     7 N    -3.411207074306E+00 -1.789837496050E-01  4.275346432901E+00
   35     7 N     1.789837496050E-01 -3.411207074306E+00 -4.275346432901E+00
   36     7 N    -1.789837496050E-01  3.411207074306E+00 -4.275346432901E+00
   37     7 N    -2.485921179316E+00 -3.917683871749E+00 -2.462247062074E+00
   38     7 N     2.485921179316E+00  3.917683871749E+00 -2.462247062074E+00
   39     7 N    -3.917683871749E+00  2.485921179316E+00  2.462247062074E+00
   40     7 N     3.917683871749E+00 -2.485921179316E+00  2.462247062074E+00
   41     7 N     1.566537026669E+00  1.759792262303E-01  5.499847387034E+00
   42     7 N    -1.566537026669E+00 -1.759792262303E-01  5.499847387034E+00
   43     7 N     1.759792262303E-01 -1.566537026669E+00 -5.499847387034E+00
   44     7 N    -1.759792262303E-01  1.566537026669E+00 -5.499847387034E+00
   45     7 N     1.776531749676E+00  1.451292094369E+00  5.020183602684E+00
   46     7 N    -1.776531749676E+00 -1.451292094369E+00  5.020183602684E+00
   47     7 N     1.451292094369E+00 -1.776531749676E+00 -5.020183602684E+00
   48     7 N    -1.451292094369E+00  1.776531749676E+00 -5.020183602684E+00
   49     7 N    -1.289906267387E+00  1.371994138159E+00 -1.451290424446E+00
   50     7 N     1.289906267387E+00 -1.371994138159E+00 -1.451290424446E+00
   51     7 N     1.371994138159E+00  1.289906267387E+00  1.451290424446E+00
   52     7 N    -1.371994138159E+00 -1.289906267387E+00  1.451290424446E+00
   53    17 CL   -9.035031005240E-02  3.641804243311E+00 -9.400004565115E-01
   54    17 CL    9.035031005240E-02 -3.641804243311E+00 -9.400004565115E-01
   55    17 CL    3.641804243311E+00  9.035031005240E-02  9.400004565115E-01
   56    17 CL   -3.641804243311E+00 -9.035031005240E-02  9.400004565115E-01
   57    17 CL   -2.066897472956E+00 -1.085920591129E+00 -1.954606269169E+00
   58    17 CL    2.066897472956E+00  1.085920591129E+00 -1.954606269169E+00
   59    17 CL   -1.085920591129E+00  2.066897472956E+00  1.954606269169E+00
   60    17 CL    1.085920591129E+00 -2.066897472956E+00  1.954606269169E+00
   61    30 ZN    5.365220311900E+00  0.000000000000E+00 -1.013659730242E+01
   62    30 ZN    0.000000000000E+00  0.000000000000E+00  6.757731534950E+00

 *******************************************************************************
 STARTING BASIS SET HANDLING 
 *******************************************************************************

 Loading internal basis set: POB-DZVPP           

 Please cite in your publication:
 Peintinger, M. F., Oliveira, D. V. and Bredow, T. (2013), Generally applicable 
 solid-state Gaussian basis sets, in preparation                                
                                                                                
                    

 *******************************************************************************
 LOCAL ATOMIC FUNCTIONS BASIS SET
 *******************************************************************************
   ATOM   X(AU)   Y(AU)   Z(AU)  N. TYPE  EXPONENT  S COEF   P COEF   D/F/G COEF
 *******************************************************************************
   1 H    1.047  -4.590   9.079
                                  1 S  
                                         2.263E+01 1.441E-02 0.000E+00 0.000E+00
                                         3.236E+00 1.072E-01 0.000E+00 0.000E+00
                                         7.304E-01 3.846E-01 0.000E+00 0.000E+00
                                  2 S  
                                         1.417E-01 1.000E+00 0.000E+00 0.000E+00
                           3-     5 P  
                                         3.944E-01 0.000E+00 1.000E+00 0.000E+00
                           6-     8 P  
                                         1.006E-01 0.000E+00 1.000E+00 0.000E+00
   2 H   -1.047   4.590   9.079
   3 H   -4.590  -1.047  -9.079
   4 H    4.590   1.047  -9.079
   5 H   -8.441   0.846  -3.994
   6 H    8.441  -0.846  -3.994
   7 H    0.846   8.441   3.994
   8 H   -0.846  -8.441   3.994
   9 C   -5.110   6.287  -3.002
                                 65 S  
                                         1.238E+03 5.457E-03 0.000E+00 0.000E+00
                                         1.863E+02 4.064E-02 0.000E+00 0.000E+00
                                         4.225E+01 1.803E-01 0.000E+00 0.000E+00
                                         1.168E+01 4.632E-01 0.000E+00 0.000E+00
                                         3.593E+00 4.409E-01 0.000E+00 0.000E+00
                                 66 S  
                                         5.281E+00 1.000E+00 0.000E+00 0.000E+00
                                 67 S  
                                         4.447E-01 1.000E+00 0.000E+00 0.000E+00
                          68-    70 P  
                                         9.468E+00 0.000E+00 3.839E-02 0.000E+00
                                         2.010E+00 0.000E+00 2.112E-01 0.000E+00
                                         5.477E-01 0.000E+00 5.133E-01 0.000E+00
                          71-    73 P  
                                         1.604E-01 0.000E+00 1.000E+00 0.000E+00
                          74-    78 D  
                                         6.070E-01 0.000E+00 0.000E+00 1.000E+00
                          79-    83 D  
                                         2.939E-01 0.000E+00 0.000E+00 1.000E+00
  10 C    5.110  -6.287  -3.002
  11 C    6.287   5.110   3.002
  12 C   -6.287  -5.110   3.002
  13 C    4.861  -1.121   9.485
  14 C   -4.861   1.121   9.485
  15 C   -1.121  -4.861  -9.485
  16 C    1.121   4.861  -9.485
  17 C   -7.215   4.722  -3.431
  18 C    7.215  -4.722  -3.431
  19 C    4.722   7.215   3.431
  20 C   -4.722  -7.215   3.431
  21 C   -4.416   1.163  -3.346
  22 C    4.416  -1.163  -3.346
  23 C    1.163   4.416   3.346
  24 C   -1.163  -4.416   3.346
  25 C   -2.799   5.057  -2.575
  26 C    2.799  -5.057  -2.575
  27 C    5.057   2.799   2.575
  28 C   -5.057  -2.799   2.575
  29 C    6.871  -2.125  -3.635
  30 C   -6.871   2.125  -3.635
  31 C   -2.125  -6.871   3.635
  32 C    2.125   6.871   3.635
  33 N    6.446   0.338   8.079
                                521 S  
                                         1.713E+03-5.393E-03 0.000E+00 0.000E+00
                                         2.576E+02-4.022E-02 0.000E+00 0.000E+00
                                         5.846E+01-1.793E-01 0.000E+00 0.000E+00
                                         1.620E+01-4.638E-01 0.000E+00 0.000E+00
                                         5.005E+00-4.417E-01 0.000E+00 0.000E+00
                                522 S  
                                         6.217E-01 1.000E+00 0.000E+00 0.000E+00
                                523 S  
                                         2.921E-01 1.000E+00 0.000E+00 0.000E+00
                         524-   526 P  
                                         1.357E+01 0.000E+00-4.007E-02 0.000E+00
                                         2.926E+00 0.000E+00-2.181E-01 0.000E+00
                                         7.993E-01 0.000E+00-5.129E-01 0.000E+00
                         527-   529 P  
                                         2.244E-01 0.000E+00 1.000E+00 0.000E+00
                         530-   534 D  
                                         3.118E-01 0.000E+00 0.000E+00 1.000E+00
  34 N   -6.446  -0.338   8.079
  35 N    0.338  -6.446  -8.079
  36 N   -0.338   6.446  -8.079
  37 N   -4.698  -7.403  -4.653
  38 N    4.698   7.403  -4.653
  39 N   -7.403   4.698   4.653
  40 N    7.403  -4.698   4.653
  41 N    2.960   0.333  10.393
  42 N   -2.960  -0.333  10.393
  43 N    0.333  -2.960 -10.393
  44 N   -0.333   2.960 -10.393
  45 N    3.357   2.743   9.487
  46 N   -3.357  -2.743   9.487
  47 N    2.743  -3.357  -9.487
  48 N   -2.743   3.357  -9.487
  49 N   -2.438   2.593  -2.743
  50 N    2.438  -2.593  -2.743
  51 N    2.593   2.438   2.743
  52 N   -2.593  -2.438   2.743
  53 CL  -0.171   6.882  -1.776
                                801 S  
                                         1.045E+04 1.971E-03 0.000E+00 0.000E+00
                                         1.572E+03 1.475E-02 0.000E+00 0.000E+00
                                         3.571E+02 6.668E-02 0.000E+00 0.000E+00
                                         1.003E+02 1.723E-01 0.000E+00 0.000E+00
                                         3.081E+01 1.588E-01 0.000E+00 0.000E+00
                                802 S  
                                         5.192E+01-1.001E-01 0.000E+00 0.000E+00
                                         5.705E+00 6.084E-01 0.000E+00 0.000E+00
                                         2.351E+00 5.435E-01 0.000E+00 0.000E+00
                                803 S  
                                         4.886E-01 1.000E+00 0.000E+00 0.000E+00
                                804 S  
                                         1.984E-01 1.000E+00 0.000E+00 0.000E+00
                         805-   807 P  
                                         3.077E+02 0.000E+00-8.780E-03 0.000E+00
                                         7.210E+01 0.000E+00-6.356E-02 0.000E+00
                                         2.253E+01 0.000E+00-2.402E-01 0.000E+00
                                         7.899E+00 0.000E+00-4.780E-01 0.000E+00
                                         2.877E+00 0.000E+00-3.852E-01 0.000E+00
                         808-   810 P  
                                         9.483E-01 0.000E+00 1.000E+00 0.000E+00
                         811-   813 P  
                                         2.521E-01 0.000E+00 1.000E+00 0.000E+00
                         814-   818 D  
                                         9.722E-01 0.000E+00 0.000E+00 1.000E+00
                         819-   823 D  
                                         2.060E-01 0.000E+00 0.000E+00 1.000E+00
  54 CL   0.171  -6.882  -1.776
  55 CL   6.882   0.171   1.776
  56 CL  -6.882  -0.171   1.776
  57 CL  -3.906  -2.052  -3.694
  58 CL   3.906   2.052  -3.694
  59 CL  -2.052   3.906   3.694
  60 CL   2.052  -3.906   3.694
  61 ZN  10.139   0.000 -19.155
                                985 S  
                                         8.200E+04 1.421E-03 0.000E+00 0.000E+00
                                         1.231E+04 1.089E-02 0.000E+00 0.000E+00
                                         2.801E+03 5.406E-02 0.000E+00 0.000E+00
                                         7.910E+02 1.885E-01 0.000E+00 0.000E+00
                                         2.576E+02 3.835E-01 0.000E+00 0.000E+00
                                         8.881E+01 2.972E-01 0.000E+00 0.000E+00
                                986 S  
                                         1.719E+02-1.105E-01 0.000E+00 0.000E+00
                                         2.030E+01 6.461E-01 0.000E+00 0.000E+00
                                         8.346E+00 4.422E-01 0.000E+00 0.000E+00
                                987 S  
                                         1.485E+01-2.271E-01 0.000E+00 0.000E+00
                                         2.450E+00 7.243E-01 0.000E+00 0.000E+00
                                         9.985E-01 4.484E-01 0.000E+00 0.000E+00
                                988 S  
                                         1.493E+00 1.000E+00 0.000E+00 0.000E+00
                                989 S  
                                         1.830E-01 1.000E+00 0.000E+00 0.000E+00
                         990-   992 P  
                                         1.072E+03 0.000E+00 9.277E-03 0.000E+00
                                         2.527E+02 0.000E+00 6.954E-02 0.000E+00
                                         8.010E+01 0.000E+00 2.716E-01 0.000E+00
                                         2.890E+01 0.000E+00 5.340E-01 0.000E+00
                                         1.077E+01 0.000E+00 3.450E-01 0.000E+00
                         993-   995 P  
                                         5.645E+00 0.000E+00 3.413E-01 0.000E+00
                                         2.168E+00 0.000E+00 5.639E-01 0.000E+00
                                         8.054E-01 0.000E+00 2.368E-01 0.000E+00
                         996-   998 P  
                                         2.721E-01 0.000E+00 1.000E+00 0.000E+00
                         999-  1003 D  
                                         5.609E+01 0.000E+00 0.000E+00 2.959E-02
                                         1.575E+01 0.000E+00 0.000E+00 1.587E-01
                                         5.312E+00 0.000E+00 0.000E+00 3.798E-01
                                         1.774E+00 0.000E+00 0.000E+00 4.690E-01
                        1004-  1008 D  
                                         5.073E-01 0.000E+00 0.000E+00 1.000E+00
                        1009-  1015 F  
                                         2.814E+00 0.000E+00 0.000E+00 1.000E+00
                        1016-  1022 F  
                                         1.300E+00 0.000E+00 0.000E+00 1.000E+00
  62 ZN   0.000   0.000  12.770

 *******************************************************************************
 FINISHED BASIS SET HANDLING 
 *******************************************************************************

 INFORMATION **** SET_MPP **** PCRYSTAL CALCULATION
 INFORMATION **** READM2 **** NEW DEFAULT: FOCK/KS MATRIX MIXING SET TO 30 %
 INFORMATION **** READM2 **** NEW DEFAULT: FULL DIRECT SCF MODE
 INFORMATION **** READM2 **** NEW DEFAULT: COULOMB BIPOLAR BUFFER SET TO 32 Mb
 INFORMATION **** READM2 **** NEW DEFAULT: EXCHANGE BIPOLAR BUFFER SET TO 32 Mb

 *******************************************************************************
 NEW DEFAULT: DFT INTEGRATION GRID INCREASED TO XLGRID
 NEW DEFAULT: DIIS ACCELERATOR ACTIVE
 USE KEYWORD NODIIS TO TURN IT OFF
 *******************************************************************************

 INFORMATION **** DFTD3_INPUT **** PERFORM DISPERSION CORRECTION DFT-D3(BJ) IN THE BECKE-JOHNSON DAMPING SCHEME

 PLEASE CITE:
 (1) DFT-D3 Reference
  S. Grimme, J. Antony, S. Ehrlich, and H. Krieg, J. Chem. Phys. 132 (2010), 154104
 (2) BJ-Damping Reference
  S. Grimme, S. Ehrlich, and L. Goerigk, J. Comput. Chem. 32 (2011), 1456-1465
 (3) General DFT-D Review
  S. Grimme, A. Hansen, J. G. Brandenburg, and C. Bannwarth,
  Chem. Rev. 116 (2016), 5105-5154

 INFORMATION **** TOLINTEG **** COULOMB AND EXCHANGE SERIES TOLERANCES MODIFIED
 INFORMATION **** BIPOSIZE **** COULOMB BIPOLAR BUFFER SET TO   100000000
 INFORMATION **** MAXCYCLE **** MAX NUMBER OF SCF CYCLES SET TO          50
 *******************************************************************************
 N. OF ATOMS PER CELL        62  COULOMB OVERLAP TOL         (T1) 10**  -12
 NUMBER OF SHELLS           416  COULOMB PENETRATION TOL     (T2) 10**  -12
 NUMBER OF AO              1060  EXCHANGE OVERLAP TOL        (T3) 10**   20
 N. OF ELECTRONS PER CELL   488  EXCHANGE PSEUDO OVP (F(G))  (T4) 10**   20
 CORE ELECTRONS PER CELL    204  EXCHANGE PSEUDO OVP (P(G))  (T5) 10**   20
 N. OF SYMMETRY OPERATORS     4  POLE ORDER IN MONO ZONE                  4
 *******************************************************************************
 TYPE OF CALCULATION :  RESTRICTED CLOSED SHELL
 KOHN-SHAM HAMILTONIAN

 (EXCHANGE)[CORRELATION] FUNCTIONAL:(PERDEW-BURKE-ERNZERHOF)[PERDEW-BURKE-ERNZERHOF]


 CAPPA:IS1  3;IS2  3;IS3  3; K PTS MONK NET   6; SYMMOPS:K SPACE   8;G SPACE   4

 *******************************************************************************
 MAX NUMBER OF SCF CYCLES      50  CONVERGENCE ON DELTAP        10**-16
 WEIGHT OF F(I) IN F(I+1)      30% CONVERGENCE ON ENERGY        10**- 6
 SHRINK. FACT.(MONKH.)    3  3  3  NUMBER OF K POINTS IN THE IBZ      6
 SHRINKING FACTOR(GILAT NET)    3  NUMBER OF K POINTS(GILAT NET)      6
 *******************************************************************************
 *** K POINTS COORDINATES (OBLIQUE COORDINATES IN UNITS OF IS =  3)
   1-R(  0  0  0)   2-C(  1  0  0)   3-C(  1  1  0)   4-C(  2  1  0)
   5-C(  2  1  1)   6-C(  2  2  1)

 DIRECT LATTICE VECTORS COMPON. (A.U.)     RECIP. LATTICE VECTORS COMPON. (A.U.) 
        X            Y            Z              X            Y            Z
  -10.1387970   10.1387970   12.7702619      0.0000000    0.3098585    0.2460085
   10.1387970  -10.1387970   12.7702619      0.3098585    0.0000000    0.2460085
   10.1387970   10.1387970  -12.7702619      0.3098585    0.3098585    0.0000000

 DISK SPACE FOR EIGENVECTORS (FTN 10)    12359600 REALS

 SYMMETRY ADAPTION OF THE BLOCH FUNCTIONS ENABLED
 TTTTTTTTTTTTTTTTTTTTTTTTTTTTTT gordsh1     TELAPSE       22.96 TCPU        0.05

 MATRIX SIZE: P(G) 1810924, F(G)  906168, P(G) IRR  228994, F(G) IRR  228994
 MAX G-VECTOR INDEX FOR 1- AND 2-ELECTRON INTEGRALS  63

 TTTTTTTTTTTTTTTTTTTTTTTTTTTTTT INPUT       TELAPSE       23.03 TCPU        0.12

 NEIGHBORS OF THE NON-EQUIVALENT ATOMS

 N = NUMBER OF NEIGHBORS AT DISTANCE R
    ATOM  N     R/ANG      R/AU   NEIGHBORS (ATOM LABELS AND CELL INDICES)
   1 H    1     1.0939     2.0671   17 C    0 1 0
   1 H    1     2.1597     4.0812   30 C    0 1 0
   1 H    1     2.1740     4.1082    9 C    0 1 0
   1 H    1     2.5176     4.7575    5 H    0 1 0
   1 H    1     2.5364     4.7931   46 N    0 0 0
   1 H    1     2.7368     5.1718   13 C    0 0 0

   5 H    1     1.0884     2.0567   30 C    0 0 0
   5 H    1     2.0073     3.7933    6 H    0-1-1
   5 H    1     2.1640     4.0895   21 C    0 0 0
   5 H    1     2.1718     4.1040   17 C    0 0 0
   5 H    1     2.5176     4.7575    1 H    0-1 0
   5 H    1     2.8525     5.3904   57 CL   0 0 0

   9 C    1     1.4038     2.6528   25 C    0 0 0
   9 C    1     1.4068     2.6585   17 C    0 0 0
   9 C    1     1.4555     2.7505   13 C    0-1 0
   9 C    1     2.1740     4.1082    1 H    0-1 0
   9 C    1     2.4150     4.5636   30 C    0 0 0
   9 C    1     2.4168     4.5672   49 N    0 0 0

  13 C    1     1.3541     2.5588   41 N    0 0 0
  13 C    1     1.3615     2.5729   33 N    0 0 0
  13 C    1     1.4555     2.7505    9 C    0 1 0
  13 C    1     2.1869     4.1327   37 N    1 1 1
  13 C    1     2.1937     4.1456   45 N    0 0 0
  13 C    1     2.4951     4.7151   17 C    0 1 0

  17 C    1     1.0939     2.0671    1 H    0-1 0
  17 C    1     1.3903     2.6273   30 C    0 0 0
  17 C    1     1.4068     2.6585    9 C    0 0 0
  17 C    1     2.1718     4.1040    5 H    0 0 0
  17 C    1     2.3872     4.5111   25 C    0 0 0
  17 C    1     2.3965     4.5287   21 C    0 0 0

  21 C    1     1.3305     2.5143   49 N    0 0 0
  21 C    1     1.4039     2.6529   30 C    0 0 0
  21 C    1     1.7325     3.2739   57 CL   0 0 0
  21 C    1     2.1640     4.0895    5 H    0 0 0
  21 C    1     2.2679     4.2858   25 C    0 0 0
  21 C    1     2.3965     4.5287   17 C    0 0 0

  25 C    1     1.3208     2.4959   49 N    0 0 0
  25 C    1     1.4038     2.6528    9 C    0 0 0
  25 C    1     1.7453     3.2981   53 CL   0 0 0
  25 C    1     2.2679     4.2858   21 C    0 0 0
  25 C    1     2.3872     4.5111   17 C    0 0 0
  25 C    1     2.5013     4.7268   13 C    0-1 0

  29 C    1     1.0884     2.0567    6 H    0 0 0
  29 C    1     1.3903     2.6273   18 C    0 0 0
  29 C    1     1.4039     2.6529   22 C    0 0 0
  29 C    1     2.1597     4.0812    2 H   -1 0 0
  29 C    1     2.4060     4.5467   50 N    0 0 0
  29 C    1     2.4150     4.5636   10 C    0 0 0

  33 N    1     1.3615     2.5729   13 C    0 0 0
  33 N    1     1.3757     2.5997   37 N    1 1 1
  33 N    1     2.1573     4.0767   61 ZN   1 1 0
  33 N    1     2.2013     4.1599   45 N    0 0 0
  33 N    1     2.2141     4.1840   41 N    0 0 0
  33 N    1     2.5054     4.7345    9 C    0 1 0

  37 N    1     1.3196     2.4937   45 N   -1-1-1
  37 N    1     1.3757     2.5997   33 N   -1-1-1
  37 N    1     2.1869     4.1327   13 C   -1-1-1
  37 N    1     2.1888     4.1362   41 N   -1-1-1
  37 N    1     2.9073     5.4939   57 CL   0 0 0
  37 N    1     2.9400     5.5557   27 C   -1-1-1

  41 N    1     1.3541     2.5588   13 C    0 0 0
  41 N    1     1.3786     2.6052   45 N    0 0 0
  41 N    1     2.0167     3.8111   62 ZN   0 0 0
  41 N    1     2.1888     4.1362   37 N    1 1 1
  41 N    1     2.2141     4.1840   33 N    0 0 0
  41 N    1     2.4920     4.7091    9 C    0 1 0

  45 N    1     1.3196     2.4937   37 N    1 1 1
  45 N    1     1.3786     2.6052   41 N    0 0 0
  45 N    1     2.1937     4.1456   13 C    0 0 0
  45 N    1     2.2013     4.1599   33 N    0 0 0
  45 N    1     2.5364     4.7931    2 H    0 0 0
  45 N    1     2.8777     5.4381   62 ZN   0 0 0

  49 N    1     1.3208     2.4959   25 C    0 0 0
  49 N    1     1.3305     2.5143   21 C    0 0 0
  49 N    1     2.4060     4.5467   30 C    0 0 0
  49 N    1     2.4168     4.5672    9 C    0 0 0
  49 N    1     2.6177     4.9467   53 CL   0 0 0
  49 N    1     2.6265     4.9633   57 CL   0 0 0

  53 CL   1     1.7453     3.2981   25 C    0 0 0
  53 CL   1     2.6177     4.9467   49 N    0 0 0
  53 CL   1     2.7113     5.1237    9 C    0 0 0
  53 CL   1     2.9877     5.6459   61 ZN   1 0 0
  53 CL   1     2.9906     5.6514   34 N    0 0 1
  53 CL   1     3.0051     5.6788   38 N    0 0 0

  57 CL   1     1.7325     3.2739   21 C    0 0 0
  57 CL   1     2.6265     4.9633   49 N    0 0 0
  57 CL   1     2.7110     5.1231   30 C    0 0 0
  57 CL   1     2.8525     5.3904    5 H    0 0 0
  57 CL   1     2.9073     5.4939   37 N    0 0 0
  57 CL   1     2.9218     5.5213    3 H    0 0 0

  61 ZN   4     2.1573     4.0767   33 N   -1-1 0   34 N   -1 0 1   35 N    0 0 1
                                    36 N   -1 0 0
  61 ZN   4     2.9877     5.6459   53 CL  -1 0 0   54 CL   0 0 1   55 CL  -1-1 0
                                    56 CL  -1 0 1
  61 ZN   4     3.0192     5.7054   37 N    0 0 1   38 N   -1 0 0   39 N   -1 0 1
                                    40 N   -1-1 0
  61 ZN   4     3.2931     6.2230   13 C   -1-1 0   14 C   -1 0 1   15 C    0 0 1
                                    16 C   -1 0 0
  61 ZN   4     3.6730     6.9410   25 C   -1 0 0   26 C    0 0 1   27 C   -1-1 0
                                    28 C   -1 0 1
  61 ZN   4     3.8303     7.2382    9 C   -1 0 0   10 C    0 0 1   11 C   -1-1 0
                                    12 C   -1 0 1

  62 ZN   4     2.0167     3.8111   41 N    0 0 0   42 N    0 0 0   43 N    1 1 0
                                    44 N    1 1 0
  62 ZN   4     2.8777     5.4381   45 N    0 0 0   46 N    0 0 0   47 N    1 1 0
                                    48 N    1 1 0
  62 ZN   4     3.1606     5.9727   13 C    0 0 0   14 C    0 0 0   15 C    1 1 0
                                    16 C    1 1 0
  62 ZN   4     3.1656     5.9822    1 H    0 0 0    2 H    0 0 0    3 H    1 1 0
                                     4 H    1 1 0
  62 ZN   4     3.7094     7.0097    9 C    0 1 0   10 C    1 0 0   11 C    0 0-1
                                    12 C    1 1 1
  62 ZN   4     3.7293     7.0473   17 C    0 1 0   18 C    1 0 0   19 C    0 0-1
                                    20 C    1 1 1


 SYMMETRY ALLOWED INTERNAL DEGREE(S) OF FREEDOM:  45
 TTTTTTTTTTTTTTTTTTTTTTTTTTTTTT SYMM        TELAPSE       23.45 TCPU        0.53
 TTTTTTTTTTTTTTTTTTTTTTTTTTTTTT INT_SCREEN  TELAPSE       23.46 TCPU        0.54
 INFORMATION **** EXCBUF **** EXCH. BIPO BUFFER: WORDS USED =           0

 DFT PARAMETERS

     ATOM       ELECTRONS   NET CHARGE   R(ANGSTROM)
   1   1  H       1.0000      0.0000     1.11000000
   9   6  C       6.0000      0.0000     0.77000000
  33   7  N       7.0000      0.0000     0.74000000
  53  17  CL     17.0000      0.0000     0.99000000
  61  30  ZN     30.0000      0.0000     1.37000000

 SIZE OF GRID=     472640
 TTTTTTTTTTTTTTTTTTTTTTTTTTTTTT MAKE_GRID2  TELAPSE       24.29 TCPU        1.37
 BECKE WEIGHT FUNCTION
 RADSAFE =     2.00
 TOLERANCES - DENSITY:10**- 6; POTENTIAL:10**- 9; GRID WGT:10**-14

 RADIAL INTEGRATION  - INTERVALS (POINTS,UPPER LIMIT):            1( 75,  4.0*R)

 ANGULAR INTEGRATION - INTERVALS (ACCURACY LEVEL [N. POINTS] UPPER LIMIT):
  1(  4[  86]   0.2)  2(  8[ 194]   0.5)  3( 12[ 350]   0.9)  4( 16[ 974]   3.5)
  5( 12[ 350]9999.0)
 TTTTTTTTTTTTTTTTTTTTTTTTTTTTTT INT_CALC    TELAPSE       24.34 TCPU        1.42
 EEEEEEEEEE INT_CALC TERMINATION  DATE 04 12 2023 TIME 22:13:51.0

 *******************************************************************************
 Z:\home\sanoj\Downloads\tmp_p\newconn.mol                                       
 CRYSTAL - SCF - TYPE OF CALCULATION :  RESTRICTED CLOSED SHELL
 *******************************************************************************

 CAPPA:IS1  3;IS2  3;IS3  3; K PTS MONK NET   6; SYMMOPS:K SPACE   8;G SPACE   4

 TTTTTTTTTTTTTTTTTTTTTTTTTTTTTT SDIK        TELAPSE       24.58 TCPU        1.66

 AAAAAAAAAAAAAAAAAAAAAAAAAAAAAAAAAAAAAAAAAAAAAAAAAAAAAAAAAAAAAAAAAAAAAAAAAAAAAAA
         ATOMIC WAVEFUNCTION(S)


 NUCLEAR CHARGE  1.0  SYMMETRY SPECIES            S
 N. ELECTRONS    1.0  NUMBER OF PRIMITIVE GTOS    4
                      NUMBER OF CONTRACTED GTOS   2
                      NUMBER OF CLOSED SHELLS     0
                      OPEN SHELL OCCUPATION       1

  ZNUC SCFIT  TOTAL HF ENERGY   KINETIC ENERGY   VIRIAL THEOREM ACCURACY
   1.0   1   -4.946643675E-01  4.917913167E-01 -2.005842012E+00  9.4E-17

 NUCLEAR CHARGE  6.0  SYMMETRY SPECIES            S    P
 N. ELECTRONS    6.0  NUMBER OF PRIMITIVE GTOS    7    4
                      NUMBER OF CONTRACTED GTOS   3    2
                      NUMBER OF CLOSED SHELLS     2    0
                      OPEN SHELL OCCUPATION       0    2

  ZNUC SCFIT  TOTAL HF ENERGY   KINETIC ENERGY   VIRIAL THEOREM ACCURACY
   6.0   6   -3.750912652E+01  3.905246519E+01 -1.960480378E+00  3.7E-06

 NUCLEAR CHARGE  7.0  SYMMETRY SPECIES            S    P
 N. ELECTRONS    7.0  NUMBER OF PRIMITIVE GTOS    7    4
                      NUMBER OF CONTRACTED GTOS   3    2
                      NUMBER OF CLOSED SHELLS     2    0
                      OPEN SHELL OCCUPATION       0    3

  ZNUC SCFIT  TOTAL HF ENERGY   KINETIC ENERGY   VIRIAL THEOREM ACCURACY
   7.0   9   -5.432196661E+01  5.425066284E+01 -2.001314339E+00  1.2E-06

 NUCLEAR CHARGE 17.0  SYMMETRY SPECIES            S    P
 N. ELECTRONS   17.0  NUMBER OF PRIMITIVE GTOS   10    7
                      NUMBER OF CONTRACTED GTOS   4    3
                      NUMBER OF CLOSED SHELLS     3    1
                      OPEN SHELL OCCUPATION       0    5

  ZNUC SCFIT  TOTAL HF ENERGY   KINETIC ENERGY   VIRIAL THEOREM ACCURACY
  17.0   9   -4.593005957E+02  4.593991532E+02 -1.999785464E+00  2.3E-06

 NUCLEAR CHARGE 30.0  SYMMETRY SPECIES            S    P    D
 N. ELECTRONS   30.0  NUMBER OF PRIMITIVE GTOS   14    9    5
                      NUMBER OF CONTRACTED GTOS   5    3    2
                      NUMBER OF CLOSED SHELLS     4    2    1
                      OPEN SHELL OCCUPATION       0    0    0

  ZNUC SCFIT  TOTAL HF ENERGY   KINETIC ENERGY   VIRIAL THEOREM ACCURACY
  30.0  10   -1.777404290E+03  1.777325716E+03 -2.000044209E+00  2.5E-06

 AAAAAAAAAAAAAAAAAAAAAAAAAAAAAAAAAAAAAAAAAAAAAAAAAAAAAAAAAAAAAAAAAAAAAAAAAAAAAAA

 TOTAL ATOMIC CHARGES:
   1.0000000   1.0000000   1.0000000   1.0000000   1.0000000   1.0000000
   1.0000000   1.0000000   6.0000000   6.0000000   6.0000000   6.0000000
   6.0000000   6.0000000   6.0000000   6.0000000   6.0000000   6.0000000
   6.0000000   6.0000000   6.0000000   6.0000000   6.0000000   6.0000000
   6.0000000   6.0000000   6.0000000   6.0000000   6.0000000   6.0000000
   6.0000000   6.0000000   7.0000000   7.0000000   7.0000000   7.0000000
   7.0000000   7.0000000   7.0000000   7.0000000   7.0000000   7.0000000
   7.0000000   7.0000000   7.0000000   7.0000000   7.0000000   7.0000000
   7.0000000   7.0000000   7.0000000   7.0000000  17.0000000  17.0000000
  17.0000000  17.0000000  17.0000000  17.0000000  17.0000000  17.0000000
  30.0000000  30.0000000
 TTTTTTTTTTTTTTTTTTTTTTTTTTTTTT MOQGAD      TELAPSE       28.54 TCPU        5.59
 TTTTTTTTTTTTTTTTTTTTTTTTTTTTTT SHELLXN     TELAPSE       98.96 TCPU       67.24
 TTTTTTTTTTTTTTTTTTTTTTTTTTTTTT MONMO3      TELAPSE      106.87 TCPU       75.14
 NUMERICALLY INTEGRATED DENSITY    488.0000527896
 TTTTTTTTTTTTTTTTTTTTTTTTTTTTTT NUMDFT      TELAPSE      109.26 TCPU       77.52
 CYC   0 ETOT(AU) -9.251420978549E+03 DETOT -9.25E+03 tst  0.00E+00 PX  1.00E+00
 TTTTTTTTTTTTTTTTTTTTTTTTTTTTTT DIIS        TELAPSE      109.35 TCPU       77.61
 TTTTTTTTTTTTTTTTTTTTTTTTTTTTTT FDIK        TELAPSE      150.08 TCPU      117.42
 INSULATING STATE
 TOP OF VALENCE BANDS -    BAND    244; K    3; EIG -1.2705533E-01 AU
 TOP OF VALENCE BANDS -    BAND    244; K    1; EIG -1.2835743E-01 AU
 BOTTOM OF VIRTUAL BANDS - BAND    245; K    6; EIG -9.5299903E-02 AU
 INDIRECT ENERGY BAND GAP:   0.8641 eV
 BOTTOM OF VIRTUAL BANDS - BAND    245; K    1; EIG -9.1204231E-02 AU
 TTTTTTTTTTTTTTTTTTTTTTTTTTTTTT PDIG        TELAPSE      150.80 TCPU      118.13
 TOTAL ATOMIC CHARGES:
   1.2359016   1.2359016   1.2359016   1.2359016   1.1834197   1.1834197
   1.1834197   1.1834197   6.2591309   6.2591309   6.2591309   6.2591309
   5.4927286   5.4927286   5.4927286   5.4927286   6.1401890   6.1401890
   6.1401890   6.1401890   4.9972855   4.9972855   4.9972855   4.9972855
   5.0420219   5.0420219   5.0420219   5.0420219   6.2376857   6.2376857
   6.2376857   6.2376857   7.4267614   7.4267614   7.4267614   7.4267614
   7.1846482   7.1846482   7.1846482   7.1846482   7.3981806   7.3981806
   7.3981806   7.3981806   7.1594841   7.1594841   7.1594841   7.1594841
   7.6449613   7.6449613   7.6449613   7.6449613  17.3255704  17.3255704
  17.3255704  17.3255704  17.3008631  17.3008631  17.3008631  17.3008631
  28.0050782  27.8795940
 TTTTTTTTTTTTTTTTTTTTTTTTTTTTTT MOQGAD      TELAPSE      150.85 TCPU      118.18
 TTTTTTTTTTTTTTTTTTTTTTTTTTTTTT SHELLXN     TELAPSE      225.18 TCPU      189.87
 TTTTTTTTTTTTTTTTTTTTTTTTTTTTTT MONMO3      TELAPSE      239.95 TCPU      204.60
 NUMERICALLY INTEGRATED DENSITY    488.0000609277
 TTTTTTTTTTTTTTTTTTTTTTTTTTTTTT NUMDFT      TELAPSE      246.31 TCPU      210.93
 CYC   1 ETOT(AU) -9.246101156262E+03 DETOT  5.32E+00 tst  0.00E+00 PX  1.00E+00
 TTTTTTTTTTTTTTTTTTTTTTTTTTTTTT DIIS        TELAPSE      246.66 TCPU      211.28
 DIIS TEST: 0.97458E+01 AT SCF   CYCLE   1 - MIX   30 %
 TTTTTTTTTTTTTTTTTTTTTTTTTTTTTT FDIK        TELAPSE      263.97 TCPU      222.70
 INSULATING STATE
 TOP OF VALENCE BANDS -    BAND    244; K    1; EIG -1.8355890E-01 AU
 BOTTOM OF VIRTUAL BANDS - BAND    245; K    6; EIG -1.2564486E-01 AU
 INDIRECT ENERGY BAND GAP:   1.5759 eV
 BOTTOM OF VIRTUAL BANDS - BAND    245; K    1; EIG -1.2390616E-01 AU
 TTTTTTTTTTTTTTTTTTTTTTTTTTTTTT PDIG        TELAPSE      264.68 TCPU      223.40
 TOTAL ATOMIC CHARGES:
   1.2058151   1.2058151   1.2058151   1.2058151   1.1356948   1.1356948
   1.1356948   1.1356948   6.1852448   6.1852448   6.1852448   6.1852448
   6.3056250   6.3056250   6.3056250   6.3056250   6.2241925   6.2241925
   6.2241925   6.2241925   6.0667610   6.0667610   6.0667610   6.0667610
   6.1940803   6.1940803   6.1940803   6.1940803   5.8172818   5.8172818
   5.8172818   5.8172818   6.8625634   6.8625634   6.8625634   6.8625634
   6.8982649   6.8982649   6.8982649   6.8982649   6.9397196   6.9397196
   6.9397196   6.9397196   6.8538540   6.8538540   6.8538540   6.8538540
   6.1788936   6.1788936   6.1788936   6.1788936  17.2441882  17.2441882
  17.2441882  17.2441882  17.0999185  17.0999185  17.0999185  17.0999185
  29.4843542  29.6672565
 TTTTTTTTTTTTTTTTTTTTTTTTTTTTTT MOQGAD      TELAPSE      264.73 TCPU      223.45
 TTTTTTTTTTTTTTTTTTTTTTTTTTTTTT SHELLXN     TELAPSE      339.43 TCPU      295.33
 TTTTTTTTTTTTTTTTTTTTTTTTTTTTTT MONMO3      TELAPSE      350.46 TCPU      306.33
 NUMERICALLY INTEGRATED DENSITY    488.0000593700
 TTTTTTTTTTTTTTTTTTTTTTTTTTTTTT NUMDFT      TELAPSE      356.78 TCPU      312.63
 CYC   2 ETOT(AU) -9.245211535366E+03 DETOT  8.90E-01 tst  3.09E-02 PX  6.97E-01
 TTTTTTTTTTTTTTTTTTTTTTTTTTTTTT DIIS        TELAPSE      357.41 TCPU      313.26
 DIIS TEST: 0.14245E+02 AT SCF   CYCLE   2 - DIIS ACTIVE - HISTORY:     2 CYCLES
 TTTTTTTTTTTTTTTTTTTTTTTTTTTTTT FDIK        TELAPSE      371.07 TCPU      326.72
 INSULATING STATE
 TOP OF VALENCE BANDS -    BAND    244; K    1; EIG -2.3094671E-01 AU
 BOTTOM OF VIRTUAL BANDS - BAND    245; K    6; EIG -1.1755913E-01 AU
 INDIRECT ENERGY BAND GAP:   3.0854 eV
 BOTTOM OF VIRTUAL BANDS - BAND    245; K    1; EIG -1.1731251E-01 AU
 TTTTTTTTTTTTTTTTTTTTTTTTTTTTTT PDIG        TELAPSE      371.78 TCPU      327.43
 TOTAL ATOMIC CHARGES:
   1.1799020   1.1799020   1.1799020   1.1799020   1.1171216   1.1171216
   1.1171216   1.1171216   6.0182068   6.0182068   6.0182068   6.0182068
   5.7745332   5.7745332   5.7745332   5.7745332   6.1131989   6.1131989
   6.1131989   6.1131989   5.5894293   5.5894293   5.5894293   5.5894293
   5.4555179   5.4555179   5.4555179   5.4555179   6.0810573   6.0810573
   6.0810573   6.0810573   7.1231545   7.1231545   7.1231545   7.1231545
   7.1581392   7.1581392   7.1581392   7.1581392   7.0469343   7.0469343
   7.0469343   7.0469343   7.1114406   7.1114406   7.1114406   7.1114406
   7.3907870   7.3907870   7.3907870   7.3907870  17.1786520  17.1786520
  17.1786520  17.1786520  17.1525457  17.1525457  17.1525457  17.1525457
  28.9498983  29.0876204
 TTTTTTTTTTTTTTTTTTTTTTTTTTTTTT MOQGAD      TELAPSE      371.83 TCPU      327.48
 TTTTTTTTTTTTTTTTTTTTTTTTTTTTTT SHELLXN     TELAPSE      445.68 TCPU      398.56
 TTTTTTTTTTTTTTTTTTTTTTTTTTTTTT MONMO3      TELAPSE      457.56 TCPU      410.36
 NUMERICALLY INTEGRATED DENSITY    488.0000624842
 TTTTTTTTTTTTTTTTTTTTTTTTTTTTTT NUMDFT      TELAPSE      463.89 TCPU      416.65
 CYC   3 ETOT(AU) -9.247644764719E+03 DETOT -2.43E+00 tst  5.64E-03 PX  5.70E-01
 TTTTTTTTTTTTTTTTTTTTTTTTTTTTTT DIIS        TELAPSE      464.12 TCPU      416.88
 DIIS TEST: 0.17400E+01 AT SCF   CYCLE   3 - DIIS ACTIVE - HISTORY:     3 CYCLES
 TTTTTTTTTTTTTTTTTTTTTTTTTTTTTT FDIK        TELAPSE      483.34 TCPU      428.29
 INSULATING STATE
 TOP OF VALENCE BANDS -    BAND    244; K    5; EIG -2.3640287E-01 AU
 TOP OF VALENCE BANDS -    BAND    244; K    1; EIG -2.3889970E-01 AU
 BOTTOM OF VIRTUAL BANDS - BAND    245; K    2; EIG -1.2122770E-01 AU
 INDIRECT ENERGY BAND GAP:   3.1341 eV
 BOTTOM OF VIRTUAL BANDS - BAND    245; K    1; EIG -1.1983039E-01 AU
 TTTTTTTTTTTTTTTTTTTTTTTTTTTTTT PDIG        TELAPSE      484.04 TCPU      428.99
 TOTAL ATOMIC CHARGES:
   1.1617933   1.1617933   1.1617933   1.1617933   1.1383981   1.1383981
   1.1383981   1.1383981   6.2664516   6.2664516   6.2664516   6.2664516
   5.8307289   5.8307289   5.8307289   5.8307289   6.2691895   6.2691895
   6.2691895   6.2691895   5.3679042   5.3679042   5.3679042   5.3679042
   5.4959954   5.4959954   5.4959954   5.4959954   6.1056960   6.1056960
   6.1056960   6.1056960   7.1990636   7.1990636   7.1990636   7.1990636
   7.0425778   7.0425778   7.0425778   7.0425778   7.2191777   7.2191777
   7.2191777   7.2191777   7.0354781   7.0354781   7.0354781   7.0354781
   7.0239188   7.0239188   7.0239188   7.0239188  17.2427361  17.2427361
  17.2427361  17.2427361  17.2053157  17.2053157  17.2053157  17.2053157
  28.7660981  28.8162026
 TTTTTTTTTTTTTTTTTTTTTTTTTTTTTT MOQGAD      TELAPSE      484.09 TCPU      429.04
 TTTTTTTTTTTTTTTTTTTTTTTTTTTTTT SHELLXN     TELAPSE      559.12 TCPU      500.17
 TTTTTTTTTTTTTTTTTTTTTTTTTTTTTT MONMO3      TELAPSE      569.05 TCPU      510.07
 NUMERICALLY INTEGRATED DENSITY    488.0000615256
 TTTTTTTTTTTTTTTTTTTTTTTTTTTTTT NUMDFT      TELAPSE      575.41 TCPU      516.41
 CYC   4 ETOT(AU) -9.247792813050E+03 DETOT -1.48E-01 tst  1.86E-03 PX  1.24E-01
 TTTTTTTTTTTTTTTTTTTTTTTTTTTTTT DIIS        TELAPSE      575.98 TCPU      516.98
 DIIS TEST: 0.75195E+00 AT SCF   CYCLE   4 - DIIS ACTIVE - HISTORY:     4 CYCLES
 TTTTTTTTTTTTTTTTTTTTTTTTTTTTTT FDIK        TELAPSE      588.87 TCPU      528.22
 INSULATING STATE
 TOP OF VALENCE BANDS -    BAND    244; K    5; EIG -2.4079085E-01 AU
 TOP OF VALENCE BANDS -    BAND    244; K    1; EIG -2.4222697E-01 AU
 BOTTOM OF VIRTUAL BANDS - BAND    245; K    1; EIG -1.2187969E-01 AU
 INDIRECT ENERGY BAND GAP:   3.2357 eV
 TTTTTTTTTTTTTTTTTTTTTTTTTTTTTT PDIG        TELAPSE      589.59 TCPU      528.94
 TOTAL ATOMIC CHARGES:
   1.1709485   1.1709485   1.1709485   1.1709485   1.1295319   1.1295319
   1.1295319   1.1295319   6.1704593   6.1704593   6.1704593   6.1704593
   5.8382474   5.8382474   5.8382474   5.8382474   6.1873488   6.1873488
   6.1873488   6.1873488   5.5191869   5.5191869   5.5191869   5.5191869
   5.5700368   5.5700368   5.5700368   5.5700368   6.0536600   6.0536600
   6.0536600   6.0536600   7.1540262   7.1540262   7.1540262   7.1540262
   7.1070139   7.1070139   7.1070139   7.1070139   7.1267770   7.1267770
   7.1267770   7.1267770   7.0389569   7.0389569   7.0389569   7.0389569
   7.1161828   7.1161828   7.1161828   7.1161828  17.2362325  17.2362325
  17.2362325  17.2362325  17.1827758  17.1827758  17.1827758  17.1827758
  28.7742626  28.8201984
 TTTTTTTTTTTTTTTTTTTTTTTTTTTTTT MOQGAD      TELAPSE      589.64 TCPU      528.98
 TTTTTTTTTTTTTTTTTTTTTTTTTTTTTT SHELLXN     TELAPSE      663.35 TCPU      600.25
 TTTTTTTTTTTTTTTTTTTTTTTTTTTTTT MONMO3      TELAPSE      675.32 TCPU      612.20
 NUMERICALLY INTEGRATED DENSITY    488.0000610347
 TTTTTTTTTTTTTTTTTTTTTTTTTTTTTT NUMDFT      TELAPSE      681.61 TCPU      618.48
 CYC   5 ETOT(AU) -9.247893911420E+03 DETOT -1.01E-01 tst  5.52E-04 PX  6.87E-02
 TTTTTTTTTTTTTTTTTTTTTTTTTTTTTT DIIS        TELAPSE      681.97 TCPU      618.83
 DIIS TEST: 0.68677E-01 AT SCF   CYCLE   5 - DIIS ACTIVE - HISTORY:     5 CYCLES
 TTTTTTTTTTTTTTTTTTTTTTTTTTTTTT FDIK        TELAPSE      696.34 TCPU      630.71
 INSULATING STATE
 TOP OF VALENCE BANDS -    BAND    244; K    6; EIG -2.3837826E-01 AU
 TOP OF VALENCE BANDS -    BAND    244; K    1; EIG -2.3964106E-01 AU
 BOTTOM OF VIRTUAL BANDS - BAND    245; K    2; EIG -1.2068372E-01 AU
 INDIRECT ENERGY BAND GAP:   3.2026 eV
 BOTTOM OF VIRTUAL BANDS - BAND    245; K    1; EIG -1.1981032E-01 AU
 TTTTTTTTTTTTTTTTTTTTTTTTTTTTTT PDIG        TELAPSE      697.04 TCPU      631.41
 TOTAL ATOMIC CHARGES:
   1.1695309   1.1695309   1.1695309   1.1695309   1.1293975   1.1293975
   1.1293975   1.1293975   6.1700952   6.1700952   6.1700952   6.1700952
   5.8259045   5.8259045   5.8259045   5.8259045   6.2167357   6.2167357
   6.2167357   6.2167357   5.4978757   5.4978757   5.4978757   5.4978757
   5.5106107   5.5106107   5.5106107   5.5106107   6.0756298   6.0756298
   6.0756298   6.0756298   7.1422714   7.1422714   7.1422714   7.1422714
   7.0714605   7.0714605   7.0714605   7.0714605   7.1622646   7.1622646
   7.1622646   7.1622646   7.0701563   7.0701563   7.0701563   7.0701563
   7.1242965   7.1242965   7.1242965   7.1242965  17.2330351  17.2330351
  17.2330351  17.2330351  17.1839778  17.1839778  17.1839778  17.1839778
  28.8011445  28.8658869
 TTTTTTTTTTTTTTTTTTTTTTTTTTTTTT MOQGAD      TELAPSE      697.09 TCPU      631.46
 TTTTTTTTTTTTTTTTTTTTTTTTTTTTTT SHELLXN     TELAPSE      769.64 TCPU      702.38
 TTTTTTTTTTTTTTTTTTTTTTTTTTTTTT MONMO3      TELAPSE      782.04 TCPU      714.74
 NUMERICALLY INTEGRATED DENSITY    488.0000612156
 TTTTTTTTTTTTTTTTTTTTTTTTTTTTTT NUMDFT      TELAPSE      788.32 TCPU      721.01
 CYC   6 ETOT(AU) -9.247902148053E+03 DETOT -8.24E-03 tst  3.65E-05 PX  3.85E-02
 TTTTTTTTTTTTTTTTTTTTTTTTTTTTTT DIIS        TELAPSE      788.68 TCPU      721.37
 DIIS TEST: 0.22126E-01 AT SCF   CYCLE   6 - DIIS ACTIVE - HISTORY:     6 CYCLES
 TTTTTTTTTTTTTTTTTTTTTTTTTTTTTT FDIK        TELAPSE      801.43 TCPU      731.66
 INSULATING STATE
 TOP OF VALENCE BANDS -    BAND    244; K    5; EIG -2.3864560E-01 AU
 TOP OF VALENCE BANDS -    BAND    244; K    1; EIG -2.3992478E-01 AU
 BOTTOM OF VIRTUAL BANDS - BAND    245; K    1; EIG -1.2120218E-01 AU
 INDIRECT ENERGY BAND GAP:   3.1958 eV
 TTTTTTTTTTTTTTTTTTTTTTTTTTTTTT PDIG        TELAPSE      802.15 TCPU      732.37
 TOTAL ATOMIC CHARGES:
   1.1689348   1.1689348   1.1689348   1.1689348   1.1274423   1.1274423
   1.1274423   1.1274423   6.1716747   6.1716747   6.1716747   6.1716747
   5.8355339   5.8355339   5.8355339   5.8355339   6.2058382   6.2058382
   6.2058382   6.2058382   5.4930274   5.4930274   5.4930274   5.4930274
   5.5378021   5.5378021   5.5378021   5.5378021   6.0644094   6.0644094
   6.0644094   6.0644094   7.1757016   7.1757016   7.1757016   7.1757016
   7.1048461   7.1048461   7.1048461   7.1048461   7.1271863   7.1271863
   7.1271863   7.1271863   7.0353957   7.0353957   7.0353957   7.0353957
   7.1220400   7.1220400   7.1220400   7.1220400  17.2280281  17.2280281
  17.2280281  17.2280281  17.1839224  17.1839224  17.1839224  17.1839224
  28.8081925  28.8646759
 TTTTTTTTTTTTTTTTTTTTTTTTTTTTTT MOQGAD      TELAPSE      802.20 TCPU      732.42
 TTTTTTTTTTTTTTTTTTTTTTTTTTTTTT SHELLXN     TELAPSE      875.83 TCPU      803.43
 TTTTTTTTTTTTTTTTTTTTTTTTTTTTTT MONMO3      TELAPSE      887.83 TCPU      815.37
 NUMERICALLY INTEGRATED DENSITY    488.0000616144
 TTTTTTTTTTTTTTTTTTTTTTTTTTTTTT NUMDFT      TELAPSE      894.14 TCPU      821.66
 CYC   7 ETOT(AU) -9.247902472873E+03 DETOT -3.25E-04 tst  2.25E-05 PX  1.02E-02
 TTTTTTTTTTTTTTTTTTTTTTTTTTTTTT DIIS        TELAPSE      894.71 TCPU      822.22
 DIIS TEST: 0.19883E-01 AT SCF   CYCLE   7 - DIIS ACTIVE - HISTORY:     7 CYCLES
 TTTTTTTTTTTTTTTTTTTTTTTTTTTTTT FDIK        TELAPSE      907.67 TCPU      832.85
 INSULATING STATE
 TOP OF VALENCE BANDS -    BAND    244; K    6; EIG -2.3866581E-01 AU
 TOP OF VALENCE BANDS -    BAND    244; K    1; EIG -2.4000938E-01 AU
 BOTTOM OF VIRTUAL BANDS - BAND    245; K    2; EIG -1.2114974E-01 AU
 INDIRECT ENERGY BAND GAP:   3.1978 eV
 BOTTOM OF VIRTUAL BANDS - BAND    245; K    1; EIG -1.2080170E-01 AU
 TTTTTTTTTTTTTTTTTTTTTTTTTTTTTT PDIG        TELAPSE      908.37 TCPU      833.55
 TOTAL ATOMIC CHARGES:
   1.1694280   1.1694280   1.1694280   1.1694280   1.1270464   1.1270464
   1.1270464   1.1270464   6.1668870   6.1668870   6.1668870   6.1668870
   5.8365167   5.8365167   5.8365167   5.8365167   6.2049358   6.2049358
   6.2049358   6.2049358   5.5074284   5.5074284   5.5074284   5.5074284
   5.5403921   5.5403921   5.5403921   5.5403921   6.0670256   6.0670256
   6.0670256   6.0670256   7.1471909   7.1471909   7.1471909   7.1471909
   7.0868203   7.0868203   7.0868203   7.0868203   7.1460316   7.1460316
   7.1460316   7.1460316   7.0569781   7.0569781   7.0569781   7.0569781
   7.1171957   7.1171957   7.1171957   7.1171957  17.2268309  17.2268309
  17.2268309  17.2268309  17.1817888  17.1817888  17.1817888  17.1817888
  28.8049965  28.8650186
 TTTTTTTTTTTTTTTTTTTTTTTTTTTTTT MOQGAD      TELAPSE      908.42 TCPU      833.60
 TTTTTTTTTTTTTTTTTTTTTTTTTTTTTT SHELLXN     TELAPSE      981.97 TCPU      904.81
 TTTTTTTTTTTTTTTTTTTTTTTTTTTTTT MONMO3      TELAPSE      993.95 TCPU      916.77
 NUMERICALLY INTEGRATED DENSITY    488.0000613718
 TTTTTTTTTTTTTTTTTTTTTTTTTTTTTT NUMDFT      TELAPSE     1000.22 TCPU      923.02
 CYC   8 ETOT(AU) -9.247905187795E+03 DETOT -2.71E-03 tst  8.13E-06 PX  7.85E-03
 TTTTTTTTTTTTTTTTTTTTTTTTTTTTTT DIIS        TELAPSE     1000.50 TCPU      923.30
 DIIS TEST: 0.13089E-02 AT SCF   CYCLE   8 - DIIS ACTIVE - HISTORY:     8 CYCLES
 TTTTTTTTTTTTTTTTTTTTTTTTTTTTTT FDIK        TELAPSE     1014.47 TCPU      935.03
 INSULATING STATE
 TOP OF VALENCE BANDS -    BAND    244; K    6; EIG -2.3892623E-01 AU
 TOP OF VALENCE BANDS -    BAND    244; K    1; EIG -2.4020901E-01 AU
 BOTTOM OF VIRTUAL BANDS - BAND    245; K    2; EIG -1.2109712E-01 AU
 INDIRECT ENERGY BAND GAP:   3.2063 eV
 BOTTOM OF VIRTUAL BANDS - BAND    245; K    1; EIG -1.2081193E-01 AU
 TTTTTTTTTTTTTTTTTTTTTTTTTTTTTT PDIG        TELAPSE     1015.19 TCPU      935.75
 TOTAL ATOMIC CHARGES:
   1.1687812   1.1687812   1.1687812   1.1687812   1.1275762   1.1275762
   1.1275762   1.1275762   6.1688191   6.1688191   6.1688191   6.1688191
   5.8297749   5.8297749   5.8297749   5.8297749   6.2074911   6.2074911
   6.2074911   6.2074911   5.5044467   5.5044467   5.5044467   5.5044467
   5.5306059   5.5306059   5.5306059   5.5306059   6.0692761   6.0692761
   6.0692761   6.0692761   7.1569419   7.1569419   7.1569419   7.1569419
   7.0882916   7.0882916   7.0882916   7.0882916   7.1437796   7.1437796
   7.1437796   7.1437796   7.0504833   7.0504833   7.0504833   7.0504833
   7.1193793   7.1193793   7.1193793   7.1193793  17.2320777  17.2320777
  17.2320777  17.2320777  17.1831985  17.1831985  17.1831985  17.1831985
  28.8069449  28.8693627
 TTTTTTTTTTTTTTTTTTTTTTTTTTTTTT MOQGAD      TELAPSE     1015.24 TCPU      935.80
 TTTTTTTTTTTTTTTTTTTTTTTTTTTTTT SHELLXN     TELAPSE     1087.53 TCPU     1006.72
 TTTTTTTTTTTTTTTTTTTTTTTTTTTTTT MONMO3      TELAPSE     1099.95 TCPU     1019.11
 NUMERICALLY INTEGRATED DENSITY    488.0000613601
 TTTTTTTTTTTTTTTTTTTTTTTTTTTTTT NUMDFT      TELAPSE     1106.26 TCPU     1025.40
 CYC   9 ETOT(AU) -9.247905376287E+03 DETOT -1.88E-04 tst  5.91E-07 PX  4.72E-03
 TTTTTTTTTTTTTTTTTTTTTTTTTTTTTT DIIS        TELAPSE     1106.61 TCPU     1025.75
 DIIS TEST: 0.34095E-03 AT SCF   CYCLE   9 - DIIS ACTIVE - HISTORY:     9 CYCLES
 TTTTTTTTTTTTTTTTTTTTTTTTTTTTTT FDIK        TELAPSE     1120.77 TCPU     1036.72
 INSULATING STATE
 TOP OF VALENCE BANDS -    BAND    244; K    6; EIG -2.3881627E-01 AU
 TOP OF VALENCE BANDS -    BAND    244; K    1; EIG -2.4015137E-01 AU
 BOTTOM OF VIRTUAL BANDS - BAND    245; K    2; EIG -1.2118814E-01 AU
 INDIRECT ENERGY BAND GAP:   3.2008 eV
 BOTTOM OF VIRTUAL BANDS - BAND    245; K    1; EIG -1.2084883E-01 AU
 TTTTTTTTTTTTTTTTTTTTTTTTTTTTTT PDIG        TELAPSE     1121.47 TCPU     1037.42
 TOTAL ATOMIC CHARGES:
   1.1686495   1.1686495   1.1686495   1.1686495   1.1275306   1.1275306
   1.1275306   1.1275306   6.1698665   6.1698665   6.1698665   6.1698665
   5.8329478   5.8329478   5.8329478   5.8329478   6.2071617   6.2071617
   6.2071617   6.2071617   5.5016588   5.5016588   5.5016588   5.5016588
   5.5338892   5.5338892   5.5338892   5.5338892   6.0660162   6.0660162
   6.0660162   6.0660162   7.1519489   7.1519489   7.1519489   7.1519489
   7.0878486   7.0878486   7.0878486   7.0878486   7.1444737   7.1444737
   7.1444737   7.1444737   7.0543381   7.0543381   7.0543381   7.0543381
   7.1220059   7.1220059   7.1220059   7.1220059  17.2294820  17.2294820
  17.2294820  17.2294820  17.1835167  17.1835167  17.1835167  17.1835167
  28.8071533  28.8675103
 TTTTTTTTTTTTTTTTTTTTTTTTTTTTTT MOQGAD      TELAPSE     1121.52 TCPU     1037.47
 TTTTTTTTTTTTTTTTTTTTTTTTTTTTTT SHELLXN     TELAPSE     1195.51 TCPU     1108.79
 TTTTTTTTTTTTTTTTTTTTTTTTTTTTTT MONMO3      TELAPSE     1207.33 TCPU     1120.56
 NUMERICALLY INTEGRATED DENSITY    488.0000613841
 TTTTTTTTTTTTTTTTTTTTTTTTTTTTTT NUMDFT      TELAPSE     1213.66 TCPU     1126.86
 CYC  10 ETOT(AU) -9.247905410666E+03 DETOT -3.44E-05 tst  2.22E-07 PX  1.21E-03
 TTTTTTTTTTTTTTTTTTTTTTTTTTTTTT DIIS        TELAPSE     1213.96 TCPU     1127.15
 DIIS TEST: 0.16339E-03 AT SCF   CYCLE  10 - DIIS ACTIVE - HISTORY:    10 CYCLES
 TTTTTTTTTTTTTTTTTTTTTTTTTTTTTT FDIK        TELAPSE     1227.50 TCPU     1138.19
 INSULATING STATE
 TOP OF VALENCE BANDS -    BAND    244; K    6; EIG -2.3884056E-01 AU
 TOP OF VALENCE BANDS -    BAND    244; K    1; EIG -2.4013627E-01 AU
 BOTTOM OF VIRTUAL BANDS - BAND    245; K    2; EIG -1.2117091E-01 AU
 INDIRECT ENERGY BAND GAP:   3.2020 eV
 BOTTOM OF VIRTUAL BANDS - BAND    245; K    1; EIG -1.2085406E-01 AU
 TTTTTTTTTTTTTTTTTTTTTTTTTTTTTT PDIG        TELAPSE     1228.21 TCPU     1138.90
 TOTAL ATOMIC CHARGES:
   1.1688015   1.1688015   1.1688015   1.1688015   1.1272764   1.1272764
   1.1272764   1.1272764   6.1680111   6.1680111   6.1680111   6.1680111
   5.8330561   5.8330561   5.8330561   5.8330561   6.2070119   6.2070119
   6.2070119   6.2070119   5.5042199   5.5042199   5.5042199   5.5042199
   5.5333668   5.5333668   5.5333668   5.5333668   6.0684183   6.0684183
   6.0684183   6.0684183   7.1533894   7.1533894   7.1533894   7.1533894
   7.0883912   7.0883912   7.0883912   7.0883912   7.1439981   7.1439981
   7.1439981   7.1439981   7.0534484   7.0534484   7.0534484   7.0534484
   7.1196253   7.1196253   7.1196253   7.1196253  17.2297550  17.2297550
  17.2297550  17.2297550  17.1829063  17.1829063  17.1829063  17.1829063
  28.8063277  28.8669684
 TTTTTTTTTTTTTTTTTTTTTTTTTTTTTT MOQGAD      TELAPSE     1228.26 TCPU     1138.95
 TTTTTTTTTTTTTTTTTTTTTTTTTTTTTT SHELLXN     TELAPSE     1302.32 TCPU     1210.12
 TTTTTTTTTTTTTTTTTTTTTTTTTTTTTT MONMO3      TELAPSE     1313.36 TCPU     1221.12
 NUMERICALLY INTEGRATED DENSITY    488.0000613850
 TTTTTTTTTTTTTTTTTTTTTTTTTTTTTT NUMDFT      TELAPSE     1319.69 TCPU     1227.43
 CYC  11 ETOT(AU) -9.247905430817E+03 DETOT -2.02E-05 tst  8.91E-08 PX  7.59E-04
 TTTTTTTTTTTTTTTTTTTTTTTTTTTTTT DIIS        TELAPSE     1320.19 TCPU     1227.93
 DIIS TEST: 0.19438E-04 AT SCF   CYCLE  11 - DIIS ACTIVE - HISTORY:    11 CYCLES
 TTTTTTTTTTTTTTTTTTTTTTTTTTTTTT FDIK        TELAPSE     1332.32 TCPU     1238.52
 INSULATING STATE
 TOP OF VALENCE BANDS -    BAND    244; K    6; EIG -2.3882035E-01 AU
 TOP OF VALENCE BANDS -    BAND    244; K    1; EIG -2.4012953E-01 AU
 BOTTOM OF VIRTUAL BANDS - BAND    245; K    2; EIG -1.2114743E-01 AU
 INDIRECT ENERGY BAND GAP:   3.2020 eV
 BOTTOM OF VIRTUAL BANDS - BAND    245; K    1; EIG -1.2082973E-01 AU
 TTTTTTTTTTTTTTTTTTTTTTTTTTTTTT PDIG        TELAPSE     1333.02 TCPU     1239.22
 TOTAL ATOMIC CHARGES:
   1.1688213   1.1688213   1.1688213   1.1688213   1.1273480   1.1273480
   1.1273480   1.1273480   6.1687749   6.1687749   6.1687749   6.1687749
   5.8322831   5.8322831   5.8322831   5.8322831   6.2070547   6.2070547
   6.2070547   6.2070547   5.5035275   5.5035275   5.5035275   5.5035275
   5.5333558   5.5333558   5.5333558   5.5333558   6.0677043   6.0677043
   6.0677043   6.0677043   7.1538755   7.1538755   7.1538755   7.1538755
   7.0878256   7.0878256   7.0878256   7.0878256   7.1445011   7.1445011
   7.1445011   7.1445011   7.0529437   7.0529437   7.0529437   7.0529437
   7.1203644   7.1203644   7.1203644   7.1203644  17.2299736  17.2299736
  17.2299736  17.2299736  17.1830641  17.1830641  17.1830641  17.1830641
  28.8064206  28.8679087
 TTTTTTTTTTTTTTTTTTTTTTTTTTTTTT MOQGAD      TELAPSE     1333.07 TCPU     1239.27
 TTTTTTTTTTTTTTTTTTTTTTTTTTTTTT SHELLXN     TELAPSE     1407.16 TCPU     1310.49
 TTTTTTTTTTTTTTTTTTTTTTTTTTTTTT MONMO3      TELAPSE     1418.59 TCPU     1321.86
 NUMERICALLY INTEGRATED DENSITY    488.0000613758
 TTTTTTTTTTTTTTTTTTTTTTTTTTTTTT NUMDFT      TELAPSE     1424.91 TCPU     1328.16
 CYC  12 ETOT(AU) -9.247905432463E+03 DETOT -1.65E-06 tst  8.84E-09 PX  3.37E-04
 TTTTTTTTTTTTTTTTTTTTTTTTTTTTTT DIIS        TELAPSE     1425.67 TCPU     1328.91
 DIIS TEST: 0.67217E-05 AT SCF   CYCLE  12 - DIIS ACTIVE - HISTORY:    12 CYCLES
 TTTTTTTTTTTTTTTTTTTTTTTTTTTTTT FDIK        TELAPSE     1438.32 TCPU     1339.40
 INSULATING STATE
 TOP OF VALENCE BANDS -    BAND    244; K    6; EIG -2.3882854E-01 AU
 TOP OF VALENCE BANDS -    BAND    244; K    1; EIG -2.4013437E-01 AU
 BOTTOM OF VIRTUAL BANDS - BAND    245; K    2; EIG -1.2113931E-01 AU
 INDIRECT ENERGY BAND GAP:   3.2025 eV
 BOTTOM OF VIRTUAL BANDS - BAND    245; K    1; EIG -1.2082168E-01 AU
 TTTTTTTTTTTTTTTTTTTTTTTTTTTTTT PDIG        TELAPSE     1439.03 TCPU     1340.11
 TOTAL ATOMIC CHARGES:
   1.1688001   1.1688001   1.1688001   1.1688001   1.1273648   1.1273648
   1.1273648   1.1273648   6.1687339   6.1687339   6.1687339   6.1687339
   5.8325971   5.8325971   5.8325971   5.8325971   6.2071502   6.2071502
   6.2071502   6.2071502   5.5035717   5.5035717   5.5035717   5.5035717
   5.5332026   5.5332026   5.5332026   5.5332026   6.0679134   6.0679134
   6.0679134   6.0679134   7.1531375   7.1531375   7.1531375   7.1531375
   7.0884450   7.0884450   7.0884450   7.0884450   7.1437818   7.1437818
   7.1437818   7.1437818   7.0534831   7.0534831   7.0534831   7.0534831
   7.1200482   7.1200482   7.1200482   7.1200482  17.2300203  17.2300203
  17.2300203  17.2300203  17.1831501  17.1831501  17.1831501  17.1831501
  28.8067796  28.8676217
 TTTTTTTTTTTTTTTTTTTTTTTTTTTTTT MOQGAD      TELAPSE     1439.08 TCPU     1340.16
[...]
 TTTTTTTTTTTTTTTTTTTTTTTTTTTTTT MOQGAD      TELAPSE   314609.23 TCPU   312029.33
 TTTTTTTTTTTTTTTTTTTTTTTTTTTTTT CP_MONMON   TELAPSE   314625.54 TCPU   312045.59
 DIIS TEST: 0.12072E+03 AT CPHF  CYCLE   1 - MIX    0 %
 CYCLE   1   ALPHA  337.086116  EPSILON    1.806711  DELTA   -4.4702E+02
 TTTTTTTTTTTTTTTTTTTTTTTTTTTTTT MOQGAD      TELAPSE   315367.17 TCPU   312778.69
 TTTTTTTTTTTTTTTTTTTTTTTTTTTTTT CP_MONMON   TELAPSE   315383.52 TCPU   312794.99
 DIIS TEST: 0.10068E+04 AT CPHF  CYCLE   2 - DIIS ACTIVE - HISTORY:     2 CYCLES
 CYCLE   2   ALPHA  566.158283  EPSILON    2.354924  DELTA    2.2907E+02
 TTTTTTTTTTTTTTTTTTTTTTTTTTTTTT MOQGAD      TELAPSE   316120.64 TCPU   313527.82
 TTTTTTTTTTTTTTTTTTTTTTTTTTTTTT CP_MONMON   TELAPSE   316137.14 TCPU   313544.27
 DIIS TEST: 0.40414E+02 AT CPHF  CYCLE   3 - DIIS ACTIVE - HISTORY:     3 CYCLES
 CYCLE   3   ALPHA  599.009754  EPSILON    2.433544  DELTA    3.2851E+01
 TTTTTTTTTTTTTTTTTTTTTTTTTTTTTT MOQGAD      TELAPSE   316875.06 TCPU   314277.78
 TTTTTTTTTTTTTTTTTTTTTTTTTTTTTT CP_MONMON   TELAPSE   316891.36 TCPU   314294.04
 DIIS TEST: 0.29267E+04 AT CPHF  CYCLE   4 - DIIS ACTIVE - HISTORY:     4 CYCLES
 CYCLE   4   ALPHA  606.084133  EPSILON    2.450475  DELTA    7.0744E+00
 TTTTTTTTTTTTTTTTTTTTTTTTTTTTTT MOQGAD      TELAPSE   317628.17 TCPU   315024.10
 TTTTTTTTTTTTTTTTTTTTTTTTTTTTTT CP_MONMON   TELAPSE   317644.49 TCPU   315040.31
 DIIS TEST: 0.95924E+01 AT CPHF  CYCLE   5 - DIIS ACTIVE - HISTORY:     5 CYCLES
 CYCLE   5   ALPHA  608.044048  EPSILON    2.455165  DELTA    1.9599E+00
 TTTTTTTTTTTTTTTTTTTTTTTTTTTTTT MOQGAD      TELAPSE   318382.65 TCPU   315771.96
 TTTTTTTTTTTTTTTTTTTTTTTTTTTTTT CP_MONMON   TELAPSE   318399.13 TCPU   315788.38
 DIIS TEST: 0.80637E+01 AT CPHF  CYCLE   6 - DIIS ACTIVE - HISTORY:     6 CYCLES
 CYCLE   6   ALPHA  608.308473  EPSILON    2.455798  DELTA    2.6442E-01
 TTTTTTTTTTTTTTTTTTTTTTTTTTTTTT MOQGAD      TELAPSE   319138.74 TCPU   316521.93
 TTTTTTTTTTTTTTTTTTTTTTTTTTTTTT CP_MONMON   TELAPSE   319155.11 TCPU   316538.25
 DIIS TEST: 0.54574E+00 AT CPHF  CYCLE   7 - DIIS ACTIVE - HISTORY:     7 CYCLES
 CYCLE   7   ALPHA  609.020035  EPSILON    2.457501  DELTA    7.1156E-01
 TTTTTTTTTTTTTTTTTTTTTTTTTTTTTT MOQGAD      TELAPSE   319891.33 TCPU   317270.32
 TTTTTTTTTTTTTTTTTTTTTTTTTTTTTT CP_MONMON   TELAPSE   319907.81 TCPU   317286.70
 DIIS TEST: 0.17693E+00 AT CPHF  CYCLE   8 - DIIS ACTIVE - HISTORY:     8 CYCLES
 CYCLE   8   ALPHA  609.576045  EPSILON    2.458831  DELTA    5.5601E-01
 TTTTTTTTTTTTTTTTTTTTTTTTTTTTTT MOQGAD      TELAPSE   320644.72 TCPU   318019.16
 TTTTTTTTTTTTTTTTTTTTTTTTTTTTTT CP_MONMON   TELAPSE   320661.21 TCPU   318035.60
 DIIS TEST: 0.93856E-01 AT CPHF  CYCLE   9 - DIIS ACTIVE - HISTORY:     9 CYCLES
 CYCLE   9   ALPHA  609.679801  EPSILON    2.459080  DELTA    1.0376E-01
 TTTTTTTTTTTTTTTTTTTTTTTTTTTTTT MOQGAD      TELAPSE   321398.12 TCPU   318767.07
 TTTTTTTTTTTTTTTTTTTTTTTTTTTTTT CP_MONMON   TELAPSE   321414.43 TCPU   318783.34
 DIIS TEST: 0.14985E-01 AT CPHF  CYCLE  10 - DIIS ACTIVE - HISTORY:    10 CYCLES
 CYCLE  10   ALPHA  609.718341  EPSILON    2.459172  DELTA    3.8540E-02
 TTTTTTTTTTTTTTTTTTTTTTTTTTTTTT MOQGAD      TELAPSE   322151.94 TCPU   319516.62
 TTTTTTTTTTTTTTTTTTTTTTTTTTTTTT CP_MONMON   TELAPSE   322168.46 TCPU   319533.07
 DIIS TEST: 0.30322E-02 AT CPHF  CYCLE  11 - DIIS ACTIVE - HISTORY:    11 CYCLES
 CYCLE  11   ALPHA  609.720505  EPSILON    2.459177  DELTA    2.1642E-03
 TTTTTTTTTTTTTTTTTTTTTTTTTTTTTT MOQGAD      TELAPSE   322902.53 TCPU   320259.15
 TTTTTTTTTTTTTTTTTTTTTTTTTTTTTT CP_MONMON   TELAPSE   322918.88 TCPU   320275.45
 DIIS TEST: 0.10196E-02 AT CPHF  CYCLE  12 - DIIS ACTIVE - HISTORY:    12 CYCLES
 CYCLE  12   ALPHA  609.704294  EPSILON    2.459138  DELTA   -1.6211E-02
 TTTTTTTTTTTTTTTTTTTTTTTTTTTTTT MOQGAD      TELAPSE   323656.20 TCPU   321006.92
 TTTTTTTTTTTTTTTTTTTTTTTTTTTTTT CP_MONMON   TELAPSE   323672.50 TCPU   321023.18
 DIIS TEST: 0.88066E-03 AT CPHF  CYCLE  13 - DIIS ACTIVE - HISTORY:    13 CYCLES
 CYCLE  13   ALPHA  609.699822  EPSILON    2.459128  DELTA   -4.4718E-03
 TTTTTTTTTTTTTTTTTTTTTTTTTTTTTT MOQGAD      TELAPSE   324409.58 TCPU   321757.75
 TTTTTTTTTTTTTTTTTTTTTTTTTTTTTT CP_MONMON   TELAPSE   324425.90 TCPU   321774.02
 DIIS TEST: 0.74071E-03 AT CPHF  CYCLE  14 - DIIS ACTIVE - HISTORY:    14 CYCLES
 CYCLE  14   ALPHA  609.698103  EPSILON    2.459124  DELTA   -1.7184E-03
 TTTTTTTTTTTTTTTTTTTTTTTTTTTTTT MOQGAD      TELAPSE   325162.44 TCPU   322506.46
 TTTTTTTTTTTTTTTTTTTTTTTTTTTTTT CP_MONMON   TELAPSE   325178.78 TCPU   322522.76
 DIIS TEST: 0.29095E-03 AT CPHF  CYCLE  15 - DIIS ACTIVE - HISTORY:    15 CYCLES
 CYCLE  15   ALPHA  609.697767  EPSILON    2.459123  DELTA   -3.3677E-04
 TTTTTTTTTTTTTTTTTTTTTTTTTTTTTT CP_SC       TELAPSE   325230.16 TCPU   322568.30

 *******************************************************************************

 POLARIZABILITY (ALPHA), DIELECTRIC (EPSILON) AND FIRST-ORDER ELECTRIC
 SUSCEPTIBILITY (CHI(1)) TENSORS (INDEPENDENT COMPONENTS)

  FR.(eV) COMP.   ALPHA(Re,Im)           EPSILON(Re,Im)                CHI(1)
  1.435   XX    1173.2667       0.0000       3.8079       0.0000       2.8079
  1.435   ZZ     609.6978       0.0000       2.4591       0.0000       1.4591

 DIELECTRIC TENSOR

 TENSOR IN PRINCIPAL AXES SYSTEM
 AA  3.807850E+00 BB  3.807850E+00 CC  2.459123E+00

 REFRACTIVE INDICES 
 AA  1.568159E+00 BB  1.951371E+00 CC  1.951371E+00

 OPTICALLY ANISOTROPIC - UNIAXIAL CRYSTAL

 BIREFRINGENCE =  0.3832 (NEGATIVE) - OBLATE OPTICAL ELLIPSOID

 EPSILON=N**2=1+CHI(1)=1+ALPHA*4*PI/V,   4*PI/V=   0.00239 BOHR**(-3)
 ALPHA IN BOHR**3; EPSILON AND CHI(1) ARE DIMENSIONLESS.
 *******************************************************************************

 DYNAMIC FIELD: RUN 10/ 10 - RADIATION WAVELENGTH: 1064.0000 NM

 *******************************************************************************

 ELECTRIC FIELD APPLIED ALONG CARTESIAN DIRECTION X

 *******************************************************************************
 THE NUMBER OF SYMMETRY OPERATORS HAS BEEN REDUCED FROM  4 TO  1

 NEW GRID IN RECIPROCAL SPACE
 *******************************************************************************
 POINTS IN THE IBZ                  14 SHRINKING FACTORS               3  3  3
 *******************************************************************************
 *** K POINTS COORDINATES (OBLIQUE COORDINATES IN UNITS OF SHRINK FAC. )
   1-R(  0  0  0)   2-C(  1  0  0)   3-C(  0  1  2)   4-C(  2  0  1)
   5-C(  0  2  0)   6-C(  1  1  0)   7-C(  1  1  1)   8-C(  1  0  1)
   9-C(  0  1  1)  10-C(  2  1  0)  11-C(  0  0  2)  12-C(  2  1  1)
  13-C(  2  1  2)  14-C(  2  2  1)

 GCALCO - MAX INDICES DIRECT LATTICE VECTOR    14    14    16
 NO.OF VECTORS CREATED 6999 STARS  482 RMAX   206.45467 BOHR
 TTTTTTTTTTTTTTTTTTTTTTTTTTTTTT gordsh1     TELAPSE   325230.18 TCPU   322568.31

 MATRIX SIZE: P(G) 1810924, F(G)  906168, P(G) IRR  907822, F(G) IRR  907822
 MAX G-VECTOR INDEX FOR 1- AND 2-ELECTRON INTEGRALS  63

 TTTTTTTTTTTTTTTTTTTTTTTTTTTTTT INPUT       TELAPSE   325230.55 TCPU   322568.68
 TTTTTTTTTTTTTTTTTTTTTTTTTTTTTT SYMM        TELAPSE   325230.55 TCPU   322568.68

 ***** NEW REFERENCE GEOMETRY *****
 TTTTTTTTTTTTTTTTTTTTTTTTTTTTTT INT_SCREEN  TELAPSE   325230.57 TCPU   322568.70
 INFORMATION **** EXCBUF **** EXCH. BIPO BUFFER: WORDS USED =           0

 DFT PARAMETERS

     ATOM       ELECTRONS   NET CHARGE   R(ANGSTROM)
   1   1  H       1.0000      0.0000     1.11000000
   9   6  C       6.0000      0.0000     0.77000000
  33   7  N       7.0000      0.0000     0.74000000
  53  17  CL     17.0000      0.0000     0.99000000
  61  30  ZN     30.0000      0.0000     1.37000000

 SIZE OF GRID=    1890326
 TTTTTTTTTTTTTTTTTTTTTTTTTTTTTT MAKE_GRID2  TELAPSE   325232.82 TCPU   322570.95
 BECKE WEIGHT FUNCTION
 RADSAFE =     2.00
 TOLERANCES - DENSITY:10**- 6; POTENTIAL:10**- 9; GRID WGT:10**-14

 RADIAL INTEGRATION  - INTERVALS (POINTS,UPPER LIMIT):            1( 75,  4.0*R)

 ANGULAR INTEGRATION - INTERVALS (ACCURACY LEVEL [N. POINTS] UPPER LIMIT):
  1(  4[  86]   0.2)  2(  8[ 194]   0.5)  3( 12[ 350]   0.9)  4( 16[ 974]   3.5)
  5( 12[ 350]9999.0)
 TTTTTTTTTTTTTTTTTTTTTTTTTTTTTT INT_CALC    TELAPSE   325232.94 TCPU   322571.06
 CYCLE   0   ALPHA 1547.011218  EPSILON    4.702292  DELTA    1.5470E+03
 TTTTTTTTTTTTTTTTTTTTTTTTTTTTTT MOQGAD      TELAPSE   326614.55 TCPU   323947.74
 TTTTTTTTTTTTTTTTTTTTTTTTTTTTTT CP_MONMON   TELAPSE   326644.99 TCPU   323978.06
 DIIS TEST: 0.31352E+03 AT CPHF  CYCLE   1 - MIX    0 %
 CYCLE   1   ALPHA  392.598105  EPSILON    1.939562  DELTA   -1.1544E+03
 TTTTTTTTTTTTTTTTTTTTTTTTTTTTTT MOQGAD      TELAPSE   328042.20 TCPU   325369.14
 TTTTTTTTTTTTTTTTTTTTTTTTTTTTTT CP_MONMON   TELAPSE   328072.68 TCPU   325399.54
 DIIS TEST: 0.24316E+04 AT CPHF  CYCLE   2 - DIIS ACTIVE - HISTORY:     2 CYCLES
 CYCLE   2   ALPHA 1071.864166  EPSILON    3.565175  DELTA    6.7927E+02
 TTTTTTTTTTTTTTTTTTTTTTTTTTTTTT MOQGAD      TELAPSE   329472.01 TCPU   326790.18
 TTTTTTTTTTTTTTTTTTTTTTTTTTTTTT CP_MONMON   TELAPSE   329502.54 TCPU   326820.61
 DIIS TEST: 0.72884E+02 AT CPHF  CYCLE   3 - DIIS ACTIVE - HISTORY:     3 CYCLES
 CYCLE   3   ALPHA 1133.379392  EPSILON    3.712392  DELTA    6.1515E+01
 TTTTTTTTTTTTTTTTTTTTTTTTTTTTTT MOQGAD      TELAPSE   330900.81 TCPU   328209.35
 TTTTTTTTTTTTTTTTTTTTTTTTTTTTTT CP_MONMON   TELAPSE   330931.58 TCPU   328240.04
 DIIS TEST: 0.86488E+01 AT CPHF  CYCLE   4 - DIIS ACTIVE - HISTORY:     4 CYCLES
 CYCLE   4   ALPHA 1145.303461  EPSILON    3.740929  DELTA    1.1924E+01
 TTTTTTTTTTTTTTTTTTTTTTTTTTTTTT MOQGAD      TELAPSE   332329.13 TCPU   329631.18
 TTTTTTTTTTTTTTTTTTTTTTTTTTTTTT CP_MONMON   TELAPSE   332359.91 TCPU   329661.87
 DIIS TEST: 0.10898E+01 AT CPHF  CYCLE   5 - DIIS ACTIVE - HISTORY:     5 CYCLES
 CYCLE   5   ALPHA 1149.529536  EPSILON    3.751043  DELTA    4.2261E+00
 TTTTTTTTTTTTTTTTTTTTTTTTTTTTTT MOQGAD      TELAPSE   333756.67 TCPU   331052.65
 TTTTTTTTTTTTTTTTTTTTTTTTTTTTTT CP_MONMON   TELAPSE   333787.19 TCPU   331083.10
 DIIS TEST: 0.11393E+00 AT CPHF  CYCLE   6 - DIIS ACTIVE - HISTORY:     6 CYCLES
 CYCLE   6   ALPHA 1151.433360  EPSILON    3.755599  DELTA    1.9038E+00
 TTTTTTTTTTTTTTTTTTTTTTTTTTTTTT MOQGAD      TELAPSE   335189.09 TCPU   332474.56
 TTTTTTTTTTTTTTTTTTTTTTTTTTTTTT CP_MONMON   TELAPSE   335219.84 TCPU   332505.23
 DIIS TEST: 0.18723E-01 AT CPHF  CYCLE   7 - DIIS ACTIVE - HISTORY:     7 CYCLES
 CYCLE   7   ALPHA 1151.757381  EPSILON    3.756374  DELTA    3.2402E-01
 TTTTTTTTTTTTTTTTTTTTTTTTTTTTTT MOQGAD      TELAPSE   336618.02 TCPU   333897.74
 TTTTTTTTTTTTTTTTTTTTTTTTTTTTTT CP_MONMON   TELAPSE   336648.59 TCPU   333928.22
 DIIS TEST: 0.22707E-02 AT CPHF  CYCLE   8 - DIIS ACTIVE - HISTORY:     8 CYCLES
 CYCLE   8   ALPHA 1151.836966  EPSILON    3.756565  DELTA    7.9584E-02
 TTTTTTTTTTTTTTTTTTTTTTTTTTTTTT MOQGAD      TELAPSE   338049.40 TCPU   335318.34
 TTTTTTTTTTTTTTTTTTTTTTTTTTTTTT CP_MONMON   TELAPSE   338079.91 TCPU   335348.67
 DIIS TEST: 0.30447E-02 AT CPHF  CYCLE   9 - DIIS ACTIVE - HISTORY:     9 CYCLES
 CYCLE   9   ALPHA 1151.857703  EPSILON    3.756615  DELTA    2.0737E-02
 TTTTTTTTTTTTTTTTTTTTTTTTTTTTTT MOQGAD      TELAPSE   339478.59 TCPU   336738.12
 TTTTTTTTTTTTTTTTTTTTTTTTTTTTTT CP_MONMON   TELAPSE   339509.33 TCPU   336768.78
 DIIS TEST: 0.78213E-03 AT CPHF  CYCLE  10 - DIIS ACTIVE - HISTORY:    10 CYCLES
 CYCLE  10   ALPHA 1151.857431  EPSILON    3.756614  DELTA   -2.7241E-04
 TTTTTTTTTTTTTTTTTTTTTTTTTTTTTT CP_SC       TELAPSE   339565.73 TCPU   336822.08

 *******************************************************************************

 ELECTRIC FIELD APPLIED ALONG CARTESIAN DIRECTION Z

 *******************************************************************************
 THE NUMBER OF SYMMETRY OPERATORS HAS BEEN REDUCED FROM  4 TO  2

 NEW GRID IN RECIPROCAL SPACE
 *******************************************************************************
 POINTS IN THE IBZ                  10 SHRINKING FACTORS               3  3  3
 *******************************************************************************
 *** K POINTS COORDINATES (OBLIQUE COORDINATES IN UNITS OF SHRINK FAC. )
   1-R(  0  0  0)   2-C(  1  0  0)   3-C(  2  0  1)   4-C(  1  1  0)
   5-C(  1  0  1)   6-C(  2  1  0)   7-C(  0  0  2)   8-C(  2  1  1)
   9-C(  2  1  2)  10-C(  2  2  1)

 GCALCO - MAX INDICES DIRECT LATTICE VECTOR    14    14    16
 NO.OF VECTORS CREATED 6999 STARS  482 RMAX   206.45467 BOHR
 TTTTTTTTTTTTTTTTTTTTTTTTTTTTTT gordsh1     TELAPSE   339565.74 TCPU   336822.09

 MATRIX SIZE: P(G) 1810924, F(G)  906168, P(G) IRR  456364, F(G) IRR  456364
 MAX G-VECTOR INDEX FOR 1- AND 2-ELECTRON INTEGRALS  63

 TTTTTTTTTTTTTTTTTTTTTTTTTTTTTT INPUT       TELAPSE   339565.85 TCPU   336822.19
 TTTTTTTTTTTTTTTTTTTTTTTTTTTTTT SYMM        TELAPSE   339565.85 TCPU   336822.19

 ***** NEW REFERENCE GEOMETRY *****
 TTTTTTTTTTTTTTTTTTTTTTTTTTTTTT INT_SCREEN  TELAPSE   339565.86 TCPU   336822.20
 INFORMATION **** EXCBUF **** EXCH. BIPO BUFFER: WORDS USED =           0

 DFT PARAMETERS

     ATOM       ELECTRONS   NET CHARGE   R(ANGSTROM)
   1   1  H       1.0000      0.0000     1.11000000
   9   6  C       6.0000      0.0000     0.77000000
  33   7  N       7.0000      0.0000     0.74000000
  53  17  CL     17.0000      0.0000     0.99000000
  61  30  ZN     30.0000      0.0000     1.37000000

 SIZE OF GRID=     945280
 TTTTTTTTTTTTTTTTTTTTTTTTTTTTTT MAKE_GRID2  TELAPSE   339567.21 TCPU   336823.55
 BECKE WEIGHT FUNCTION
 RADSAFE =     2.00
 TOLERANCES - DENSITY:10**- 6; POTENTIAL:10**- 9; GRID WGT:10**-14

 RADIAL INTEGRATION  - INTERVALS (POINTS,UPPER LIMIT):            1( 75,  4.0*R)

 ANGULAR INTEGRATION - INTERVALS (ACCURACY LEVEL [N. POINTS] UPPER LIMIT):
  1(  4[  86]   0.2)  2(  8[ 194]   0.5)  3( 12[ 350]   0.9)  4( 16[ 974]   3.5)
  5( 12[ 350]9999.0)
 TTTTTTTTTTTTTTTTTTTTTTTTTTTTTT INT_CALC    TELAPSE   339567.28 TCPU   336823.62
 CYCLE   0   ALPHA  775.622590  EPSILON    2.856212  DELTA    7.7562E+02
 TTTTTTTTTTTTTTTTTTTTTTTTTTTTTT MOQGAD      TELAPSE   340283.78 TCPU   337536.99
 TTTTTTTTTTTTTTTTTTTTTTTTTTTTTT CP_MONMON   TELAPSE   340300.17 TCPU   337553.28
 DIIS TEST: 0.11698E+03 AT CPHF  CYCLE   1 - MIX    0 %
 CYCLE   1   ALPHA  340.659878  EPSILON    1.815264  DELTA   -4.3496E+02
 TTTTTTTTTTTTTTTTTTTTTTTTTTTTTT MOQGAD      TELAPSE   341033.52 TCPU   338279.12
 TTTTTTTTTTTTTTTTTTTTTTTTTTTTTT CP_MONMON   TELAPSE   341049.88 TCPU   338295.43
 DIIS TEST: 0.94011E+03 AT CPHF  CYCLE   2 - DIIS ACTIVE - HISTORY:     2 CYCLES
 CYCLE   2   ALPHA  561.780467  EPSILON    2.344447  DELTA    2.2112E+02
 TTTTTTTTTTTTTTTTTTTTTTTTTTTTTT MOQGAD      TELAPSE   341784.64 TCPU   339023.76
 TTTTTTTTTTTTTTTTTTTTTTTTTTTTTT CP_MONMON   TELAPSE   341801.03 TCPU   339040.09
 DIIS TEST: 0.33337E+02 AT CPHF  CYCLE   3 - DIIS ACTIVE - HISTORY:     3 CYCLES
 CYCLE   3   ALPHA  596.508456  EPSILON    2.427558  DELTA    3.4728E+01
 TTTTTTTTTTTTTTTTTTTTTTTTTTTTTT MOQGAD      TELAPSE   342533.99 TCPU   339766.45
 TTTTTTTTTTTTTTTTTTTTTTTTTTTTTT CP_MONMON   TELAPSE   342550.38 TCPU   339782.76
 DIIS TEST: 0.19175E+04 AT CPHF  CYCLE   4 - DIIS ACTIVE - HISTORY:     4 CYCLES
 CYCLE   4   ALPHA  600.646846  EPSILON    2.437462  DELTA    4.1384E+00
 TTTTTTTTTTTTTTTTTTTTTTTTTTTTTT MOQGAD      TELAPSE   343283.07 TCPU   340505.86
 TTTTTTTTTTTTTTTTTTTTTTTTTTTTTT CP_MONMON   TELAPSE   343299.45 TCPU   340522.19
 DIIS TEST: 0.94455E+01 AT CPHF  CYCLE   5 - DIIS ACTIVE - HISTORY:     5 CYCLES
 CYCLE   5   ALPHA  602.700199  EPSILON    2.442376  DELTA    2.0534E+00
 TTTTTTTTTTTTTTTTTTTTTTTTTTTTTT MOQGAD      TELAPSE   344034.84 TCPU   341250.34
 TTTTTTTTTTTTTTTTTTTTTTTTTTTTTT CP_MONMON   TELAPSE   344051.08 TCPU   341266.52
 DIIS TEST: 0.45176E+01 AT CPHF  CYCLE   6 - DIIS ACTIVE - HISTORY:     6 CYCLES
 CYCLE   6   ALPHA  602.737750  EPSILON    2.442466  DELTA    3.7550E-02
 TTTTTTTTTTTTTTTTTTTTTTTTTTTTTT MOQGAD      TELAPSE   344786.71 TCPU   341995.98
 TTTTTTTTTTTTTTTTTTTTTTTTTTTTTT CP_MONMON   TELAPSE   344802.97 TCPU   342012.20
 DIIS TEST: 0.60214E+00 AT CPHF  CYCLE   7 - DIIS ACTIVE - HISTORY:     7 CYCLES
 CYCLE   7   ALPHA  603.389740  EPSILON    2.444026  DELTA    6.5199E-01
 TTTTTTTTTTTTTTTTTTTTTTTTTTTTTT MOQGAD      TELAPSE   345535.14 TCPU   342740.43
 TTTTTTTTTTTTTTTTTTTTTTTTTTTTTT CP_MONMON   TELAPSE   345551.40 TCPU   342756.64
 DIIS TEST: 0.13326E+00 AT CPHF  CYCLE   8 - DIIS ACTIVE - HISTORY:     8 CYCLES
 CYCLE   8   ALPHA  603.915189  EPSILON    2.445284  DELTA    5.2545E-01
 TTTTTTTTTTTTTTTTTTTTTTTTTTTTTT MOQGAD      TELAPSE   346284.60 TCPU   343485.78
 TTTTTTTTTTTTTTTTTTTTTTTTTTTTTT CP_MONMON   TELAPSE   346300.96 TCPU   343502.10
 DIIS TEST: 0.65416E-01 AT CPHF  CYCLE   9 - DIIS ACTIVE - HISTORY:     9 CYCLES
 CYCLE   9   ALPHA  604.007997  EPSILON    2.445506  DELTA    9.2807E-02
 TTTTTTTTTTTTTTTTTTTTTTTTTTTTTT MOQGAD      TELAPSE   347034.10 TCPU   344230.73
 TTTTTTTTTTTTTTTTTTTTTTTTTTTTTT CP_MONMON   TELAPSE   347050.33 TCPU   344246.91
 DIIS TEST: 0.15491E-01 AT CPHF  CYCLE  10 - DIIS ACTIVE - HISTORY:    10 CYCLES
 CYCLE  10   ALPHA  604.040186  EPSILON    2.445583  DELTA    3.2189E-02
 TTTTTTTTTTTTTTTTTTTTTTTTTTTTTT MOQGAD      TELAPSE   347785.24 TCPU   344975.71
 TTTTTTTTTTTTTTTTTTTTTTTTTTTTTT CP_MONMON   TELAPSE   347801.62 TCPU   344992.03
 DIIS TEST: 0.24606E-02 AT CPHF  CYCLE  11 - DIIS ACTIVE - HISTORY:    11 CYCLES
 CYCLE  11   ALPHA  604.040107  EPSILON    2.445583  DELTA   -7.8422E-05
 TTTTTTTTTTTTTTTTTTTTTTTTTTTTTT CP_SC       TELAPSE   347853.00 TCPU   345039.49

 *******************************************************************************

 POLARIZABILITY (ALPHA), DIELECTRIC (EPSILON) AND FIRST-ORDER ELECTRIC
 SUSCEPTIBILITY (CHI(1)) TENSORS (INDEPENDENT COMPONENTS)

  FR.(eV) COMP.   ALPHA(Re,Im)           EPSILON(Re,Im)                CHI(1)
  1.165   XX    1151.8574       0.0000       3.7566       0.0000       2.7566
  1.165   ZZ     604.0401       0.0000       2.4456       0.0000       1.4456

 DIELECTRIC TENSOR

 TENSOR IN PRINCIPAL AXES SYSTEM
 AA  3.756614E+00 BB  3.756614E+00 CC  2.445583E+00

 REFRACTIVE INDICES 
 AA  1.563836E+00 BB  1.938199E+00 CC  1.938199E+00

 OPTICALLY ANISOTROPIC - UNIAXIAL CRYSTAL

 BIREFRINGENCE =  0.3744 (NEGATIVE) - OBLATE OPTICAL ELLIPSOID

 EPSILON=N**2=1+CHI(1)=1+ALPHA*4*PI/V,   4*PI/V=   0.00239 BOHR**(-3)
 ALPHA IN BOHR**3; EPSILON AND CHI(1) ARE DIMENSIONLESS.
 *******************************************************************************


 GCALCO - MAX INDICES DIRECT LATTICE VECTOR    14    14    16
 NO.OF VECTORS CREATED 6999 STARS  482 RMAX   206.45467 BOHR

 CAPPA:IS1  3;IS2  3;IS3  3; K PTS MONK NET   6; SYMMOPS:K SPACE   8;G SPACE   4

 TTTTTTTTTTTTTTTTTTTTTTTTTTTTTT END         TELAPSE   347853.06 TCPU   345039.49
 EEEEEEEEEE TERMINATION  DATE 08 12 2023 TIME 22:50:59.7
NODE    0 CPU TIME =    345039.494
NODE    1 CPU TIME =    346076.253
NODE    2 CPU TIME =    345717.005
NODE    3 CPU TIME =    345601.559
NODE    4 CPU TIME =    345608.623
NODE    5 CPU TIME =    346013.570
NODE    6 CPU TIME =    345689.204
NODE    7 CPU TIME =    345608.425
NODE    8 CPU TIME =    345592.073
NODE    9 CPU TIME =    345850.443
NODE   10 CPU TIME =    345597.698
NODE   11 CPU TIME =    345559.060
NODE   12 CPU TIME =    345460.922
NODE   13 CPU TIME =    345679.585
NODE   14 CPU TIME =    345476.275
NODE   15 CPU TIME =    345402.061
NODE   16 CPU TIME =    345380.097
NODE   17 CPU TIME =    345630.037
NODE   18 CPU TIME =    345388.720
NODE   19 CPU TIME =    345419.453
NODE   20 CPU TIME =    345221.892
NODE   21 CPU TIME =    345506.859
NODE   22 CPU TIME =    345383.410
NODE   23 CPU TIME =    345222.254
    TOTAL CPU TIME =   8293124.972
trying normal rsh (/usr/bin/rsh)
exec: No such file or directory
trying normal rsh (/usr/bin/rsh)
exec: No such file or directory
trying normal rsh (/usr/bin/rsh)
exec: No such file or directory
trying normal rsh (/usr/bin/rsh)
exec: No such file or directory
