Loading crystal17/1.0.2/intel/19.0
  Loading requirement: intel/19.0 ompi/4.0.1/intel/19.0
 PROCESS            4  OF           24  WORKING
 PROCESS            8  OF           24  WORKING
 PROCESS           12  OF           24  WORKING
 PROCESS           16  OF           24  WORKING
 PROCESS            3  OF           24  WORKING
 PROCESS           10  OF           24  WORKING
 PROCESS            0  OF           24  WORKING
 PROCESS            2  OF           24  WORKING
 PROCESS           11  OF           24  WORKING
 PROCESS           13  OF           24  WORKING
 PROCESS           14  OF           24  WORKING
 PROCESS           19  OF           24  WORKING
 PROCESS            5  OF           24  WORKING
 PROCESS            6  OF           24  WORKING
 PROCESS            1  OF           24  WORKING
 PROCESS           23  OF           24  WORKING
 PROCESS            7  OF           24  WORKING
 PROCESS            9  OF           24  WORKING
 PROCESS           15  OF           24  WORKING
 PROCESS           17  OF           24  WORKING
 PROCESS           18  OF           24  WORKING
 PROCESS           21  OF           24  WORKING
 PROCESS           22  OF           24  WORKING

         
 *******************************************************************************
 *                                                                             *
 *                               CRYSTAL17                                     *
 *                      public : 1.0.2 - March 1st, 2018                       *
 *                       HTTP://WWW.CRYSTAL.UNITO.IT                           *
 *                                                                             *
 *                              MAIN AUTHORS                                   *
 *                                                                             *
 *  R. DOVESI(1,11), V.R. SAUNDERS(2), C. ROETTI(1,11), R. ORLANDO(1,11),      *
 *  C.M. ZICOVICH-WILSON(1,3), F. PASCALE(4), B. CIVALLERI(1,11),              *
 *  K. DOLL(5), N.M. HARRISON(2,6), I.J. BUSH(7), Ph. D'ARCO(8),               *
 *  M. LLUNELL(9), M. CAUSA'(10), Y. NOEL(8), L. MASCHIO(1,11), A. ERBA(1,11)  *
 *  M. RE'RAT(14), S. CASASSA(1,11)                                            *
 *                                                                             *
 *        CONTRIBUTIONS TO THE CODE HAVE ALSO BEEN GIVEN BY                    *
 *                                                                             *
 *  M. FERRABONE(1,11), M. DE LA PIERRE(1,11), M. FERRERO(1,11),               *
 *  J. BAIMA(1,11), E. ALBANESE(1,11), M.F. PEINTINGER(12), R. BAST(13),       *
 *  B. KIRTMAN(15), V. LACIVITA(1,11), R. DEMICHELIS(1,16)                     *
 *  G. BRANDEBURG(17), S. SALUSTRO(1,11), G. SANSONE(1,11)                     *
 *  M.T. RUGGIERO(18)                                                          *
 *                                                                             *
 * (1) THEORETICAL CHEMISTRY GROUP - UNIVERSITA' DI TORINO - TORINO (ITALY)    *
 * (2) COMPUTATIONAL SCIENCE & ENGINEERING DEPARTMENT - STFC DARESBURY (UK)    *
 * (3) UNIVERSIDAD AUTONOMA DEL ESTADO DE MORELOS - CUERNAVACA (MEXICO)        *
 * (4) UNIVERSITE' DE LORRAINE - NANCY (FRANCE)                                *
 * (5) UNIVERSITAET STUTTGART- STUTTGART (GERMANY)                             *
 * (6) IMPERIAL COLLEGE - LONDON (UK)                                          *
 * (7) OXFORD E-RESEARCH CENTRE - OXFORD (UK)                                  *
 * (8) UPMC - SORBONNE UNIVERSITES - PARIS (FRANCE)                            *
 * (9) UNIVERSIDAD DE BARCELONA - BARCELONA (SPAIN)                            *
 *(10) UNIVERSITA' DI NAPOLI "FEDERICO II" - NAPOLI (ITALY)                    *
 *(11) NIS - NANOSTRUCTURED INTERFACES AND SURFACES - TORINO (ITALY)           *
 *(12) MPI FUER CHEMISCHE ENERGIEKONVERSION - MUELHEIM AN DER RUHR (GERMANY)   *
 *(13) UNIVERSITY OF TROMSO - TROMSO (NORWAY)                                  *
 *(14) UNIVERSITE' DE PAU ET DES PAYS DE L'ADOUR - PAU (FRANCE)                *
 *(15) UNIVERSITY OF CALIFORNIA SANTA BARBARA - SANTA BARBARA (USA)            *
 *(16) CURTIN UNIVERSITY - PERTH (AUSTRALIA)                                   *
 *(17) UNIVERSITY COLLEGE LONDON - LONDON (UK)                                 *
 *(18) CAMBRIDGE UNIVERSITY - CAMBRIDGE (UK)                                   *
 *                                                                             *
 *******************************************************************************
 EEEEEEEEEE STARTING  DATE 20 11 2023 TIME 04:52:25.9
 PROCESS           20  OF           24  WORKING
 C:\Users\wilso\AppData\Local\Temp\tmp_p\newconn.mol                             

 CRYSTAL CALCULATION
 (INPUT ACCORDING TO THE INTERNATIONAL TABLES FOR X-RAY CRYSTALLOGRAPHY)
 CRYSTAL FAMILY                       :  TETRAGONAL  
 CRYSTAL CLASS  (GROTH - 1921)        :  TETRAGONAL DISPHENOIDAL              

 SPACE GROUP (NONCENTROSYMMETRIC)     :  I -4            

 LATTICE PARAMETERS  (ANGSTROMS AND DEGREES) - CONVENTIONAL CELL
        A           B           C        ALPHA        BETA       GAMMA
    10.15800    10.15800    13.29400    90.00000    90.00000    90.00000


 NUMBER OF IRREDUCIBLE ATOMS IN THE CONVENTIONAL CELL:  124

 INPUT COORDINATES

 ATOM AT. N.              COORDINATES
   1  17     5.576100000000E-01  7.373700000000E-01  1.366700000000E-01
   2  17     4.423900000000E-01  2.626300000000E-01  1.366700000000E-01
   3  17     7.373700000000E-01  4.423900000000E-01  8.633300000000E-01
   4  17     2.626300000000E-01  5.576100000000E-01  8.633300000000E-01
   5  17     5.761000000000E-02  2.373700000000E-01  6.366700000000E-01
   6  17     9.423900000000E-01  7.626300000000E-01  6.366700000000E-01
   7  17     2.373700000000E-01  9.423900000000E-01  3.633300000000E-01
   8  17     7.626300000000E-01  5.761000000000E-02  3.633300000000E-01
   9   1     9.759200000000E-01  6.751900000000E-01  9.083000000000E-02
  10   1     2.408000000000E-02  3.248100000000E-01  9.083000000000E-02
  11   1     6.751900000000E-01  2.408000000000E-02  9.091700000000E-01
  12   1     3.248100000000E-01  9.759200000000E-01  9.091700000000E-01
  13   1     4.759200000000E-01  1.751900000000E-01  5.908300000000E-01
  14   1     5.240800000000E-01  8.248100000000E-01  5.908300000000E-01
  15   1     1.751900000000E-01  5.240800000000E-01  4.091700000000E-01
  16   1     8.248100000000E-01  4.759200000000E-01  4.091700000000E-01
  17  17     6.058200000000E-01  9.805800000000E-01  1.369900000000E-01
  18  17     3.941800000000E-01  1.942000000000E-02  1.369900000000E-01
  19  17     9.805800000000E-01  3.941800000000E-01  8.630100000000E-01
  20  17     1.942000000000E-02  6.058200000000E-01  8.630100000000E-01
  21  17     1.058200000000E-01  4.805800000000E-01  6.369900000000E-01
  22  17     8.941800000000E-01  5.194200000000E-01  6.369900000000E-01
  23  17     4.805800000000E-01  8.941800000000E-01  3.630100000000E-01
  24  17     5.194200000000E-01  1.058200000000E-01  3.630100000000E-01
  25  17     8.420800000000E-01  5.709000000000E-02  1.240200000000E-01
  26  17     1.579200000000E-01  9.429100000000E-01  1.240200000000E-01
  27  17     5.709000000000E-02  1.579200000000E-01  8.759800000000E-01
  28  17     9.429100000000E-01  8.420800000000E-01  8.759800000000E-01
  29  17     3.420800000000E-01  5.570900000000E-01  6.240200000000E-01
  30  17     6.579200000000E-01  4.429100000000E-01  6.240200000000E-01
  31  17     5.570900000000E-01  6.579200000000E-01  3.759800000000E-01
  32  17     4.429100000000E-01  3.420800000000E-01  3.759800000000E-01
  33   6     2.646500000000E-01  1.859800000000E-01  6.165500000000E-01
  34   6     7.353500000000E-01  8.140200000000E-01  6.165500000000E-01
  35   6     1.859800000000E-01  7.353500000000E-01  3.834500000000E-01
  36   6     8.140200000000E-01  2.646500000000E-01  3.834500000000E-01
  37   6     7.646500000000E-01  6.859800000000E-01  1.165500000000E-01
  38   6     2.353500000000E-01  3.140200000000E-01  1.165500000000E-01
  39   6     6.859800000000E-01  2.353500000000E-01  8.834500000000E-01
  40   6     3.140200000000E-01  7.646500000000E-01  8.834500000000E-01
  41   6     2.514000000000E-01  4.317000000000E-02  6.230000000000E-01
  42   6     7.486000000000E-01  9.568300000000E-01  6.230000000000E-01
  43   6     4.317000000000E-02  7.486000000000E-01  3.770000000000E-01
  44   6     9.568300000000E-01  2.514000000000E-01  3.770000000000E-01
  45   6     7.514000000000E-01  5.431700000000E-01  1.230000000000E-01
  46   6     2.486000000000E-01  4.568300000000E-01  1.230000000000E-01
  47   6     5.431700000000E-01  2.486000000000E-01  8.770000000000E-01
  48   6     4.568300000000E-01  7.514000000000E-01  8.770000000000E-01
  49   6     6.583700000000E-01  7.736700000000E-01  1.273400000000E-01
  50   6     3.416300000000E-01  2.263300000000E-01  1.273400000000E-01
  51   6     7.736700000000E-01  3.416300000000E-01  8.726600000000E-01
  52   6     2.263300000000E-01  6.583700000000E-01  8.726600000000E-01
  53   6     1.583700000000E-01  2.736700000000E-01  6.273400000000E-01
  54   6     8.416300000000E-01  7.263300000000E-01  6.273400000000E-01
  55   6     2.736700000000E-01  8.416300000000E-01  3.726600000000E-01
  56   6     7.263300000000E-01  1.583700000000E-01  3.726600000000E-01
  57   6     8.156900000000E-01  9.525900000000E-01  1.204300000000E-01
  58   6     1.843100000000E-01  4.741000000000E-02  1.204300000000E-01
  59   6     9.525900000000E-01  1.843100000000E-01  8.795700000000E-01
  60   6     4.741000000000E-02  8.156900000000E-01  8.795700000000E-01
  61   6     3.156900000000E-01  4.525900000000E-01  6.204300000000E-01
  62   6     6.843100000000E-01  5.474100000000E-01  6.204300000000E-01
  63   6     4.525900000000E-01  6.843100000000E-01  3.795700000000E-01
  64   6     5.474100000000E-01  3.156900000000E-01  3.795700000000E-01
  65   6     3.914300000000E-01  2.396500000000E-01  6.044300000000E-01
  66   6     6.085700000000E-01  7.603500000000E-01  6.044300000000E-01
  67   6     2.396500000000E-01  6.085700000000E-01  3.955700000000E-01
  68   6     7.603500000000E-01  3.914300000000E-01  3.955700000000E-01
  69   6     8.914300000000E-01  7.396500000000E-01  1.044300000000E-01
  70   6     1.085700000000E-01  2.603500000000E-01  1.044300000000E-01
  71   6     7.396500000000E-01  1.085700000000E-01  8.955700000000E-01
  72   6     2.603500000000E-01  8.914300000000E-01  8.955700000000E-01
  73   6     3.150000000000E-01  9.141000000000E-02  1.282200000000E-01
  74   6     6.850000000000E-01  9.085900000000E-01  1.282200000000E-01
  75   6     9.141000000000E-02  6.850000000000E-01  8.717800000000E-01
  76   6     9.085900000000E-01  3.150000000000E-01  8.717800000000E-01
  77   6     8.150000000000E-01  5.914100000000E-01  6.282200000000E-01
  78   6     1.850000000000E-01  4.085900000000E-01  6.282200000000E-01
  79   6     5.914100000000E-01  1.850000000000E-01  3.717800000000E-01
  80   6     4.085900000000E-01  8.150000000000E-01  3.717800000000E-01
  81   7     8.407700000000E-01  4.628300000000E-01  1.672900000000E-01
  82   7     1.592300000000E-01  5.371700000000E-01  1.672900000000E-01
  83   7     4.628300000000E-01  1.592300000000E-01  8.327100000000E-01
  84   7     5.371700000000E-01  8.407700000000E-01  8.327100000000E-01
  85   7     3.407700000000E-01  9.628300000000E-01  6.672900000000E-01
  86   7     6.592300000000E-01  3.717000000000E-02  6.672900000000E-01
  87   7     9.628300000000E-01  6.592300000000E-01  3.327100000000E-01
  88   7     3.717000000000E-02  3.407700000000E-01  3.327100000000E-01
  89   7     2.940400000000E-01  8.358500000000E-01  6.597700000000E-01
  90   7     7.059600000000E-01  1.641500000000E-01  6.597700000000E-01
  91   7     8.358500000000E-01  7.059600000000E-01  3.402300000000E-01
  92   7     1.641500000000E-01  2.940400000000E-01  3.402300000000E-01
  93   7     7.940400000000E-01  3.358500000000E-01  1.597700000000E-01
  94   7     2.059600000000E-01  6.641500000000E-01  1.597700000000E-01
  95   7     3.358500000000E-01  2.059600000000E-01  8.402300000000E-01
  96   7     6.641500000000E-01  7.940400000000E-01  8.402300000000E-01
  97   7     1.518600000000E-01  9.677900000000E-01  5.884000000000E-01
  98   7     8.481400000000E-01  3.221000000000E-02  5.884000000000E-01
  99   7     9.677900000000E-01  8.481400000000E-01  4.116000000000E-01
 100   7     3.221000000000E-02  1.518600000000E-01  4.116000000000E-01
 101   7     6.518600000000E-01  4.677900000000E-01  8.840000000000E-02
 102   7     3.481400000000E-01  5.322100000000E-01  8.840000000000E-02
 103   7     4.677900000000E-01  3.481400000000E-01  9.116000000000E-01
 104   7     5.322100000000E-01  6.518600000000E-01  9.116000000000E-01
 105   7     1.800200000000E-01  8.388700000000E-01  6.128200000000E-01
 106   7     8.199800000000E-01  1.611300000000E-01  6.128200000000E-01
 107   7     8.388700000000E-01  8.199800000000E-01  3.871800000000E-01
 108   7     1.611300000000E-01  1.800200000000E-01  3.871800000000E-01
 109   7     6.800200000000E-01  3.388700000000E-01  1.128200000000E-01
 110   7     3.199800000000E-01  6.611300000000E-01  1.128200000000E-01
 111   7     3.388700000000E-01  3.199800000000E-01  8.871800000000E-01
 112   7     6.611300000000E-01  6.800200000000E-01  8.871800000000E-01
 113   7     9.174200000000E-01  8.687700000000E-01  1.079100000000E-01
 114   7     8.258000000000E-02  1.312300000000E-01  1.079100000000E-01
 115   7     8.687700000000E-01  8.258000000000E-02  8.920900000000E-01
 116   7     1.312300000000E-01  9.174200000000E-01  8.920900000000E-01
 117   7     4.174200000000E-01  3.687700000000E-01  6.079100000000E-01
 118   7     5.825800000000E-01  6.312300000000E-01  6.079100000000E-01
 119   7     3.687700000000E-01  5.825800000000E-01  3.920900000000E-01
 120   7     6.312300000000E-01  4.174200000000E-01  3.920900000000E-01
 121  30     0.000000000000E+00  5.000000000000E-01  2.500000000000E-01
 122  30     5.000000000000E-01  0.000000000000E+00  7.500000000000E-01
 123  30     0.000000000000E+00  0.000000000000E+00  5.000000000000E-01
 124  30     5.000000000000E-01  5.000000000000E-01  0.000000000000E+00

 *******************************************************************************

 << INFORMATION >>: FROM NOW ON, ALL COORDINATES REFER TO THE PRIMITIVE CELL

 *******************************************************************************

 LATTICE PARAMETERS  (ANGSTROMS AND DEGREES) - PRIMITIVE CELL
       A          B          C        ALPHA      BETA     GAMMA        VOLUME
    9.78647    9.78647    9.78647   117.47208 117.47208  94.43726    685.870456

 INPUT LIST - ATOM N.   2 NOT IRREDUCIBLE

 INPUT LIST - ATOM N.   3 NOT IRREDUCIBLE

 INPUT LIST - ATOM N.   4 NOT IRREDUCIBLE

 INPUT LIST - ATOM N.   1 NOT IRREDUCIBLE

 INPUT LIST - ATOM N.   2 NOT IRREDUCIBLE

 INPUT LIST - ATOM N.   3 NOT IRREDUCIBLE

 INPUT LIST - ATOM N.   4 NOT IRREDUCIBLE

 INPUT LIST - ATOM N.   6 NOT IRREDUCIBLE

 INPUT LIST - ATOM N.   7 NOT IRREDUCIBLE

 INPUT LIST - ATOM N.   8 NOT IRREDUCIBLE

 INPUT LIST - ATOM N.   5 NOT IRREDUCIBLE

 INPUT LIST - ATOM N.   6 NOT IRREDUCIBLE

 INPUT LIST - ATOM N.   7 NOT IRREDUCIBLE

 INPUT LIST - ATOM N.   8 NOT IRREDUCIBLE

 INPUT LIST - ATOM N.  10 NOT IRREDUCIBLE

 INPUT LIST - ATOM N.  11 NOT IRREDUCIBLE

 INPUT LIST - ATOM N.  12 NOT IRREDUCIBLE

 INPUT LIST - ATOM N.   9 NOT IRREDUCIBLE

 INPUT LIST - ATOM N.  10 NOT IRREDUCIBLE

 INPUT LIST - ATOM N.  11 NOT IRREDUCIBLE

 INPUT LIST - ATOM N.  12 NOT IRREDUCIBLE

 INPUT LIST - ATOM N.  14 NOT IRREDUCIBLE

 INPUT LIST - ATOM N.  15 NOT IRREDUCIBLE

 INPUT LIST - ATOM N.  16 NOT IRREDUCIBLE

 INPUT LIST - ATOM N.  13 NOT IRREDUCIBLE

 INPUT LIST - ATOM N.  14 NOT IRREDUCIBLE

 INPUT LIST - ATOM N.  15 NOT IRREDUCIBLE

 INPUT LIST - ATOM N.  16 NOT IRREDUCIBLE

 INPUT LIST - ATOM N.  18 NOT IRREDUCIBLE

 INPUT LIST - ATOM N.  19 NOT IRREDUCIBLE

 INPUT LIST - ATOM N.  20 NOT IRREDUCIBLE

 INPUT LIST - ATOM N.  17 NOT IRREDUCIBLE

 INPUT LIST - ATOM N.  18 NOT IRREDUCIBLE

 INPUT LIST - ATOM N.  19 NOT IRREDUCIBLE

 INPUT LIST - ATOM N.  20 NOT IRREDUCIBLE

 INPUT LIST - ATOM N.  22 NOT IRREDUCIBLE

 INPUT LIST - ATOM N.  23 NOT IRREDUCIBLE

 INPUT LIST - ATOM N.  24 NOT IRREDUCIBLE

 INPUT LIST - ATOM N.  21 NOT IRREDUCIBLE

 INPUT LIST - ATOM N.  22 NOT IRREDUCIBLE

 INPUT LIST - ATOM N.  23 NOT IRREDUCIBLE

 INPUT LIST - ATOM N.  24 NOT IRREDUCIBLE

 INPUT LIST - ATOM N.  26 NOT IRREDUCIBLE

 INPUT LIST - ATOM N.  27 NOT IRREDUCIBLE

 INPUT LIST - ATOM N.  28 NOT IRREDUCIBLE

 INPUT LIST - ATOM N.  25 NOT IRREDUCIBLE

 INPUT LIST - ATOM N.  26 NOT IRREDUCIBLE

 INPUT LIST - ATOM N.  27 NOT IRREDUCIBLE

 INPUT LIST - ATOM N.  28 NOT IRREDUCIBLE

 INPUT LIST - ATOM N.  30 NOT IRREDUCIBLE

 INPUT LIST - ATOM N.  31 NOT IRREDUCIBLE

 INPUT LIST - ATOM N.  32 NOT IRREDUCIBLE

 INPUT LIST - ATOM N.  29 NOT IRREDUCIBLE

 INPUT LIST - ATOM N.  30 NOT IRREDUCIBLE

 INPUT LIST - ATOM N.  31 NOT IRREDUCIBLE

 INPUT LIST - ATOM N.  32 NOT IRREDUCIBLE

 INPUT LIST - ATOM N.  34 NOT IRREDUCIBLE

 INPUT LIST - ATOM N.  35 NOT IRREDUCIBLE

 INPUT LIST - ATOM N.  36 NOT IRREDUCIBLE

 INPUT LIST - ATOM N.  33 NOT IRREDUCIBLE

 INPUT LIST - ATOM N.  34 NOT IRREDUCIBLE

 INPUT LIST - ATOM N.  35 NOT IRREDUCIBLE

 INPUT LIST - ATOM N.  36 NOT IRREDUCIBLE

 INPUT LIST - ATOM N.  38 NOT IRREDUCIBLE

 INPUT LIST - ATOM N.  39 NOT IRREDUCIBLE

 INPUT LIST - ATOM N.  40 NOT IRREDUCIBLE

 INPUT LIST - ATOM N.  37 NOT IRREDUCIBLE

 INPUT LIST - ATOM N.  38 NOT IRREDUCIBLE

 INPUT LIST - ATOM N.  39 NOT IRREDUCIBLE

 INPUT LIST - ATOM N.  40 NOT IRREDUCIBLE

 INPUT LIST - ATOM N.  42 NOT IRREDUCIBLE

 INPUT LIST - ATOM N.  43 NOT IRREDUCIBLE

 INPUT LIST - ATOM N.  44 NOT IRREDUCIBLE

 INPUT LIST - ATOM N.  41 NOT IRREDUCIBLE

 INPUT LIST - ATOM N.  42 NOT IRREDUCIBLE

 INPUT LIST - ATOM N.  43 NOT IRREDUCIBLE

 INPUT LIST - ATOM N.  44 NOT IRREDUCIBLE

 INPUT LIST - ATOM N.  46 NOT IRREDUCIBLE

 INPUT LIST - ATOM N.  47 NOT IRREDUCIBLE

 INPUT LIST - ATOM N.  48 NOT IRREDUCIBLE

 INPUT LIST - ATOM N.  45 NOT IRREDUCIBLE

 INPUT LIST - ATOM N.  46 NOT IRREDUCIBLE

 INPUT LIST - ATOM N.  47 NOT IRREDUCIBLE

 INPUT LIST - ATOM N.  48 NOT IRREDUCIBLE

 INPUT LIST - ATOM N.  50 NOT IRREDUCIBLE

 INPUT LIST - ATOM N.  51 NOT IRREDUCIBLE

 INPUT LIST - ATOM N.  52 NOT IRREDUCIBLE

 INPUT LIST - ATOM N.  49 NOT IRREDUCIBLE

 INPUT LIST - ATOM N.  50 NOT IRREDUCIBLE

 INPUT LIST - ATOM N.  51 NOT IRREDUCIBLE

 INPUT LIST - ATOM N.  52 NOT IRREDUCIBLE

 INPUT LIST - ATOM N.  54 NOT IRREDUCIBLE

 INPUT LIST - ATOM N.  55 NOT IRREDUCIBLE

 INPUT LIST - ATOM N.  56 NOT IRREDUCIBLE

 INPUT LIST - ATOM N.  53 NOT IRREDUCIBLE

 INPUT LIST - ATOM N.  54 NOT IRREDUCIBLE

 INPUT LIST - ATOM N.  55 NOT IRREDUCIBLE

 INPUT LIST - ATOM N.  56 NOT IRREDUCIBLE

 INPUT LIST - ATOM N.  58 NOT IRREDUCIBLE

 INPUT LIST - ATOM N.  59 NOT IRREDUCIBLE

 INPUT LIST - ATOM N.  60 NOT IRREDUCIBLE

 INPUT LIST - ATOM N.  57 NOT IRREDUCIBLE

 INPUT LIST - ATOM N.  58 NOT IRREDUCIBLE

 INPUT LIST - ATOM N.  59 NOT IRREDUCIBLE

 INPUT LIST - ATOM N.  60 NOT IRREDUCIBLE

 INPUT LIST - ATOM N.  61 NOT IRREDUCIBLE

 INPUT LIST - ATOM N.  62 NOT IRREDUCIBLE

 COORDINATES OF THE EQUIVALENT ATOMS (FRACTIONAL UNITS)

 N. ATOM EQUIV AT. N.          X                  Y                  Z

   1   1   1   17 CL   -1.25960000000E-01 -3.05720000000E-01  2.94980000000E-01
   2   1   2   17 CL    3.99300000000E-01 -4.20940000000E-01 -2.94980000000E-01
   3   1   3   17 CL    3.05720000000E-01 -3.99300000000E-01  1.79760000000E-01
   4   1   4   17 CL    4.20940000000E-01  1.25960000000E-01 -1.79760000000E-01








   5   9   1    1 H    -2.33980000000E-01  6.67500000000E-02 -3.48890000000E-01
   6   9   2    1 H     4.15640000000E-01  1.14910000000E-01  3.48890000000E-01
   7   9   3    1 H    -6.67500000000E-02 -4.15640000000E-01 -3.00730000000E-01
   8   9   4    1 H    -1.14910000000E-01  2.33980000000E-01  3.00730000000E-01








   9  17   1   17 CL    1.17570000000E-01 -2.57190000000E-01 -4.13600000000E-01
  10  17   2   17 CL    1.56410000000E-01 -4.68830000000E-01  4.13600000000E-01
  11  17   3   17 CL    2.57190000000E-01 -1.56410000000E-01  3.74760000000E-01
  12  17   4   17 CL    4.68830000000E-01 -1.17570000000E-01 -3.74760000000E-01

 NUMBER OF SYMMETRY OPERATORS         :    4
 *******************************************************************************
 * GEOMETRY EDITING - INPUT COORDINATES ARE GIVEN IN ANGSTROM         
 *******************************************************************************

 GEOMETRY NOW FULLY CONSISTENT WITH THE GROUP
 *******************************************************************************
 *  GEOMETRY EDITING
 *  THE SYMMETRY OF THE CRYSTAL IS KEPT AND APPLIED TO THE PERTURBATION
 *******************************************************************************
 INFORMATION **** NEW DEFAULT **** FINALRUN 4 FOR GEOMETRY OPTIMIZATIONS
 INFORMATION **** NEW DEFAULT **** OPTGEOM OPTIMIZES BOTH ATOMIC COORDINATES AND CELL PARAMETERS
 INFORMATION **** NEW DEFAULT **** TOL. ON ATOMIC DISP TO REDEFINE REF. GEOMETRY: 0.8 Angs
 INFORMATION **** NEW DEFAULT **** N POINTS TO REDEFINE REF. GEOMETRY: N OF OPT DEGS OF FREEDOM
 INFORMATION **** NEW DEFAULT **** TOL. ON ENERGY TO REDEFINE REF. GEOMETRY: 10**-3*(5*N. ATOMS)

 IMPORTANT INFORMATION:
 THE COORDINATE SYSTEM ADOPTED IN THE OPTIMIZATION IS NOT IN
 GENERAL HOMOGENEOUS UNITS. FOR THIS REASON THE GRADIENT AND 
 HESSIAN MATRIX IN TERMS OF THIS SYSTEM ARE GIVEN WITHOUT
 UNITS. FOR MORE DETAILS SEE THE MANUAL.

 *******************************************************************************
 COMBINED CELL/ATOM OPTIMIZATION CONTROL

 INITIAL TRUST RADIUS         0.50000 MAXIMUM TRUST RADIUS               4.00000
 MAXIMUM GRADIENT COMPONENT   0.00045 MAXIMUM DISPLACEMENT COMPONENT     0.00180
 R.M.S. OF GRADIENT COMPONENT 0.00030 R.M.S. OF DISPLACEMENT COMPONENTS  0.00120
 THRESHOLD ON ENERGY CHANGE 0.100E-06 EXTRAPOLATING POLYNOMIAL ORDER           2
 MAXIMUM ALLOWED NUMBER OF STEPS   -1 SORTING OF ENERGY POINTS:               NO
 ANALYTICAL  GRADIENT                 HESSIAN UPDATING                      BFGS
 STEP SIZE NUMERICAL GRADIENT 0.00100
 INITIAL HESSIAN MATRIX: SCHLEGEL MODEL 2
 *******************************************************************************


 GCALCO - MAX INDICES DIRECT LATTICE VECTOR    14    14    16
 NO.OF VECTORS CREATED 6999 STARS  481 RMAX   197.96270 BOHR

 GEOMETRY FOR WAVE FUNCTION - DIMENSIONALITY OF THE SYSTEM    3
 (NON PERIODIC DIRECTION: LATTICE PARAMETER FORMALLY SET TO 500)
 *******************************************************************************
 LATTICE PARAMETERS (ANGSTROMS AND DEGREES) - BOHR = 0.5291772083 ANGSTROM
 PRIMITIVE CELL - CENTRING CODE 6/0 VOLUME=   685.870456 - DENSITY  2.711 g/cm^3
         A              B              C           ALPHA      BETA       GAMMA 
     9.78647490     9.78647490     9.78647490   117.472078 117.472078  94.437262
 *******************************************************************************
 ATOMS IN THE ASYMMETRIC UNIT   17 - ATOMS IN THE UNIT CELL:   62
     ATOM                 X/A                 Y/B                 Z/C    
 *******************************************************************************
      1 T  17 CL   -1.259600000000E-01 -3.057200000000E-01  2.949800000000E-01
      2 F  17 CL    3.993000000000E-01 -4.209400000000E-01 -2.949800000000E-01
      3 F  17 CL    3.057200000000E-01 -3.993000000000E-01  1.797600000000E-01
      4 F  17 CL    4.209400000000E-01  1.259600000000E-01 -1.797600000000E-01
      5 T   1 H    -2.339800000000E-01  6.675000000000E-02 -3.488900000000E-01
      6 F   1 H     4.156400000000E-01  1.149100000000E-01  3.488900000000E-01
      7 F   1 H    -6.675000000000E-02 -4.156400000000E-01 -3.007300000000E-01
      8 F   1 H    -1.149100000000E-01  2.339800000000E-01  3.007300000000E-01
      9 T  17 CL    1.175700000000E-01 -2.571900000000E-01 -4.136000000000E-01
     10 F  17 CL    1.564100000000E-01 -4.688300000000E-01  4.136000000000E-01
     11 F  17 CL    2.571900000000E-01 -1.564100000000E-01  3.747600000000E-01
     12 F  17 CL    4.688300000000E-01 -1.175700000000E-01 -3.747600000000E-01
     13 T  17 CL    1.811100000000E-01 -3.390000000000E-02 -1.008300000000E-01
     14 F  17 CL    6.693000000000E-02  2.819400000000E-01  1.008300000000E-01
     15 F  17 CL    3.390000000000E-02 -6.693000000000E-02  2.150100000000E-01
     16 F  17 CL   -2.819400000000E-01 -1.811100000000E-01 -2.150100000000E-01
     17 T   6 C    -1.974700000000E-01 -1.188000000000E-01  4.506300000000E-01
     18 F   6 C     4.305700000000E-01  3.519000000000E-01 -4.506300000000E-01
     19 F   6 C     1.188000000000E-01 -4.305700000000E-01 -7.867000000000E-02
     20 F   6 C    -3.519000000000E-01  1.974700000000E-01  7.867000000000E-02
     21 T   6 C    -3.338300000000E-01 -1.256000000000E-01  2.945700000000E-01
     22 F   6 C    -4.201700000000E-01  3.716000000000E-01 -2.945700000000E-01
     23 F   6 C     1.256000000000E-01  4.201700000000E-01 -2.082300000000E-01
     24 F   6 C    -3.716000000000E-01  3.338300000000E-01  2.082300000000E-01
     25 T   6 C    -9.899000000000E-02 -2.142900000000E-01  4.320400000000E-01
     26 F   6 C     3.536700000000E-01  4.689700000000E-01 -4.320400000000E-01
     27 F   6 C     2.142900000000E-01 -3.536700000000E-01  1.153000000000E-01
     28 F   6 C    -4.689700000000E-01  9.899000000000E-02 -1.153000000000E-01
     29 T   6 C     7.302000000000E-02 -6.388000000000E-02 -2.317200000000E-01
     30 F   6 C     1.678400000000E-01  3.047400000000E-01  2.317200000000E-01
     31 F   6 C     6.388000000000E-02 -1.678400000000E-01  1.369000000000E-01
     32 F   6 C    -3.047400000000E-01 -7.302000000000E-02 -1.369000000000E-01
     33 T   6 C    -1.559200000000E-01 -4.140000000000E-03 -3.689200000000E-01
     34 F   6 C     3.647800000000E-01  2.130000000000E-01  3.689200000000E-01
     35 F   6 C     4.140000000000E-03 -3.647800000000E-01 -1.517800000000E-01
     36 F   6 C    -2.130000000000E-01  1.559200000000E-01  1.517800000000E-01
     37 T   6 C     2.196300000000E-01  4.432200000000E-01  4.064100000000E-01
     38 F   6 C     3.681000000000E-02 -1.867800000000E-01 -4.064100000000E-01
     39 F   6 C    -4.432200000000E-01 -3.681000000000E-02 -2.235900000000E-01
     40 F   6 C     1.867800000000E-01 -2.196300000000E-01  2.235900000000E-01
     41 T   7 N    -3.698800000000E-01  8.060000000000E-03  3.036000000000E-01
     42 F   7 N    -2.955400000000E-01  3.265200000000E-01 -3.036000000000E-01
     43 F   7 N    -8.060000000000E-03  2.955400000000E-01 -3.779400000000E-01
     44 F   7 N    -3.265200000000E-01  3.698800000000E-01  3.779400000000E-01
     45 T   7 N     4.956200000000E-01 -4.619000000000E-02  1.298900000000E-01
     46 F   7 N    -1.760800000000E-01  3.657300000000E-01 -1.298900000000E-01
     47 F   7 N     4.619000000000E-02  1.760800000000E-01 -4.581900000000E-01
     48 F   7 N    -3.657300000000E-01 -4.956200000000E-01  4.581900000000E-01
     49 T   7 N    -4.438100000000E-01 -2.597400000000E-01  1.196500000000E-01
     50 F   7 N    -3.793900000000E-01  4.365400000000E-01 -1.196500000000E-01
     51 F   7 N     2.597400000000E-01  3.793900000000E-01 -1.840700000000E-01
     52 F   7 N    -4.365400000000E-01  4.438100000000E-01  1.840700000000E-01
     53 T   7 N     4.516900000000E-01 -2.071600000000E-01  1.889000000000E-02
     54 F   7 N    -2.260500000000E-01  4.328000000000E-01 -1.889000000000E-02
     55 F   7 N     2.071600000000E-01  2.260500000000E-01 -3.411500000000E-01
     56 F   7 N    -4.328000000000E-01 -4.516900000000E-01  3.411500000000E-01
     57 T   7 N    -2.332000000000E-02  2.533000000000E-02 -2.138100000000E-01
     58 F   7 N     2.391400000000E-01  1.904900000000E-01  2.138100000000E-01
     59 F   7 N    -2.533000000000E-02 -2.391400000000E-01 -4.865000000000E-02
     60 F   7 N    -1.904900000000E-01  2.332000000000E-02  4.865000000000E-02
     61 T  30 ZN   -2.500000000000E-01  2.500000000000E-01  5.000000000000E-01
     62 T  30 ZN   -5.000000000000E-01  5.000000000000E-01  0.000000000000E+00

 TRANSFORMATION MATRIX PRIMITIVE-CRYSTALLOGRAPHIC CELL
  0.0000  1.0000  1.0000  1.0000  0.0000  1.0000  1.0000  1.0000  0.0000

 *******************************************************************************
 CRYSTALLOGRAPHIC CELL (VOLUME=       1371.74091142)
         A              B              C           ALPHA      BETA       GAMMA 
    10.15800000    10.15800000    13.29400000    90.000000  90.000000  90.000000

 COORDINATES IN THE CRYSTALLOGRAPHIC CELL
     ATOM                 X/A                 Y/B                 Z/C    
 *******************************************************************************
      1 T  17 CL    5.761000000000E-02  2.373700000000E-01 -3.633300000000E-01
      2 F  17 CL   -5.761000000000E-02 -2.373700000000E-01 -3.633300000000E-01
      3 F  17 CL    2.373700000000E-01 -5.761000000000E-02  3.633300000000E-01
      4 F  17 CL   -2.373700000000E-01  5.761000000000E-02  3.633300000000E-01
      5 T   1 H    -2.408000000000E-02 -3.248100000000E-01  9.083000000000E-02
      6 F   1 H     2.408000000000E-02  3.248100000000E-01  9.083000000000E-02
      7 F   1 H    -3.248100000000E-01  2.408000000000E-02 -9.083000000000E-02
      8 F   1 H     3.248100000000E-01 -2.408000000000E-02 -9.083000000000E-02
      9 T  17 CL   -3.941800000000E-01 -1.942000000000E-02  1.369900000000E-01
     10 F  17 CL    3.941800000000E-01  1.942000000000E-02  1.369900000000E-01
     11 F  17 CL   -1.942000000000E-02  3.941800000000E-01 -1.369900000000E-01
     12 F  17 CL    1.942000000000E-02 -3.941800000000E-01 -1.369900000000E-01
     13 T  17 CL   -1.579200000000E-01  5.709000000000E-02  1.240200000000E-01
     14 F  17 CL    1.579200000000E-01 -5.709000000000E-02  1.240200000000E-01
     15 F  17 CL    5.709000000000E-02  1.579200000000E-01 -1.240200000000E-01
     16 F  17 CL   -5.709000000000E-02 -1.579200000000E-01 -1.240200000000E-01
     17 T   6 C    -2.353500000000E-01 -3.140200000000E-01  1.165500000000E-01
     18 F   6 C     2.353500000000E-01  3.140200000000E-01  1.165500000000E-01
     19 F   6 C    -3.140200000000E-01  2.353500000000E-01 -1.165500000000E-01
     20 F   6 C     3.140200000000E-01 -2.353500000000E-01 -1.165500000000E-01
     21 T   6 C    -2.486000000000E-01 -4.568300000000E-01  1.230000000000E-01
     22 F   6 C     2.486000000000E-01  4.568300000000E-01  1.230000000000E-01
     23 F   6 C    -4.568300000000E-01  2.486000000000E-01 -1.230000000000E-01
     24 F   6 C     4.568300000000E-01 -2.486000000000E-01 -1.230000000000E-01
     25 T   6 C    -3.416300000000E-01 -2.263300000000E-01  1.273400000000E-01
     26 F   6 C     3.416300000000E-01  2.263300000000E-01  1.273400000000E-01
     27 F   6 C    -2.263300000000E-01  3.416300000000E-01 -1.273400000000E-01
     28 F   6 C     2.263300000000E-01 -3.416300000000E-01 -1.273400000000E-01
     29 T   6 C    -1.843100000000E-01 -4.741000000000E-02  1.204300000000E-01
     30 F   6 C     1.843100000000E-01  4.741000000000E-02  1.204300000000E-01
     31 F   6 C    -4.741000000000E-02  1.843100000000E-01 -1.204300000000E-01
     32 F   6 C     4.741000000000E-02 -1.843100000000E-01 -1.204300000000E-01
     33 T   6 C    -1.085700000000E-01 -2.603500000000E-01  1.044300000000E-01
     34 F   6 C     1.085700000000E-01  2.603500000000E-01  1.044300000000E-01
     35 F   6 C    -2.603500000000E-01  1.085700000000E-01 -1.044300000000E-01
     36 F   6 C     2.603500000000E-01 -1.085700000000E-01 -1.044300000000E-01
     37 T   6 C     3.150000000000E-01  9.141000000000E-02  1.282200000000E-01
     38 F   6 C    -3.150000000000E-01 -9.141000000000E-02  1.282200000000E-01
     39 F   6 C     9.141000000000E-02 -3.150000000000E-01 -1.282200000000E-01
     40 F   6 C    -9.141000000000E-02  3.150000000000E-01 -1.282200000000E-01
     41 T   7 N    -1.592300000000E-01  4.628300000000E-01  1.672900000000E-01
     42 F   7 N     1.592300000000E-01 -4.628300000000E-01  1.672900000000E-01
     43 F   7 N     4.628300000000E-01  1.592300000000E-01 -1.672900000000E-01
     44 F   7 N    -4.628300000000E-01 -1.592300000000E-01 -1.672900000000E-01
     45 T   7 N    -2.059600000000E-01  3.358500000000E-01  1.597700000000E-01
     46 F   7 N     2.059600000000E-01 -3.358500000000E-01  1.597700000000E-01
     47 F   7 N     3.358500000000E-01  2.059600000000E-01 -1.597700000000E-01
     48 F   7 N    -3.358500000000E-01 -2.059600000000E-01 -1.597700000000E-01
     49 T   7 N     1.518600000000E-01 -3.221000000000E-02 -4.116000000000E-01
     50 F   7 N    -1.518600000000E-01  3.221000000000E-02 -4.116000000000E-01
     51 F   7 N    -3.221000000000E-02 -1.518600000000E-01  4.116000000000E-01
     52 F   7 N     3.221000000000E-02  1.518600000000E-01  4.116000000000E-01
     53 T   7 N    -3.199800000000E-01  3.388700000000E-01  1.128200000000E-01
     54 F   7 N     3.199800000000E-01 -3.388700000000E-01  1.128200000000E-01
     55 F   7 N     3.388700000000E-01  3.199800000000E-01 -1.128200000000E-01
     56 F   7 N    -3.388700000000E-01 -3.199800000000E-01 -1.128200000000E-01
     57 T   7 N    -8.258000000000E-02 -1.312300000000E-01  1.079100000000E-01
     58 F   7 N     8.258000000000E-02  1.312300000000E-01  1.079100000000E-01
     59 F   7 N    -1.312300000000E-01  8.258000000000E-02 -1.079100000000E-01
     60 F   7 N     1.312300000000E-01 -8.258000000000E-02 -1.079100000000E-01
     61 T  30 ZN    4.626932236752E-17  5.000000000000E-01  2.500000000000E-01
     62 T  30 ZN    0.000000000000E+00  0.000000000000E+00  5.000000000000E-01

 T = ATOM BELONGING TO THE ASYMMETRIC UNIT

 ****    4 SYMMOPS - TRANSLATORS IN FRACTIONAL UNITS
 **** MATRICES AND TRANSLATORS IN THE CRYSTALLOGRAPHIC REFERENCE FRAME
   V INV                    ROTATION MATRICES                   TRANSLATORS
   1   1  1.00  0.00  0.00  0.00  1.00  0.00  0.00  0.00  1.00  0.00  0.00  0.00
   2   2  0.00  1.00 -1.00  1.00 -0.00 -1.00 -0.00  0.00 -1.00  0.00  0.00  0.00
   3   4 -0.00 -1.00  0.00  0.00 -1.00  1.00  1.00 -1.00  0.00  0.00  0.00  0.00
   4   3 -1.00 -0.00  1.00 -1.00  0.00 -0.00 -1.00  1.00 -0.00  0.00  0.00  0.00

 DIRECT LATTICE VECTORS CARTESIAN COMPONENTS (ANGSTROM)
          X                    Y                    Z
  -0.507900000000E+01   0.507900000000E+01   0.664700000000E+01
   0.507900000000E+01  -0.507900000000E+01   0.664700000000E+01
   0.507900000000E+01   0.507900000000E+01  -0.664700000000E+01


 CARTESIAN COORDINATES - PRIMITIVE CELL
 *******************************************************************************
 *      ATOM          X(ANGSTROM)         Y(ANGSTROM)         Z(ANGSTROM)
 *******************************************************************************
    1    17 CL    5.852023800000E-01  2.411204460000E+00 -4.830109020000E+00
    2    17 CL   -5.852023800000E-01 -2.411204460000E+00 -4.830109020000E+00
    3    17 CL    2.411204460000E+00 -5.852023800000E-01  4.830109020000E+00
    4    17 CL   -2.411204460000E+00  5.852023800000E-01  4.830109020000E+00
    5     1 H    -2.446046400000E-01 -3.299419980000E+00  1.207494020000E+00
    6     1 H     2.446046400000E-01  3.299419980000E+00  1.207494020000E+00
    7     1 H    -3.299419980000E+00  2.446046400000E-01 -1.207494020000E+00
    8     1 H     3.299419980000E+00 -2.446046400000E-01 -1.207494020000E+00
    9    17 CL   -4.004080440000E+00 -1.972683600000E-01  1.821145060000E+00
   10    17 CL    4.004080440000E+00  1.972683600000E-01  1.821145060000E+00
   11    17 CL   -1.972683600000E-01  4.004080440000E+00 -1.821145060000E+00
   12    17 CL    1.972683600000E-01 -4.004080440000E+00 -1.821145060000E+00
   13    17 CL   -1.604151360000E+00  5.799202200000E-01  1.648721880000E+00
   14    17 CL    1.604151360000E+00 -5.799202200000E-01  1.648721880000E+00
   15    17 CL    5.799202200000E-01  1.604151360000E+00 -1.648721880000E+00
   16    17 CL   -5.799202200000E-01 -1.604151360000E+00 -1.648721880000E+00
   17     6 C    -2.390685300000E+00 -3.189815160000E+00  1.549415700000E+00
   18     6 C     2.390685300000E+00  3.189815160000E+00  1.549415700000E+00
   19     6 C    -3.189815160000E+00  2.390685300000E+00 -1.549415700000E+00
   20     6 C     3.189815160000E+00 -2.390685300000E+00 -1.549415700000E+00
   21     6 C    -2.525278800000E+00 -4.640479140000E+00  1.635162000000E+00
   22     6 C     2.525278800000E+00  4.640479140000E+00  1.635162000000E+00
   23     6 C    -4.640479140000E+00  2.525278800000E+00 -1.635162000000E+00
   24     6 C     4.640479140000E+00 -2.525278800000E+00 -1.635162000000E+00
   25     6 C    -3.470277540000E+00 -2.299060140000E+00  1.692857960000E+00
   26     6 C     3.470277540000E+00  2.299060140000E+00  1.692857960000E+00
   27     6 C    -2.299060140000E+00  3.470277540000E+00 -1.692857960000E+00
   28     6 C     2.299060140000E+00 -3.470277540000E+00 -1.692857960000E+00
   29     6 C    -1.872220980000E+00 -4.815907800000E-01  1.600996420000E+00
   30     6 C     1.872220980000E+00  4.815907800000E-01  1.600996420000E+00
   31     6 C    -4.815907800000E-01  1.872220980000E+00 -1.600996420000E+00
   32     6 C     4.815907800000E-01 -1.872220980000E+00 -1.600996420000E+00
   33     6 C    -1.102854060000E+00 -2.644635300000E+00  1.388292420000E+00
   34     6 C     1.102854060000E+00  2.644635300000E+00  1.388292420000E+00
   35     6 C    -2.644635300000E+00  1.102854060000E+00 -1.388292420000E+00
   36     6 C     2.644635300000E+00 -1.102854060000E+00 -1.388292420000E+00
   37     6 C     3.199770000000E+00  9.285427800000E-01  1.704556680000E+00
   38     6 C    -3.199770000000E+00 -9.285427800000E-01  1.704556680000E+00
   39     6 C     9.285427800000E-01 -3.199770000000E+00 -1.704556680000E+00
   40     6 C    -9.285427800000E-01  3.199770000000E+00 -1.704556680000E+00
   41     7 N    -1.617458340000E+00  4.701427140000E+00  2.223953260000E+00
   42     7 N     1.617458340000E+00 -4.701427140000E+00  2.223953260000E+00
   43     7 N     4.701427140000E+00  1.617458340000E+00 -2.223953260000E+00
   44     7 N    -4.701427140000E+00 -1.617458340000E+00 -2.223953260000E+00
   45     7 N    -2.092141680000E+00  3.411564300000E+00  2.123982380000E+00
   46     7 N     2.092141680000E+00 -3.411564300000E+00  2.123982380000E+00
   47     7 N     3.411564300000E+00  2.092141680000E+00 -2.123982380000E+00
   48     7 N    -3.411564300000E+00 -2.092141680000E+00 -2.123982380000E+00
   49     7 N     1.542593880000E+00 -3.271891800000E-01 -5.471810400000E+00
   50     7 N    -1.542593880000E+00  3.271891800000E-01 -5.471810400000E+00
   51     7 N    -3.271891800000E-01 -1.542593880000E+00  5.471810400000E+00
   52     7 N     3.271891800000E-01  1.542593880000E+00  5.471810400000E+00
   53     7 N    -3.250356840000E+00  3.442241460000E+00  1.499829080000E+00
   54     7 N     3.250356840000E+00 -3.442241460000E+00  1.499829080000E+00
   55     7 N     3.442241460000E+00  3.250356840000E+00 -1.499829080000E+00
   56     7 N    -3.442241460000E+00 -3.250356840000E+00 -1.499829080000E+00
   57     7 N    -8.388476400000E-01 -1.333034340000E+00  1.434555540000E+00
   58     7 N     8.388476400000E-01  1.333034340000E+00  1.434555540000E+00
   59     7 N    -1.333034340000E+00  8.388476400000E-01 -1.434555540000E+00
   60     7 N     1.333034340000E+00 -8.388476400000E-01 -1.434555540000E+00
   61    30 ZN    4.700037766092E-16  5.079000000000E+00 -9.970500000000E+00
   62    30 ZN    0.000000000000E+00  0.000000000000E+00  6.647000000000E+00

 *******************************************************************************
 STARTING BASIS SET HANDLING 
 *******************************************************************************

 Loading internal basis set: POB-DZVPP           

 Please cite in your publication:
 Peintinger, M. F., Oliveira, D. V. and Bredow, T. (2013), Generally applicable 
 solid-state Gaussian basis sets, in preparation                                
                                                                                
                    

 *******************************************************************************
 LOCAL ATOMIC FUNCTIONS BASIS SET
 *******************************************************************************
   ATOM   X(AU)   Y(AU)   Z(AU)  N. TYPE  EXPONENT  S COEF   P COEF   D/F/G COEF
 *******************************************************************************
   1 CL   1.106   4.557  -9.128
                                  1 S  
                                         1.045E+04 1.971E-03 0.000E+00 0.000E+00
                                         1.572E+03 1.475E-02 0.000E+00 0.000E+00
                                         3.571E+02 6.668E-02 0.000E+00 0.000E+00
                                         1.003E+02 1.723E-01 0.000E+00 0.000E+00
                                         3.081E+01 1.588E-01 0.000E+00 0.000E+00
                                  2 S  
                                         5.192E+01-1.001E-01 0.000E+00 0.000E+00
                                         5.705E+00 6.084E-01 0.000E+00 0.000E+00
                                         2.351E+00 5.435E-01 0.000E+00 0.000E+00
                                  3 S  
                                         4.886E-01 1.000E+00 0.000E+00 0.000E+00
                                  4 S  
                                         1.984E-01 1.000E+00 0.000E+00 0.000E+00
                           5-     7 P  
                                         3.077E+02 0.000E+00-8.780E-03 0.000E+00
                                         7.210E+01 0.000E+00-6.356E-02 0.000E+00
                                         2.253E+01 0.000E+00-2.402E-01 0.000E+00
                                         7.899E+00 0.000E+00-4.780E-01 0.000E+00
                                         2.877E+00 0.000E+00-3.852E-01 0.000E+00
                           8-    10 P  
                                         9.483E-01 0.000E+00 1.000E+00 0.000E+00
                          11-    13 P  
                                         2.521E-01 0.000E+00 1.000E+00 0.000E+00
                          14-    18 D  
                                         9.722E-01 0.000E+00 0.000E+00 1.000E+00
                          19-    23 D  
                                         2.060E-01 0.000E+00 0.000E+00 1.000E+00
   2 CL  -1.106  -4.557  -9.128
   3 CL   4.557  -1.106   9.128
   4 CL  -4.557   1.106   9.128
   5 H   -0.462  -6.235   2.282
                                 93 S  
                                         2.263E+01 1.441E-02 0.000E+00 0.000E+00
                                         3.236E+00 1.072E-01 0.000E+00 0.000E+00
                                         7.304E-01 3.846E-01 0.000E+00 0.000E+00
                                 94 S  
                                         1.417E-01 1.000E+00 0.000E+00 0.000E+00
                          95-    97 P  
                                         3.944E-01 0.000E+00 1.000E+00 0.000E+00
                          98-   100 P  
                                         1.006E-01 0.000E+00 1.000E+00 0.000E+00
   6 H    0.462   6.235   2.282
   7 H   -6.235   0.462  -2.282
   8 H    6.235  -0.462  -2.282
   9 CL  -7.567  -0.373   3.441
  10 CL   7.567   0.373   3.441
  11 CL  -0.373   7.567  -3.441
  12 CL   0.373  -7.567  -3.441
  13 CL  -3.031   1.096   3.116
  14 CL   3.031  -1.096   3.116
  15 CL   1.096   3.031  -3.116
  16 CL  -1.096  -3.031  -3.116
  17 C   -4.518  -6.028   2.928
                                309 S  
                                         1.238E+03 5.457E-03 0.000E+00 0.000E+00
                                         1.863E+02 4.064E-02 0.000E+00 0.000E+00
                                         4.225E+01 1.803E-01 0.000E+00 0.000E+00
                                         1.168E+01 4.632E-01 0.000E+00 0.000E+00
                                         3.593E+00 4.409E-01 0.000E+00 0.000E+00
                                310 S  
                                         5.281E+00 1.000E+00 0.000E+00 0.000E+00
                                311 S  
                                         4.447E-01 1.000E+00 0.000E+00 0.000E+00
                         312-   314 P  
                                         9.468E+00 0.000E+00 3.839E-02 0.000E+00
                                         2.010E+00 0.000E+00 2.112E-01 0.000E+00
                                         5.477E-01 0.000E+00 5.133E-01 0.000E+00
                         315-   317 P  
                                         1.604E-01 0.000E+00 1.000E+00 0.000E+00
                         318-   322 D  
                                         6.070E-01 0.000E+00 0.000E+00 1.000E+00
                         323-   327 D  
                                         2.939E-01 0.000E+00 0.000E+00 1.000E+00
  18 C    4.518   6.028   2.928
  19 C   -6.028   4.518  -2.928
  20 C    6.028  -4.518  -2.928
  21 C   -4.772  -8.769   3.090
  22 C    4.772   8.769   3.090
  23 C   -8.769   4.772  -3.090
  24 C    8.769  -4.772  -3.090
  25 C   -6.558  -4.345   3.199
  26 C    6.558   4.345   3.199
  27 C   -4.345   6.558  -3.199
  28 C    4.345  -6.558  -3.199
  29 C   -3.538  -0.910   3.025
  30 C    3.538   0.910   3.025
  31 C   -0.910   3.538  -3.025
  32 C    0.910  -3.538  -3.025
  33 C   -2.084  -4.998   2.623
  34 C    2.084   4.998   2.623
  35 C   -4.998   2.084  -2.623
  36 C    4.998  -2.084  -2.623
  37 C    6.047   1.755   3.221
  38 C   -6.047  -1.755   3.221
  39 C    1.755  -6.047  -3.221
  40 C   -1.755   6.047  -3.221
  41 N   -3.057   8.884   4.203
                                765 S  
                                         1.713E+03-5.393E-03 0.000E+00 0.000E+00
                                         2.576E+02-4.022E-02 0.000E+00 0.000E+00
                                         5.846E+01-1.793E-01 0.000E+00 0.000E+00
                                         1.620E+01-4.638E-01 0.000E+00 0.000E+00
                                         5.005E+00-4.417E-01 0.000E+00 0.000E+00
                                766 S  
                                         6.217E-01 1.000E+00 0.000E+00 0.000E+00
                                767 S  
                                         2.921E-01 1.000E+00 0.000E+00 0.000E+00
                         768-   770 P  
                                         1.357E+01 0.000E+00-4.007E-02 0.000E+00
                                         2.926E+00 0.000E+00-2.181E-01 0.000E+00
                                         7.993E-01 0.000E+00-5.129E-01 0.000E+00
                         771-   773 P  
                                         2.244E-01 0.000E+00 1.000E+00 0.000E+00
                         774-   778 D  
                                         3.118E-01 0.000E+00 0.000E+00 1.000E+00
  42 N    3.057  -8.884   4.203
  43 N    8.884   3.057  -4.203
  44 N   -8.884  -3.057  -4.203
  45 N   -3.954   6.447   4.014
  46 N    3.954  -6.447   4.014
  47 N    6.447   3.954  -4.014
  48 N   -6.447  -3.954  -4.014
  49 N    2.915  -0.618 -10.340
  50 N   -2.915   0.618 -10.340
  51 N   -0.618  -2.915  10.340
  52 N    0.618   2.915  10.340
  53 N   -6.142   6.505   2.834
  54 N    6.142  -6.505   2.834
  55 N    6.505   6.142  -2.834
  56 N   -6.505  -6.142  -2.834
  57 N   -1.585  -2.519   2.711
  58 N    1.585   2.519   2.711
  59 N   -2.519   1.585  -2.711
  60 N    2.519  -1.585  -2.711
  61 ZN   0.000   9.598 -18.842
                               1045 S  
                                         8.200E+04 1.421E-03 0.000E+00 0.000E+00
                                         1.231E+04 1.089E-02 0.000E+00 0.000E+00
                                         2.801E+03 5.406E-02 0.000E+00 0.000E+00
                                         7.910E+02 1.885E-01 0.000E+00 0.000E+00
                                         2.576E+02 3.835E-01 0.000E+00 0.000E+00
                                         8.881E+01 2.972E-01 0.000E+00 0.000E+00
                               1046 S  
                                         1.719E+02-1.105E-01 0.000E+00 0.000E+00
                                         2.030E+01 6.461E-01 0.000E+00 0.000E+00
                                         8.346E+00 4.422E-01 0.000E+00 0.000E+00
                               1047 S  
                                         1.485E+01-2.271E-01 0.000E+00 0.000E+00
                                         2.450E+00 7.243E-01 0.000E+00 0.000E+00
                                         9.985E-01 4.484E-01 0.000E+00 0.000E+00
                               1048 S  
                                         1.493E+00 1.000E+00 0.000E+00 0.000E+00
                               1049 S  
                                         1.830E-01 1.000E+00 0.000E+00 0.000E+00
                        1050-  1052 P  
                                         1.072E+03 0.000E+00 9.277E-03 0.000E+00
                                         2.527E+02 0.000E+00 6.954E-02 0.000E+00
                                         8.010E+01 0.000E+00 2.716E-01 0.000E+00
                                         2.890E+01 0.000E+00 5.340E-01 0.000E+00
                                         1.077E+01 0.000E+00 3.450E-01 0.000E+00
                        1053-  1055 P  
                                         5.645E+00 0.000E+00 3.413E-01 0.000E+00
                                         2.168E+00 0.000E+00 5.639E-01 0.000E+00
                                         8.054E-01 0.000E+00 2.368E-01 0.000E+00
                        1056-  1058 P  
                                         2.721E-01 0.000E+00 1.000E+00 0.000E+00
                        1059-  1063 D  
                                         5.609E+01 0.000E+00 0.000E+00 2.959E-02
                                         1.575E+01 0.000E+00 0.000E+00 1.587E-01
                                         5.312E+00 0.000E+00 0.000E+00 3.798E-01
                                         1.774E+00 0.000E+00 0.000E+00 4.690E-01
                        1064-  1068 D  
                                         5.073E-01 0.000E+00 0.000E+00 1.000E+00
                        1069-  1075 F  
                                         2.814E+00 0.000E+00 0.000E+00 1.000E+00
                        1076-  1082 F  
                                         1.300E+00 0.000E+00 0.000E+00 1.000E+00
  62 ZN   0.000   0.000  12.561

 *******************************************************************************
 FINISHED BASIS SET HANDLING 
 *******************************************************************************

 INFORMATION **** SET_MPP **** PCRYSTAL CALCULATION
 INFORMATION **** READM2 **** NEW DEFAULT: FOCK/KS MATRIX MIXING SET TO 30 %
 INFORMATION **** READM2 **** NEW DEFAULT: FULL DIRECT SCF MODE
 INFORMATION **** READM2 **** NEW DEFAULT: COULOMB BIPOLAR BUFFER SET TO 32 Mb
 INFORMATION **** READM2 **** NEW DEFAULT: EXCHANGE BIPOLAR BUFFER SET TO 32 Mb

 *******************************************************************************
 NEW DEFAULT: DFT INTEGRATION GRID INCREASED TO XLGRID
 NEW DEFAULT: DIIS ACCELERATOR ACTIVE
 USE KEYWORD NODIIS TO TURN IT OFF
 *******************************************************************************

 INFORMATION **** DFTD3_INPUT **** PERFORM DISPERSION CORRECTION DFT-D3(BJ) IN THE BECKE-JOHNSON DAMPING SCHEME

 PLEASE CITE:
 (1) DFT-D3 Reference
  S. Grimme, J. Antony, S. Ehrlich, and H. Krieg, J. Chem. Phys. 132 (2010), 154104
 (2) BJ-Damping Reference
  S. Grimme, S. Ehrlich, and L. Goerigk, J. Comput. Chem. 32 (2011), 1456-1465
 (3) General DFT-D Review
  S. Grimme, A. Hansen, J. G. Brandenburg, and C. Bannwarth,
  Chem. Rev. 116 (2016), 5105-5154

 INFORMATION **** BIPOSIZE **** COULOMB BIPOLAR BUFFER SET TO    30000000
 INFORMATION **** EXCHSIZE **** EXCHANGE BIPOLAR BUFFER SIZE SET TO    30000000
 INFORMATION **** TOLINTEG **** COULOMB AND EXCHANGE SERIES TOLERANCES MODIFIED
 INFORMATION **** MAXCYCLE **** MAX NUMBER OF SCF CYCLES SET TO          50
 *******************************************************************************
 N. OF ATOMS PER CELL        62  COULOMB OVERLAP TOL         (T1) 10**  -12
 NUMBER OF SHELLS           436  COULOMB PENETRATION TOL     (T2) 10**  -12
 NUMBER OF AO              1120  EXCHANGE OVERLAP TOL        (T3) 10**   20
 N. OF ELECTRONS PER CELL   552  EXCHANGE PSEUDO OVP (F(G))  (T4) 10**   20
 CORE ELECTRONS PER CELL    244  EXCHANGE PSEUDO OVP (P(G))  (T5) 10**   20
 N. OF SYMMETRY OPERATORS     4  POLE ORDER IN MONO ZONE                  4
 *******************************************************************************
 TYPE OF CALCULATION :  RESTRICTED CLOSED SHELL
 KOHN-SHAM HAMILTONIAN

 (EXCHANGE)[CORRELATION] FUNCTIONAL:(PERDEW-BURKE-ERNZERHOF)[PERDEW-BURKE-ERNZERHOF]


 CAPPA:IS1  3;IS2  3;IS3  3; K PTS MONK NET   6; SYMMOPS:K SPACE   8;G SPACE   4

 *******************************************************************************
 MAX NUMBER OF SCF CYCLES      50  CONVERGENCE ON DELTAP        10**-16
 WEIGHT OF F(I) IN F(I+1)      30% CONVERGENCE ON ENERGY        10**- 7
 SHRINK. FACT.(MONKH.)    3  3  3  NUMBER OF K POINTS IN THE IBZ      6
 SHRINKING FACTOR(GILAT NET)    3  NUMBER OF K POINTS(GILAT NET)      6
 *******************************************************************************
 *** K POINTS COORDINATES (OBLIQUE COORDINATES IN UNITS OF IS =  3)
   1-R(  0  0  0)   2-C(  1  0  0)   3-C(  1  1  0)   4-C(  2  1  0)
   5-C(  2  1  1)   6-C(  2  2  1)

 DIRECT LATTICE VECTORS COMPON. (A.U.)     RECIP. LATTICE VECTORS COMPON. (A.U.) 
        X            Y            Z              X            Y            Z
   -9.5979190    9.5979190   12.5610096      0.0000000    0.3273202    0.2501067
    9.5979190   -9.5979190   12.5610096      0.3273202    0.0000000    0.2501067
    9.5979190    9.5979190  -12.5610096      0.3273202    0.3273202    0.0000000

 DISK SPACE FOR EIGENVECTORS (FTN 10)    13798400 REALS

 SYMMETRY ADAPTION OF THE BLOCH FUNCTIONS ENABLED
 TTTTTTTTTTTTTTTTTTTTTTTTTTTTTT gordsh1     TELAPSE        0.90 TCPU        0.04

 MATRIX SIZE: P(G) 2119012, F(G) 1060450, P(G) IRR  267867, F(G) IRR  267867
 MAX G-VECTOR INDEX FOR 1- AND 2-ELECTRON INTEGRALS  63

 TTTTTTTTTTTTTTTTTTTTTTTTTTTTTT INPUT       TELAPSE        1.67 TCPU        0.81

 NEIGHBORS OF THE NON-EQUIVALENT ATOMS

 N = NUMBER OF NEIGHBORS AT DISTANCE R
    ATOM  N     R/ANG      R/AU   NEIGHBORS (ATOM LABELS AND CELL INDICES)
   1 CL   1     1.0950     2.0692   25 C    0 0 1
   1 CL   1     2.1707     4.1021   38 C    0 0 1
   1 CL   1     2.1834     4.1260   17 C    0 0 1
   1 CL   1     2.5186     4.7595    9 CL   0 0 1
   1 CL   1     2.5548     4.8279   54 N    0-1 0
   1 CL   1     2.7928     5.2776   21 C    0 0 1

   5 H    1     1.0945     2.0684   33 C    0 0 0
   5 H    1     2.0667     3.9055   57 N    0 0 0
   5 H    1     2.1759     4.1119   17 C    0 0 0
   5 H    1     2.5126     4.7480   46 N    0 0 0
   5 H    1     2.5429     4.8053   42 N    0 0 0
   5 H    1     2.6801     5.0646   21 C    0 0 0

   9 CL   1     1.0933     2.0660   38 C    0 0 0
   9 CL   1     2.1620     4.0855   29 C    0 0 0
   9 CL   1     2.1723     4.1051   25 C    0 0 0
   9 CL   1     2.1857     4.1305   10 CL   0-1-1
   9 CL   1     2.5186     4.7595    1 CL   0 0-1
   9 CL   1     2.5285     4.7782   13 CL   0 0 0

  13 CL   1     1.0959     2.0709   29 C    0 0 0
  13 CL   1     2.0715     3.9145   57 N    0 0 0
  13 CL   1     2.1965     4.1508   38 C    0 0 0
  13 CL   1     2.5285     4.7782    9 CL   0 0 0
  13 CL   1     2.5654     4.8479   58 N    0 0 0
  13 CL   1     2.9124     5.5037   45 N    0 0 0

  17 C    1     1.4070     2.6588   25 C    0 0 0
  17 C    1     1.4077     2.6602   33 C    0 0 0
  17 C    1     1.4594     2.7579   21 C    0 0 0
  17 C    1     2.1759     4.1119    5 H    0 0 0
  17 C    1     2.1834     4.1260    1 CL   0 0-1
  17 C    1     2.4067     4.5479   38 C    0 0 0

  21 C    1     1.3492     2.5496   49 N    0 0-1
  21 C    1     1.3553     2.5611   41 N   -1 0-1
  21 C    1     1.4594     2.7579   17 C    0 0 0
  21 C    1     2.2025     4.1620   53 N   -1 0-1
  21 C    1     2.2049     4.1667   45 N   -1 0-1
  21 C    1     2.4633     4.6549   33 C    0 0 0

  25 C    1     1.0950     2.0692    1 CL   0 0-1
  25 C    1     1.3970     2.6400   38 C    0 0 0
  25 C    1     1.4070     2.6588   17 C    0 0 0
  25 C    1     2.1723     4.1051    9 CL   0 0 0
  25 C    1     2.4118     4.5577   33 C    0 0 0
  25 C    1     2.4219     4.5767   29 C    0 0 0

  29 C    1     1.0959     2.0709   13 CL   0 0 0
  29 C    1     1.3493     2.5497   57 N    0 0 0
  29 C    1     1.4046     2.6543   38 C    0 0 0
  29 C    1     2.1620     4.0855    9 CL   0 0 0
  29 C    1     2.3056     4.3570   33 C    0 0 0
  29 C    1     2.4219     4.5767   25 C    0 0 0

  33 C    1     1.0945     2.0684    5 H    0 0 0
  33 C    1     1.3387     2.5298   57 N    0 0 0
  33 C    1     1.4077     2.6602   17 C    0 0 0
  33 C    1     2.3056     4.3570   29 C    0 0 0
  33 C    1     2.4118     4.5577   25 C    0 0 0
  33 C    1     2.4633     4.6549   21 C    0 0 0

  37 C    1     1.0933     2.0660   10 CL   0 0 0
  37 C    1     1.3970     2.6400   26 C    0 0 0
  37 C    1     1.4046     2.6543   30 C    0 0 0
  37 C    1     2.1707     4.1021    2 CL   1 1 1
  37 C    1     2.1965     4.1508   14 CL   0 0 0
  37 C    1     2.4067     4.5479   18 C    0 0 0

  41 N    1     1.3553     2.5611   21 C    1 0 1
  41 N    1     1.3781     2.6042   45 N    0 0 0
  41 N    1     1.9919     3.7642   61 ZN   1 1 0
  41 N    1     2.1855     4.1299   53 N    0 0 0
  41 N    1     2.1874     4.1336   49 N    1 0 0
  41 N    1     2.4882     4.7020   17 C    1 0 1

  45 N    1     1.3160     2.4870   53 N    0 0 0
  45 N    1     1.3781     2.6042   41 N    0 0 0
  45 N    1     2.1869     4.1326   49 N    1 0 0
  45 N    1     2.2049     4.1667   21 C    1 0 1
  45 N    1     2.5126     4.7480    6 H    0 0 0
  45 N    1     2.9124     5.5037   13 CL   0 0 0

  49 N    1     1.3492     2.5496   21 C    0 0 1
  49 N    1     1.3792     2.6063   53 N   -1 0 0
  49 N    1     1.9667     3.7164   62 ZN  -1-1 0
  49 N    1     2.1869     4.1326   45 N   -1 0 0
  49 N    1     2.1874     4.1336   41 N   -1 0 0
  49 N    1     2.5229     4.7676   17 C    0 0 1

  53 N    1     1.3160     2.4870   45 N    0 0 0
  53 N    1     1.3792     2.6063   49 N    1 0 0
  53 N    1     2.1855     4.1299   41 N    0 0 0
  53 N    1     2.2025     4.1620   21 C    1 0 1
  53 N    1     2.5548     4.8279    2 CL   1 0 0
  53 N    1     2.8762     5.4352   62 ZN   0-1 0

  57 N    1     1.3387     2.5298   33 C    0 0 0
  57 N    1     1.3493     2.5497   29 C    0 0 0
  57 N    1     2.0667     3.9055    5 H    0 0 0
  57 N    1     2.0715     3.9145   13 CL   0 0 0
  57 N    1     2.4105     4.5552   38 C    0 0 0
  57 N    1     2.4226     4.5781   17 C    0 0 0

  61 ZN   4     1.9919     3.7642   41 N   -1-1 0   42 N    0-1 1   43 N    0-1 0
                                    44 N    0 0 1
  61 ZN   4     2.7756     5.2452    5 H    0-1 1    6 H   -1-1 0    7 H    0 0 1
                                     8 H    0-1 0
  61 ZN   4     2.9319     5.5406   45 N   -1-1 0   46 N    0-1 1   47 N    0-1 0
                                    48 N    0 0 1
  61 ZN   4     3.0692     5.7999   21 C    0-1 1   22 C   -1-1 0   23 C    0 0 1
                                    24 C    0-1 0
  61 ZN   4     3.2996     6.2354   33 C    0-1 1   34 C   -1-1 0   35 C    0 0 1
                                    36 C    0-1 0
  61 ZN   4     3.5259     6.6629   17 C    0-1 1   18 C   -1-1 0   19 C    0 0 1
                                    20 C    0-1 0

  62 ZN   4     1.9667     3.7164   49 N    1 1 0   50 N    1 1 0   51 N    0 0 0
                                    52 N    0 0 0
  62 ZN   4     2.8762     5.4352   53 N    0 1 0   54 N    1 0 0   55 N    0 0-1
                                    56 N    1 1 1
  62 ZN   4     3.0639     5.7900   21 C    1 1 1   22 C    0 0-1   23 C    0 1 0
                                    24 C    1 0 0
  62 ZN   4     3.0753     5.8115    1 CL   1 1 0    2 CL   1 1 0    3 CL   0 0 0
                                     4 CL   0 0 0
  62 ZN   4     3.6307     6.8610   25 C    1 1 1   26 C    0 0-1   27 C    0 1 0
                                    28 C    1 0 0
  62 ZN   4     3.6327     6.8649   17 C    1 1 1   18 C    0 0-1   19 C    0 1 0
                                    20 C    1 0 0


 SYMMETRY ALLOWED ELASTIC DISTORTION 1
  0.5773503  0.0000000  0.0000000
  0.0000000  0.5773503  0.0000000
  0.0000000  0.0000000  0.5773503

 SYMMETRY ALLOWED ELASTIC DISTORTION 2
  0.4082483  0.0000000  0.0000000
  0.0000000  0.4082483  0.0000000
  0.0000000  0.0000000 -0.8164966

 SYMMETRY ALLOWED INTERNAL DEGREE(S) OF FREEDOM:  45
 TTTTTTTTTTTTTTTTTTTTTTTTTTTTTT SYMM        TELAPSE        1.71 TCPU        0.84
 TTTTTTTTTTTTTTTTTTTTTTTTTTTTTT INT_SCREEN  TELAPSE        1.71 TCPU        0.85

 *******************************************************************************
 *                             OPTIMIZATION STARTS                             *
 *******************************************************************************
 RECLASIFICATION OF INDICES FOR INTEGRAL CALC ACCORDING TO DIFFERENT CRITERIA:
           FIXDELTE                  FIXDELTX              FIXDELTN
          0.10000000               0.80000000                 47
 DEFAULT MAX NUM OF POINTS  100
 *******************************************************************************

 *******************************************************************************
 COORDINATE AND CELL OPTIMIZATION - POINT    1
 INFORMATION **** EXCBUF **** EXCH. BIPO BUFFER: WORDS USED =           0

 DFT PARAMETERS

     ATOM       ELECTRONS   NET CHARGE   R(ANGSTROM)
   1  17  CL     17.0000      0.0000     0.99000000
   5   1  H       1.0000      0.0000     1.11000000
  17   6  C       6.0000      0.0000     0.77000000
  41   7  N       7.0000      0.0000     0.74000000
  61  30  ZN     30.0000      0.0000     1.37000000

 SIZE OF GRID=     457930
 TTTTTTTTTTTTTTTTTTTTTTTTTTTTTT MAKE_GRID2  TELAPSE        3.15 TCPU        2.28
 BECKE WEIGHT FUNCTION
 RADSAFE =     2.00
 TOLERANCES - DENSITY:10**- 6; POTENTIAL:10**- 9; GRID WGT:10**-14

 RADIAL INTEGRATION  - INTERVALS (POINTS,UPPER LIMIT):            1( 75,  4.0*R)

 ANGULAR INTEGRATION - INTERVALS (ACCURACY LEVEL [N. POINTS] UPPER LIMIT):
  1(  4[  86]   0.2)  2(  8[ 194]   0.5)  3( 12[ 350]   0.9)  4( 16[ 974]   3.5)
  5( 12[ 350]9999.0)
 TTTTTTTTTTTTTTTTTTTTTTTTTTTTTT INT_CALC    TELAPSE        3.21 TCPU        2.33

 *******************************************************************************
 C:\Users\wilso\AppData\Local\Temp\tmp_p\newconn.mol                             
 CRYSTAL - SCF - TYPE OF CALCULATION :  RESTRICTED CLOSED SHELL
 *******************************************************************************

 CAPPA:IS1  3;IS2  3;IS3  3; K PTS MONK NET   6; SYMMOPS:K SPACE   8;G SPACE   4

 TTTTTTTTTTTTTTTTTTTTTTTTTTTTTT SDIK        TELAPSE        3.44 TCPU        2.56

 AAAAAAAAAAAAAAAAAAAAAAAAAAAAAAAAAAAAAAAAAAAAAAAAAAAAAAAAAAAAAAAAAAAAAAAAAAAAAAA
         ATOMIC WAVEFUNCTION(S)


 NUCLEAR CHARGE 17.0  SYMMETRY SPECIES            S    P
 N. ELECTRONS   17.0  NUMBER OF PRIMITIVE GTOS   10    7
                      NUMBER OF CONTRACTED GTOS   4    3
                      NUMBER OF CLOSED SHELLS     3    1
                      OPEN SHELL OCCUPATION       0    5

  ZNUC SCFIT  TOTAL HF ENERGY   KINETIC ENERGY   VIRIAL THEOREM ACCURACY
  17.0   9   -4.593005957E+02  4.593991532E+02 -1.999785464E+00  2.3E-06

 NUCLEAR CHARGE  1.0  SYMMETRY SPECIES            S
 N. ELECTRONS    1.0  NUMBER OF PRIMITIVE GTOS    4
                      NUMBER OF CONTRACTED GTOS   2
                      NUMBER OF CLOSED SHELLS     0
                      OPEN SHELL OCCUPATION       1

  ZNUC SCFIT  TOTAL HF ENERGY   KINETIC ENERGY   VIRIAL THEOREM ACCURACY
   1.0   1   -4.946643675E-01  4.917913167E-01 -2.005842012E+00  9.4E-17

 NUCLEAR CHARGE  6.0  SYMMETRY SPECIES            S    P
 N. ELECTRONS    6.0  NUMBER OF PRIMITIVE GTOS    7    4
                      NUMBER OF CONTRACTED GTOS   3    2
                      NUMBER OF CLOSED SHELLS     2    0
                      OPEN SHELL OCCUPATION       0    2

  ZNUC SCFIT  TOTAL HF ENERGY   KINETIC ENERGY   VIRIAL THEOREM ACCURACY
   6.0   6   -3.750912652E+01  3.905246519E+01 -1.960480378E+00  3.7E-06

 NUCLEAR CHARGE  7.0  SYMMETRY SPECIES            S    P
 N. ELECTRONS    7.0  NUMBER OF PRIMITIVE GTOS    7    4
                      NUMBER OF CONTRACTED GTOS   3    2
                      NUMBER OF CLOSED SHELLS     2    0
                      OPEN SHELL OCCUPATION       0    3

  ZNUC SCFIT  TOTAL HF ENERGY   KINETIC ENERGY   VIRIAL THEOREM ACCURACY
   7.0   9   -5.432196661E+01  5.425066284E+01 -2.001314339E+00  1.2E-06

 NUCLEAR CHARGE 30.0  SYMMETRY SPECIES            S    P    D
 N. ELECTRONS   30.0  NUMBER OF PRIMITIVE GTOS   14    9    5
                      NUMBER OF CONTRACTED GTOS   5    3    2
                      NUMBER OF CLOSED SHELLS     4    2    1
                      OPEN SHELL OCCUPATION       0    0    0

  ZNUC SCFIT  TOTAL HF ENERGY   KINETIC ENERGY   VIRIAL THEOREM ACCURACY
  30.0  10   -1.777404290E+03  1.777325716E+03 -2.000044209E+00  2.5E-06

 AAAAAAAAAAAAAAAAAAAAAAAAAAAAAAAAAAAAAAAAAAAAAAAAAAAAAAAAAAAAAAAAAAAAAAAAAAAAAAA

 CHARGE NORMALIZATION FACTOR   1.00000000
 TOTAL ATOMIC CHARGES:
  17.0000000  17.0000000  17.0000000  17.0000000   1.0000000   1.0000000
   1.0000000   1.0000000  17.0000000  17.0000000  17.0000000  17.0000000
  17.0000000  17.0000000  17.0000000  17.0000000   6.0000000   6.0000000
   6.0000000   6.0000000   6.0000000   6.0000000   6.0000000   6.0000000
   6.0000000   6.0000000   6.0000000   6.0000000   6.0000000   6.0000000
   6.0000000   6.0000000   6.0000000   6.0000000   6.0000000   6.0000000
   6.0000000   6.0000000   6.0000000   6.0000000   7.0000000   7.0000000
   7.0000000   7.0000000   7.0000000   7.0000000   7.0000000   7.0000000
   7.0000000   7.0000000   7.0000000   7.0000000   7.0000000   7.0000000
   7.0000000   7.0000000   7.0000000   7.0000000   7.0000000   7.0000000
  30.0000000  30.0000000
 TTTTTTTTTTTTTTTTTTTTTTTTTTTTTT MOQGAD      TELAPSE        5.44 TCPU        4.52
 TTTTTTTTTTTTTTTTTTTTTTTTTTTTTT SHELLXN     TELAPSE       95.62 TCPU       87.89
 TTTTTTTTTTTTTTTTTTTTTTTTTTTTTT MONMO3      TELAPSE      102.65 TCPU       94.89
 NUMERICALLY INTEGRATED DENSITY    551.9999691791
 TTTTTTTTTTTTTTTTTTTTTTTTTTTTTT NUMDFT      TELAPSE      105.31 TCPU       97.54
 CYC   0 ETOT(AU) -1.110391097049E+04 DETOT -1.11E+04 tst  0.00E+00 PX  1.00E+00
 TTTTTTTTTTTTTTTTTTTTTTTTTTTTTT DIIS        TELAPSE      105.41 TCPU       97.64
 TTTTTTTTTTTTTTTTTTTTTTTTTTTTTT FDIK        TELAPSE      155.18 TCPU      147.06
 INSULATING STATE
 TOP OF VALENCE BANDS -    BAND    276; K    6; EIG -1.2963237E-01 AU
 TOP OF VALENCE BANDS -    BAND    276; K    1; EIG -1.3079879E-01 AU
 BOTTOM OF VIRTUAL BANDS - BAND    277; K    1; EIG -9.2794136E-02 AU
 INDIRECT ENERGY BAND GAP:   1.0024 eV
 TTTTTTTTTTTTTTTTTTTTTTTTTTTTTT PDIG        TELAPSE      156.08 TCPU      147.97
 CHARGE NORMALIZATION FACTOR   1.00000000
 TOTAL ATOMIC CHARGES:
  16.7891061  16.7891061  16.7891061  16.7891061   1.3795207   1.3795207
   1.3795207   1.3795207  16.8875753  16.8875753  16.8875753  16.8875753
  16.6176558  16.6176558  16.6176558  16.6176558   6.1202926   6.1202926
   6.1202926   6.1202926   5.5260386   5.5260386   5.5260386   5.5260386
   6.1590839   6.1590839   6.1590839   6.1590839   6.0079016   6.0079016
   6.0079016   6.0079016   5.9148786   5.9148786   5.9148786   5.9148786
   6.0136310   6.0136310   6.0136310   6.0136310   7.3805258   7.3805258
   7.3805258   7.3805258   7.2084043   7.2084043   7.2084043   7.2084043
   7.4033858   7.4033858   7.4033858   7.4033858   7.1401511   7.1401511
   7.1401511   7.1401511   7.5961852   7.5961852   7.5961852   7.5961852
  27.7133326  27.7093217
 TTTTTTTTTTTTTTTTTTTTTTTTTTTTTT MOQGAD      TELAPSE      156.14 TCPU      148.02
 TTTTTTTTTTTTTTTTTTTTTTTTTTTTTT SHELLXN     TELAPSE      254.89 TCPU      245.38
 TTTTTTTTTTTTTTTTTTTTTTTTTTTTTT MONMO3      TELAPSE      266.54 TCPU      257.00
 NUMERICALLY INTEGRATED DENSITY    552.0000091736
 TTTTTTTTTTTTTTTTTTTTTTTTTTTTTT NUMDFT      TELAPSE      274.18 TCPU      264.62
 CYC   1 ETOT(AU) -1.107425014901E+04 DETOT  2.97E+01 tst  0.00E+00 PX  1.00E+00
 TTTTTTTTTTTTTTTTTTTTTTTTTTTTTT DIIS        TELAPSE      274.41 TCPU      264.85
 DIIS TEST: 0.17150E+02 AT SCF   CYCLE   1 - MIX   30 %
 TTTTTTTTTTTTTTTTTTTTTTTTTTTTTT FDIK        TELAPSE      289.80 TCPU      278.00
 POSSIBLY CONDUCTING STATE - EFERMI(AU) -6.2870432E-02 (RES. CHARGE  3.36E-11;IT. 10)
 TTTTTTTTTTTTTTTTTTTTTTTTTTTTTT PDIG        TELAPSE      290.70 TCPU      278.89
 CHARGE NORMALIZATION FACTOR   1.00000000
 TOTAL ATOMIC CHARGES:
  17.6438313  17.6438313  17.6438313  17.6438313   1.5014358   1.5014358
   1.5014358   1.5014358  17.3838999  17.3838999  17.3838999  17.3838999
  16.6842574  16.6842574  16.6842574  16.6842574   6.2058027   6.2058027
   6.2058027   6.2058027   6.6862932   6.6862932   6.6862932   6.6862932
   5.8523239   5.8523239   5.8523239   5.8523239   5.6454294   5.6454294
   5.6454294   5.6454294   6.2569638   6.2569638   6.2569638   6.2569638
   5.4715257   5.4715257   5.4715257   5.4715257   7.1862014   7.1862014
   7.1862014   7.1862014   6.8255525   6.8255525   6.8255525   6.8255525
   7.5955790   7.5955790   7.5955790   7.5955790   7.0677490   7.0677490
   7.0677490   7.0677490   4.7003922   4.7003922   4.7003922   4.7003922
  30.0275118  31.1435394
 TTTTTTTTTTTTTTTTTTTTTTTTTTTTTT MOQGAD      TELAPSE      290.76 TCPU      278.95
 TTTTTTTTTTTTTTTTTTTTTTTTTTTTTT SHELLXN     TELAPSE      388.46 TCPU      376.20
 TTTTTTTTTTTTTTTTTTTTTTTTTTTTTT MONMO3      TELAPSE      398.23 TCPU      385.96
 NUMERICALLY INTEGRATED DENSITY    552.0000197938
 TTTTTTTTTTTTTTTTTTTTTTTTTTTTTT NUMDFT      TELAPSE      405.82 TCPU      393.52
 CYC   2 ETOT(AU) -1.106077162049E+04 DETOT  1.35E+01 tst  3.43E-01 PX  3.09E+00
 TTTTTTTTTTTTTTTTTTTTTTTTTTTTTT DIIS        TELAPSE      406.07 TCPU      393.76
 DIIS TEST: 0.10145E+03 AT SCF   CYCLE   2 - DIIS ACTIVE - HISTORY:     2 CYCLES
 TTTTTTTTTTTTTTTTTTTTTTTTTTTTTT FDIK        TELAPSE      421.89 TCPU      409.42
 INSULATING STATE
 TOP OF VALENCE BANDS -    BAND    276; K    6; EIG -1.3160629E-01 AU
 TOP OF VALENCE BANDS -    BAND    276; K    1; EIG -1.3265015E-01 AU
 BOTTOM OF VIRTUAL BANDS - BAND    277; K    1; EIG -8.9136449E-02 AU
 INDIRECT ENERGY BAND GAP:   1.1557 eV
 TTTTTTTTTTTTTTTTTTTTTTTTTTTTTT PDIG        TELAPSE      422.81 TCPU      410.34
 CHARGE NORMALIZATION FACTOR   1.00000000
 TOTAL ATOMIC CHARGES:
  16.9193706  16.9193706  16.9193706  16.9193706   1.3882279   1.3882279
   1.3882279   1.3882279  17.1984574  17.1984574  17.1984574  17.1984574
  17.4146531  17.4146531  17.4146531  17.4146531   5.8122993   5.8122993
   5.8122993   5.8122993   6.1413294   6.1413294   6.1413294   6.1413294
   5.4646927   5.4646927   5.4646927   5.4646927   6.0283120   6.0283120
   6.0283120   6.0283120   6.2178095   6.2178095   6.2178095   6.2178095
   5.4364237   5.4364237   5.4364237   5.4364237   6.8093191   6.8093191
   6.8093191   6.8093191   7.1830106   7.1830106   7.1830106   7.1830106
   6.4159245   6.4159245   6.4159245   6.4159245   6.8882467   6.8882467
   6.8882467   6.8882467   7.7444536   7.7444536   7.7444536   7.7444536
  29.9538308  29.7960494
 TTTTTTTTTTTTTTTTTTTTTTTTTTTTTT MOQGAD      TELAPSE      422.87 TCPU      410.39
 TTTTTTTTTTTTTTTTTTTTTTTTTTTTTT SHELLXN     TELAPSE      522.67 TCPU      507.61
 TTTTTTTTTTTTTTTTTTTTTTTTTTTTTT MONMO3      TELAPSE      532.41 TCPU      517.32
 NUMERICALLY INTEGRATED DENSITY    552.0000081653
 TTTTTTTTTTTTTTTTTTTTTTTTTTTTTT NUMDFT      TELAPSE      539.96 TCPU      524.84
 CYC   3 ETOT(AU) -1.107251934993E+04 DETOT -1.17E+01 tst  3.52E-01 PX  2.46E+00
 TTTTTTTTTTTTTTTTTTTTTTTTTTTTTT DIIS        TELAPSE      540.19 TCPU      525.07
 DIIS TEST: 0.26592E+02 AT SCF   CYCLE   3 - DIIS ACTIVE - HISTORY:     3 CYCLES
 TTTTTTTTTTTTTTTTTTTTTTTTTTTTTT FDIK        TELAPSE      554.87 TCPU      539.51
 INSULATING STATE
 TOP OF VALENCE BANDS -    BAND    276; K    4; EIG -1.4059824E-01 AU
 TOP OF VALENCE BANDS -    BAND    276; K    1; EIG -1.4252484E-01 AU
 BOTTOM OF VIRTUAL BANDS - BAND    277; K    1; EIG -8.2515179E-02 AU
 INDIRECT ENERGY BAND GAP:   1.5805 eV
 TTTTTTTTTTTTTTTTTTTTTTTTTTTTTT PDIG        TELAPSE      555.78 TCPU      540.41
 CHARGE NORMALIZATION FACTOR   1.00000000
 TOTAL ATOMIC CHARGES:
  17.2374063  17.2374063  17.2374063  17.2374063   1.3663192   1.3663192
   1.3663192   1.3663192  17.3625845  17.3625845  17.3625845  17.3625845
  16.6974604  16.6974604  16.6974604  16.6974604   6.2230313   6.2230313
   6.2230313   6.2230313   5.7850728   5.7850728   5.7850728   5.7850728
   5.9213214   5.9213214   5.9213214   5.9213214   5.7082594   5.7082594
   5.7082594   5.7082594   5.8609199   5.8609199   5.8609199   5.8609199
   5.8338314   5.8338314   5.8338314   5.8338314   7.0190676   7.0190676
   7.0190676   7.0190676   6.9343953   6.9343953   6.9343953   6.9343953
   7.3257158   7.3257158   7.3257158   7.3257158   7.1296474   7.1296474
   7.1296474   7.1296474   7.1372737   7.1372737   7.1372737   7.1372737
  28.8947325  28.9360420
 TTTTTTTTTTTTTTTTTTTTTTTTTTTTTT MOQGAD      TELAPSE      555.84 TCPU      540.47
 TTTTTTTTTTTTTTTTTTTTTTTTTTTTTT SHELLXN     TELAPSE      653.35 TCPU      637.59
 TTTTTTTTTTTTTTTTTTTTTTTTTTTTTT MONMO3      TELAPSE      663.36 TCPU      647.58
 NUMERICALLY INTEGRATED DENSITY    552.0000207001
 TTTTTTTTTTTTTTTTTTTTTTTTTTTTTT NUMDFT      TELAPSE      670.88 TCPU      655.08
 CYC   4 ETOT(AU) -1.107656598002E+04 DETOT -4.05E+00 tst  3.54E-02 PX  6.09E-01
 TTTTTTTTTTTTTTTTTTTTTTTTTTTTTT DIIS        TELAPSE      671.09 TCPU      655.29
 DIIS TEST: 0.29924E+01 AT SCF   CYCLE   4 - DIIS ACTIVE - HISTORY:     4 CYCLES
 TTTTTTTTTTTTTTTTTTTTTTTTTTTTTT FDIK        TELAPSE      690.38 TCPU      674.45
 INSULATING STATE
 TOP OF VALENCE BANDS -    BAND    276; K    5; EIG -1.1813789E-01 AU
 TOP OF VALENCE BANDS -    BAND    276; K    1; EIG -1.1883740E-01 AU
 BOTTOM OF VIRTUAL BANDS - BAND    277; K    1; EIG -9.3313734E-02 AU
 INDIRECT ENERGY BAND GAP:   0.6755 eV
 TTTTTTTTTTTTTTTTTTTTTTTTTTTTTT PDIG        TELAPSE      691.29 TCPU      675.36
 CHARGE NORMALIZATION FACTOR   1.00000000
 TOTAL ATOMIC CHARGES:
  17.0376322  17.0376322  17.0376322  17.0376322   1.3795446   1.3795446
   1.3795446   1.3795446  16.9185044  16.9185044  16.9185044  16.9185044
  16.9093984  16.9093984  16.9093984  16.9093984   6.1165116   6.1165116
   6.1165116   6.1165116   5.8834099   5.8834099   5.8834099   5.8834099
   5.8560041   5.8560041   5.8560041   5.8560041   5.9596565   5.9596565
   5.9596565   5.9596565   6.2723576   6.2723576   6.2723576   6.2723576
   5.6330407   5.6330407   5.6330407   5.6330407   7.4644117   7.4644117
   7.4644117   7.4644117   7.2323525   7.2323525   7.2323525   7.2323525
   7.1549787   7.1549787   7.1549787   7.1549787   6.8160898   6.8160898
   6.8160898   6.8160898   6.9609182   6.9609182   6.9609182   6.9609182
  28.7961098  28.8246465
 TTTTTTTTTTTTTTTTTTTTTTTTTTTTTT MOQGAD      TELAPSE      691.35 TCPU      675.41
 TTTTTTTTTTTTTTTTTTTTTTTTTTTTTT SHELLXN     TELAPSE      791.32 TCPU      772.75
 TTTTTTTTTTTTTTTTTTTTTTTTTTTTTT MONMO3      TELAPSE      800.34 TCPU      781.75
 NUMERICALLY INTEGRATED DENSITY    552.0000112516
 TTTTTTTTTTTTTTTTTTTTTTTTTTTTTT NUMDFT      TELAPSE      807.89 TCPU      789.27
 CYC   5 ETOT(AU) -1.107637125201E+04 DETOT  1.95E-01 tst  8.05E-03 PX  1.99E-01
 TTTTTTTTTTTTTTTTTTTTTTTTTTTTTT DIIS        TELAPSE      808.11 TCPU      789.49
 DIIS TEST: 0.41221E+01 AT SCF   CYCLE   5 - DIIS ACTIVE - HISTORY:     5 CYCLES
 TTTTTTTTTTTTTTTTTTTTTTTTTTTTTT FDIK        TELAPSE      823.78 TCPU      805.01
 INSULATING STATE
 TOP OF VALENCE BANDS -    BAND    276; K    3; EIG -1.3104391E-01 AU
 TOP OF VALENCE BANDS -    BAND    276; K    1; EIG -1.3161744E-01 AU
 BOTTOM OF VIRTUAL BANDS - BAND    277; K    1; EIG -8.3386000E-02 AU
 INDIRECT ENERGY BAND GAP:   1.2968 eV
 TTTTTTTTTTTTTTTTTTTTTTTTTTTTTT PDIG        TELAPSE      824.68 TCPU      805.90
 CHARGE NORMALIZATION FACTOR   1.00000000
 TOTAL ATOMIC CHARGES:
  17.0863374  17.0863374  17.0863374  17.0863374   1.3663363   1.3663363
   1.3663363   1.3663363  17.1998894  17.1998894  17.1998894  17.1998894
  16.8503972  16.8503972  16.8503972  16.8503972   6.0447981   6.0447981
   6.0447981   6.0447981   5.8982211   5.8982211   5.8982211   5.8982211
   5.8626418   5.8626418   5.8626418   5.8626418   5.9096675   5.9096675
   5.9096675   5.9096675   6.0327195   6.0327195   6.0327195   6.0327195
   5.7145506   5.7145506   5.7145506   5.7145506   7.0716763   7.0716763
   7.0716763   7.0716763   7.0320641   7.0320641   7.0320641   7.0320641
   7.2055405   7.2055405   7.2055405   7.2055405   7.1362366   7.1362366
   7.1362366   7.1362366   7.1353572   7.1353572   7.1353572   7.1353572
  28.8648391  28.9494262
 TTTTTTTTTTTTTTTTTTTTTTTTTTTTTT MOQGAD      TELAPSE      824.74 TCPU      805.95
 TTTTTTTTTTTTTTTTTTTTTTTTTTTTTT SHELLXN     TELAPSE      924.10 TCPU      902.91
 TTTTTTTTTTTTTTTTTTTTTTTTTTTTTT MONMO3      TELAPSE      933.70 TCPU      912.48
 NUMERICALLY INTEGRATED DENSITY    552.0000136965
 TTTTTTTTTTTTTTTTTTTTTTTTTTTTTT NUMDFT      TELAPSE      941.31 TCPU      920.06
 CYC   6 ETOT(AU) -1.107696527295E+04 DETOT -5.94E-01 tst  1.98E-03 PX  1.33E-01
 TTTTTTTTTTTTTTTTTTTTTTTTTTTTTT DIIS        TELAPSE      941.56 TCPU      920.31
 DIIS TEST: 0.24075E+00 AT SCF   CYCLE   6 - DIIS ACTIVE - HISTORY:     6 CYCLES
 TTTTTTTTTTTTTTTTTTTTTTTTTTTTTT FDIK        TELAPSE      956.51 TCPU      935.16
 INSULATING STATE
 TOP OF VALENCE BANDS -    BAND    276; K    3; EIG -1.3151589E-01 AU
 TOP OF VALENCE BANDS -    BAND    276; K    1; EIG -1.3267896E-01 AU
 BOTTOM OF VIRTUAL BANDS - BAND    277; K    1; EIG -7.7183374E-02 AU
 INDIRECT ENERGY BAND GAP:   1.4785 eV
 TTTTTTTTTTTTTTTTTTTTTTTTTTTTTT PDIG        TELAPSE      957.42 TCPU      936.07
 CHARGE NORMALIZATION FACTOR   1.00000000
 TOTAL ATOMIC CHARGES:
  17.0836352  17.0836352  17.0836352  17.0836352   1.3613811   1.3613811
   1.3613811   1.3613811  17.2132307  17.2132307  17.2132307  17.2132307
  16.8071604  16.8071604  16.8071604  16.8071604   6.1441860   6.1441860
   6.1441860   6.1441860   5.8864418   5.8864418   5.8864418   5.8864418
   5.9152819   5.9152819   5.9152819   5.9152819   5.8249937   5.8249937
   5.8249937   5.8249937   6.0244959   6.0244959   6.0244959   6.0244959
   5.7332128   5.7332128   5.7332128   5.7332128   7.1609777   7.1609777
   7.1609777   7.1609777   7.0845028   7.0845028   7.0845028   7.0845028
   7.1433157   7.1433157   7.1433157   7.1433157   6.9972519   6.9972519
   6.9972519   6.9972519   7.1594692   7.1594692   7.1594692   7.1594692
  28.9017472  28.9401047
 TTTTTTTTTTTTTTTTTTTTTTTTTTTTTT MOQGAD      TELAPSE      957.48 TCPU      936.13
 TTTTTTTTTTTTTTTTTTTTTTTTTTTTTT SHELLXN     TELAPSE     1057.28 TCPU     1033.40
 TTTTTTTTTTTTTTTTTTTTTTTTTTTTTT MONMO3      TELAPSE     1065.75 TCPU     1041.84
 NUMERICALLY INTEGRATED DENSITY    552.0000157497
 TTTTTTTTTTTTTTTTTTTTTTTTTTTTTT NUMDFT      TELAPSE     1073.28 TCPU     1049.34
 CYC   7 ETOT(AU) -1.107698844810E+04 DETOT -2.32E-02 tst  1.90E-04 PX  4.54E-02
[...]
  61 ZN   4     2.5937     4.9014    5 H    0-1 1    6 H   -1-1 0    7 H    0 0 1
                                     8 H    0-1 0
  61 ZN   4     3.0507     5.7649   45 N   -1-1 0   46 N    0-1 1   47 N    0-1 0
                                    48 N    0 0 1
  61 ZN   4     3.2295     6.1029   33 C    0-1 1   34 C   -1-1 0   35 C    0 0 1
                                    36 C    0-1 0
  61 ZN   4     3.2673     6.1744   21 C    0-1 1   22 C   -1-1 0   23 C    0 0 1
                                    24 C    0-1 0
  61 ZN   4     3.6562     6.9093   17 C    0-1 1   18 C   -1-1 0   19 C    0 0 1
                                    20 C    0-1 0

  62 ZN   4     2.1779     4.1156   49 N    1 1 0   50 N    1 1 0   51 N    0 0 0
                                    52 N    0 0 0
  62 ZN   4     3.0229     5.7125   53 N    0 1 0   54 N    1 0 0   55 N    0 0-1
                                    56 N    1 1 1
  62 ZN   4     3.1113     5.8795    1 CL   1 1 0    2 CL   1 1 0    3 CL   0 0 0
                                     4 CL   0 0 0
  62 ZN   4     3.3143     6.2632   21 C    1 1 1   22 C    0 0-1   23 C    0 1 0
                                    24 C    1 0 0
  62 ZN   4     3.9320     7.4303   17 C    1 1 1   18 C    0 0-1   19 C    0 1 0
                                    20 C    1 0 0
  62 ZN   4     3.9465     7.4579   25 C    1 1 1   26 C    0 0-1   27 C    0 1 0
                                    28 C    1 0 0


 FINAL OPTIMIZED GEOMETRY - DIMENSIONALITY OF THE SYSTEM      3
 (NON PERIODIC DIRECTION: LATTICE PARAMETER FORMALLY SET TO 500)
 *******************************************************************************
 LATTICE PARAMETERS (ANGSTROMS AND DEGREES) - BOHR = 0.5291772083 ANGSTROM
 PRIMITIVE CELL - CENTRING CODE 6/0 VOLUME=   809.273202 - DENSITY  2.297 g/cm^3
         A              B              C           ALPHA      BETA       GAMMA 
    10.18348335    10.18348335    10.18348335   111.754613 111.754613 104.995047
 *******************************************************************************
 ATOMS IN THE ASYMMETRIC UNIT   17 - ATOMS IN THE UNIT CELL:   62
     ATOM                 X/A                 Y/B                 Z/C    
 *******************************************************************************
      1 T  17 CL   -1.385741427449E-01 -3.319660752940E-01  2.626908745950E-01
      2 F  17 CL    4.053430501110E-01 -4.012650173399E-01 -2.626908745950E-01
      3 F  17 CL    3.319660752940E-01 -4.053430501110E-01  1.933919325491E-01
      4 F  17 CL    4.012650173399E-01  1.385741427449E-01 -1.933919325491E-01
      5 T   1 H    -2.604586485521E-01  4.920548109443E-02 -4.003633417075E-01
      6 F   1 H     4.495688228019E-01  1.399046931554E-01  4.003633417075E-01
      7 F   1 H    -4.920548109443E-02 -4.495688228019E-01 -3.096641296465E-01
      8 F   1 H    -1.399046931554E-01  2.604586485521E-01  3.096641296465E-01
      9 T  17 CL    1.172157624469E-01 -2.512981074721E-01 -3.926848504783E-01
     10 F  17 CL    1.413867430062E-01 -4.900993870748E-01  3.926848504783E-01
     11 F  17 CL    2.512981074721E-01 -1.413867430062E-01  3.685138699190E-01
     12 F  17 CL    4.900993870748E-01 -1.172157624469E-01 -3.685138699190E-01
     13 T  17 CL    1.755161628868E-01  4.821960371550E-03 -7.510872587798E-02
     14 F  17 CL    7.993068624953E-02  2.506248887648E-01  7.510872587798E-02
     15 F  17 CL   -4.821960371550E-03 -7.993068624953E-02  1.706942025152E-01
     16 F  17 CL   -2.506248887648E-01 -1.755161628868E-01 -1.706942025152E-01
     17 T   6 C    -2.085381789457E-01 -1.107339854793E-01  4.392992557724E-01
     18 F   6 C     4.499667587483E-01  3.521625652818E-01 -4.392992557724E-01
     19 F   6 C     1.107339854793E-01 -4.499667587483E-01 -9.780419346648E-02
     20 F   6 C    -3.521625652818E-01  2.085381789457E-01  9.780419346648E-02
     21 T   6 C    -3.267289953697E-01 -1.214161122656E-01  2.959450213636E-01
     22 F   6 C    -4.173611336292E-01  3.773259832667E-01 -2.959450213636E-01
     23 F   6 C     1.214161122656E-01  4.173611336292E-01 -2.053128831041E-01
     24 F   6 C    -3.773259832667E-01  3.267289953697E-01  2.053128831041E-01
     25 T   6 C    -1.136733924961E-01 -1.899111917530E-01  4.408690473727E-01
     26 F   6 C     3.692197608743E-01  4.454575601312E-01 -4.408690473727E-01
     27 F   6 C     1.899111917530E-01 -3.692197608743E-01  7.623779925690E-02
     28 F   6 C    -4.454575601312E-01  1.136733924961E-01 -7.623779925690E-02
     29 T   6 C     2.648010941866E-02 -3.879493882592E-02 -2.600346700050E-01
     30 F   6 C     2.212397311791E-01  2.865147794237E-01  2.600346700050E-01
     31 F   6 C     3.879493882592E-02 -2.212397311791E-01  6.527504824458E-02
     32 F   6 C    -2.865147794237E-01 -2.648010941866E-02 -6.527504824458E-02
     33 T   6 C    -1.817934844639E-01 -5.171437088952E-03 -4.061869598421E-01
     34 F   6 C     4.010155227531E-01  2.243934753782E-01  4.061869598421E-01
     35 F   6 C     5.171437088952E-03 -4.010155227531E-01 -1.766220473750E-01
     36 F   6 C    -2.243934753782E-01  1.817934844639E-01  1.766220473750E-01
     37 T   6 C     2.516985118200E-01  4.096378020435E-01  4.063734155774E-01
     38 F   6 C     3.264386466096E-03 -1.546749037574E-01 -4.063734155774E-01
     39 F   6 C    -4.096378020435E-01 -3.264386466096E-03 -1.579392902235E-01
     40 F   6 C     1.546749037574E-01 -2.516985118200E-01  1.579392902235E-01
     41 T   7 N    -3.631530104001E-01  2.248614346846E-03  3.129592156631E-01
     42 F   7 N    -3.107106013163E-01  3.238877739368E-01 -3.129592156631E-01
     43 F   7 N    -2.248614346846E-03  3.107106013163E-01 -3.654016247470E-01
     44 F   7 N    -3.238877739368E-01  3.631530104001E-01  3.654016247470E-01
     45 T   7 N    -4.877254154635E-01 -4.981151567511E-02  1.596463526653E-01
     46 F   7 N    -2.094578683404E-01  3.526282318712E-01 -1.596463526653E-01
     47 F   7 N     4.981151567511E-02  2.094578683404E-01 -4.379138997884E-01
     48 F   7 N    -3.526282318712E-01  4.877254154635E-01  4.379138997884E-01
     49 T   7 N    -4.227685032940E-01 -2.452015722465E-01  1.364427457258E-01
     50 F   7 N    -3.816443179723E-01  4.407887509802E-01 -1.364427457258E-01
     51 F   7 N     2.452015722465E-01  3.816443179723E-01 -1.775669310475E-01
     52 F   7 N    -4.407887509802E-01  4.227685032940E-01  1.775669310475E-01
     53 T   7 N     4.777088506557E-01 -1.957198462420E-01  5.503560112910E-02
     54 F   7 N    -2.507554473711E-01  4.226732495266E-01 -5.503560112910E-02
     55 F   7 N     1.957198462420E-01  2.507554473711E-01 -3.265713031023E-01
     56 F   7 N    -4.226732495266E-01 -4.777088506557E-01  3.265713031023E-01
     57 T   7 N    -6.571285290631E-02  3.291894024878E-02 -2.612541773003E-01
     58 F   7 N     2.941731175490E-01  1.955413243940E-01  2.612541773003E-01
     59 F   7 N    -3.291894024878E-02 -2.941731175490E-01 -9.863179315509E-02
     60 F   7 N    -1.955413243940E-01  6.571285290631E-02  9.863179315509E-02
     61 T  30 ZN   -2.500000000000E-01  2.500000000000E-01  5.000000000000E-01
     62 T  30 ZN   -5.000000000000E-01 -5.000000000000E-01 -3.631544682727E-19

 TRANSFORMATION MATRIX PRIMITIVE-CRYSTALLOGRAPHIC CELL
  0.0000  1.0000  1.0000  1.0000  0.0000  1.0000  1.0000  1.0000  0.0000

 *******************************************************************************
 CRYSTALLOGRAPHIC CELL (VOLUME=       1618.54640391)
         A              B              C           ALPHA      BETA       GAMMA 
    11.42519463    11.42519463    12.39932208    90.000000  90.000000  90.000000

 COORDINATES IN THE CRYSTALLOGRAPHIC CELL
     ATOM                 X/A                 Y/B                 Z/C    
 *******************************************************************************
      1 T  17 CL    3.464947102294E-02  2.280414035720E-01 -3.666155463169E-01
      2 F  17 CL   -3.464947102294E-02 -2.280414035720E-01 -3.666155463169E-01
      3 F  17 CL    2.280414035720E-01 -3.464947102294E-02  3.666155463169E-01
      4 F  17 CL   -2.280414035720E-01  3.464947102294E-02  3.666155463169E-01
      5 T   1 H    -4.534960603047E-02 -3.550137356770E-01  9.455508712490E-02
      6 F   1 H     4.534960603047E-02  3.550137356770E-01  9.455508712490E-02
      7 F   1 H    -3.550137356770E-01  4.534960603047E-02 -9.455508712490E-02
      8 F   1 H     3.550137356770E-01 -4.534960603047E-02 -9.455508712490E-02
      9 T  17 CL   -3.805993601986E-01 -1.208549027966E-02  1.293012527265E-01
     10 F  17 CL    3.805993601986E-01  1.208549027966E-02  1.293012527265E-01
     11 F  17 CL   -1.208549027966E-02  3.805993601986E-01 -1.293012527265E-01
     12 F  17 CL    1.208549027966E-02 -3.805993601986E-01 -1.293012527265E-01
     13 T  17 CL   -1.229014641966E-01  4.779273831862E-02  1.277234245682E-01
     14 F  17 CL    1.229014641966E-01 -4.779273831862E-02  1.277234245682E-01
     15 F  17 CL    4.779273831862E-02  1.229014641966E-01 -1.277234245682E-01
     16 F  17 CL   -4.779273831862E-02 -1.229014641966E-01 -1.277234245682E-01
     17 T   6 C    -2.314482753806E-01 -3.292524688470E-01  1.207142899013E-01
     18 F   6 C     2.314482753806E-01  3.292524688470E-01  1.207142899013E-01
     19 F   6 C    -3.292524688470E-01  2.314482753806E-01 -1.207142899013E-01
     20 F   6 C     3.292524688470E-01 -2.314482753806E-01 -1.207142899013E-01
     21 T   6 C    -2.493710477661E-01 -4.546839308702E-01  1.279549355005E-01
     22 F   6 C     2.493710477661E-01  4.546839308702E-01  1.279549355005E-01
     23 F   6 C    -4.546839308702E-01  2.493710477661E-01 -1.279549355005E-01
     24 F   6 C     4.546839308702E-01 -2.493710477661E-01 -1.279549355005E-01
     25 T   6 C    -3.176843759421E-01 -2.414465766852E-01  1.277731841891E-01
     26 F   6 C     3.176843759421E-01  2.414465766852E-01  1.277731841891E-01
     27 F   6 C    -2.414465766852E-01  3.176843759421E-01 -1.277731841891E-01
     28 F   6 C     2.414465766852E-01 -3.176843759421E-01 -1.277731841891E-01
     29 T   6 C    -1.626548591248E-01 -9.737981088021E-02  1.238599202989E-01
     30 F   6 C     1.626548591248E-01  9.737981088021E-02  1.238599202989E-01
     31 F   6 C    -9.737981088021E-02  1.626548591248E-01 -1.238599202989E-01
     32 F   6 C     9.737981088021E-02 -1.626548591248E-01 -1.238599202989E-01
     33 T   6 C    -1.147824562336E-01 -2.914045036085E-01  1.096110191446E-01
     34 F   6 C     1.147824562336E-01  2.914045036085E-01  1.096110191446E-01
     35 F   6 C    -2.914045036085E-01  1.147824562336E-01 -1.096110191446E-01
     36 F   6 C     2.914045036085E-01 -1.147824562336E-01 -1.096110191446E-01
     37 T   6 C     2.821563529005E-01  1.242170626770E-01  1.274814491431E-01
     38 F   6 C    -2.821563529005E-01 -1.242170626770E-01  1.274814491431E-01
     39 F   6 C     1.242170626770E-01 -2.821563529005E-01 -1.274814491431E-01
     40 F   6 C    -1.242170626770E-01  2.821563529005E-01 -1.274814491431E-01
     41 T   7 N    -1.608195797950E-01  4.737787954581E-01  1.630681941418E-01
     42 F   7 N     1.608195797950E-01 -4.737787954581E-01  1.630681941418E-01
     43 F   7 N     4.737787954581E-01  1.608195797950E-01 -1.630681941418E-01
     44 F   7 N    -4.737787954581E-01 -1.608195797950E-01 -1.630681941418E-01
     45 T   7 N    -2.012198737731E-01  3.608662264385E-01  1.514083580980E-01
     46 F   7 N     2.012198737731E-01 -3.608662264385E-01  1.514083580980E-01
     47 F   7 N     3.608662264385E-01  2.012198737731E-01 -1.514083580980E-01
     48 F   7 N    -3.608662264385E-01 -2.012198737731E-01 -1.514083580980E-01
     49 T   7 N     1.570048383867E-01 -2.056209266084E-02 -4.022064106331E-01
     50 F   7 N    -1.570048383867E-01  2.056209266084E-02 -4.022064106331E-01
     51 F   7 N    -2.056209266084E-02 -1.570048383867E-01  4.022064106331E-01
     52 F   7 N     2.056209266084E-02  1.570048383867E-01  4.022064106331E-01
     53 T   7 N    -3.091965478843E-01  3.642321490134E-01  1.134767016423E-01
     54 F   7 N     3.091965478843E-01 -3.642321490134E-01  1.134767016423E-01
     55 F   7 N     3.642321490134E-01  3.091965478843E-01 -1.134767016423E-01
     56 F   7 N    -3.642321490134E-01 -3.091965478843E-01 -1.134767016423E-01
     57 T   7 N    -8.131119207259E-02 -1.799429852277E-01  1.142301323214E-01
     58 F   7 N     8.131119207259E-02  1.799429852277E-01  1.142301323214E-01
     59 F   7 N    -1.799429852277E-01  8.131119207259E-02 -1.142301323214E-01
     60 F   7 N     1.799429852277E-01 -8.131119207259E-02 -1.142301323214E-01
     61 T  30 ZN    4.626932236752E-17  5.000000000000E-01  2.500000000000E-01
     62 T  30 ZN    0.000000000000E+00 -3.631544682727E-19 -5.000000000000E-01

 T = ATOM BELONGING TO THE ASYMMETRIC UNIT
 INFORMATION **** fort.34 **** GEOMETRY OUTPUT FILE

 DIRECT LATTICE VECTORS CARTESIAN COMPONENTS (ANGSTROM)
          X                    Y                    Z
  -0.571259731376E+01   0.571259731376E+01   0.619966104004E+01
   0.571259731376E+01  -0.571259731376E+01   0.619966104004E+01
   0.571259731376E+01   0.571259731376E+01  -0.619966104004E+01


 CARTESIAN COORDINATES - PRIMITIVE CELL
 *******************************************************************************
 *      ATOM          X(ANGSTROM)         Y(ANGSTROM)         Z(ANGSTROM)
 *******************************************************************************
    1    17 CL    3.958769501778E-01  2.605417418944E+00 -4.545784238351E+00
    2    17 CL   -3.958769501778E-01 -2.605417418944E+00 -4.545784238351E+00
    3    17 CL    2.605417418944E+00 -3.958769501778E-01  4.545784238351E+00
    4    17 CL   -2.605417418944E+00  3.958769501778E-01  4.545784238351E+00
    5     1 H    -5.181280751796E-01 -4.056101025554E+00  1.172418979572E+00
    6     1 H     5.181280751796E-01  4.056101025554E+00  1.172418979572E+00
    7     1 H    -4.056101025554E+00  5.181280751796E-01 -1.172418979572E+00
    8     1 H     4.056101025554E+00 -5.181280751796E-01 -1.172418979572E+00
    9    17 CL   -4.348421765381E+00 -1.380790786141E-01  1.603247877915E+00
   10    17 CL    4.348421765381E+00  1.380790786141E-01  1.603247877915E+00
   11    17 CL   -1.380790786141E-01  4.348421765381E+00 -1.603247877915E+00
   12    17 CL    1.380790786141E-01 -4.348421765381E+00 -1.603247877915E+00
   13    17 CL   -1.404173148454E+00  5.460413370726E-01  1.583683878392E+00
   14    17 CL    1.404173148454E+00 -5.460413370726E-01  1.583683878392E+00
   15    17 CL    5.460413370726E-01  1.404173148454E+00 -1.583683878392E+00
   16    17 CL   -5.460413370726E-01 -1.404173148454E+00 -1.583683878392E+00
   17     6 C    -2.644341592428E+00 -3.761773538170E+00  1.496775360155E+00
   18     6 C     2.644341592428E+00  3.761773538170E+00  1.496775360155E+00
   19     6 C    -3.761773538170E+00  2.644341592428E+00 -1.496775360155E+00
   20     6 C     3.761773538170E+00 -2.644341592428E+00 -1.496775360155E+00
   21     6 C    -2.849112755198E+00 -5.194852404200E+00  1.586554457008E+00
   22     6 C     2.849112755198E+00  5.194852404200E+00  1.586554457008E+00
   23     6 C    -5.194852404200E+00  2.849112755198E+00 -1.586554457008E+00
   24     6 C     5.194852404200E+00 -2.849112755198E+00 -1.586554457008E+00
   25     6 C    -3.629605825262E+00 -2.758574130778E+00  1.584300863959E+00
   26     6 C     3.629605825262E+00  2.758574130778E+00  1.584300863959E+00
   27     6 C    -2.758574130778E+00  3.629605825262E+00 -1.584300863959E+00
   28     6 C     2.758574130778E+00 -3.629605825262E+00 -1.584300863959E+00
   29     6 C    -1.858363422613E+00 -1.112583292098E+00  1.535779044600E+00
   30     6 C     1.858363422613E+00  1.112583292098E+00  1.535779044600E+00
   31     6 C    -1.112583292098E+00  1.858363422613E+00 -1.535779044600E+00
   32     6 C     1.112583292098E+00 -1.858363422613E+00 -1.535779044600E+00
   33     6 C    -1.311411902294E+00 -3.329353169065E+00  1.359102329900E+00
   34     6 C     1.311411902294E+00  3.329353169065E+00  1.359102329900E+00
   35     6 C    -3.329353169065E+00  1.311411902294E+00 -1.359102329900E+00
   36     6 C     3.329353169065E+00 -1.311411902294E+00 -1.359102329900E+00
   37     6 C     3.223691247280E+00  1.419204117144E+00  1.580683547161E+00
   38     6 C    -3.223691247280E+00 -1.419204117144E+00  1.580683547161E+00
   39     6 C     1.419204117144E+00 -3.223691247280E+00 -1.580683547161E+00
   40     6 C    -1.419204117144E+00  3.223691247280E+00 -1.580683547161E+00
   41     7 N    -1.837394999074E+00  5.413014948502E+00  2.021935060182E+00
   42     7 N     1.837394999074E+00 -5.413014948502E+00  2.021935060182E+00
   43     7 N     5.413014948502E+00  1.837394999074E+00 -2.021935060182E+00
   44     7 N    -5.413014948502E+00 -1.837394999074E+00 -2.021935060182E+00
   45     7 N    -2.298976220784E+00  4.122966871560E+00  1.877360997675E+00
   46     7 N     2.298976220784E+00 -4.122966871560E+00  1.877360997675E+00
   47     7 N     4.122966871560E+00  2.298976220784E+00 -1.877360997675E+00
   48     7 N    -4.122966871560E+00 -2.298976220784E+00 -1.877360997675E+00
   49     7 N     1.793810836031E+00 -2.349259105993E-01 -4.987086828116E+00
   50     7 N    -1.793810836031E+00  2.349259105993E-01 -4.987086828116E+00
   51     7 N    -2.349259105993E-01 -1.793810836031E+00  4.987086828116E+00
   52     7 N     2.349259105993E-01  1.793810836031E+00  4.987086828116E+00
   53     7 N    -3.532630737737E+00  4.161423192080E+00  1.407034172249E+00
   54     7 N     3.532630737737E+00 -4.161423192080E+00  1.407034172249E+00
   55     7 N     4.161423192080E+00  3.532630737737E+00 -1.407034172249E+00
   56     7 N    -4.161423192080E+00 -3.532630737737E+00 -1.407034172249E+00
   57     7 N    -9.289961948253E-01 -2.055883628084E+00  1.416376201904E+00
   58     7 N     9.289961948253E-01  2.055883628084E+00  1.416376201904E+00
   59     7 N    -2.055883628084E+00  9.289961948253E-01 -1.416376201904E+00
   60     7 N     2.055883628084E+00 -9.289961948253E-01 -1.416376201904E+00
   61    30 ZN    5.286360133325E-16  5.712597313762E+00 -9.299491560065E+00
   62    30 ZN    0.000000000000E+00 -4.149110479871E-18  6.199661040043E+00

 ****    4 SYMMOPS - TRANSLATORS IN FRACTIONAL UNITS
 **** MATRICES AND TRANSLATORS IN THE CRYSTALLOGRAPHIC REFERENCE FRAME
   V INV                    ROTATION MATRICES                   TRANSLATORS
   1   1  1.00  0.00  0.00  0.00  1.00  0.00  0.00  0.00  1.00  0.00  0.00  0.00
   2   2  0.00  1.00 -1.00  1.00  0.00 -1.00 -0.00  0.00 -1.00  0.00  0.00  0.00
   3   4 -0.00 -1.00  0.00  0.00 -1.00  1.00  1.00 -1.00  0.00  0.00  0.00  0.00
   4   3 -1.00 -0.00  1.00 -1.00  0.00  0.00 -1.00  1.00 -0.00  0.00  0.00  0.00
 TTTTTTTTTTTTTTTTTTTTTTTTTTTTTT END         TELAPSE    91752.23 TCPU    89230.31
 EEEEEEEEEE TERMINATION  DATE 21 11 2023 TIME 06:21:38.0
NODE    0 CPU TIME =     89230.309
NODE    1 CPU TIME =     89906.167
NODE    2 CPU TIME =     89680.950
NODE    3 CPU TIME =     89524.561
NODE    4 CPU TIME =     89927.678
NODE    5 CPU TIME =     89793.706
NODE    6 CPU TIME =     89693.297
NODE    7 CPU TIME =     89418.801
NODE    8 CPU TIME =     89715.536
NODE    9 CPU TIME =     89668.513
NODE   10 CPU TIME =     89424.040
NODE   11 CPU TIME =     89277.032
NODE   12 CPU TIME =     89684.717
NODE   13 CPU TIME =     89540.540
NODE   14 CPU TIME =     89477.040
NODE   15 CPU TIME =     89291.338
NODE   16 CPU TIME =     89619.607
NODE   17 CPU TIME =     89458.712
NODE   18 CPU TIME =     89501.784
NODE   19 CPU TIME =     89275.822
NODE   20 CPU TIME =     89424.269
NODE   21 CPU TIME =     89238.677
NODE   22 CPU TIME =     89130.557
NODE   23 CPU TIME =     89158.692
    TOTAL CPU TIME =   2148062.344
trying normal rsh (/usr/bin/rsh)
exec: No such file or directory
trying normal rsh (/usr/bin/rsh)
exec: No such file or directory
trying normal rsh (/usr/bin/rsh)
exec: No such file or directory
trying normal rsh (/usr/bin/rsh)
exec: No such file or directory
