Loading crystal17/1.0.2/intel/19.0
  Loading requirement: intel/19.0 ompi/4.0.1/intel/19.0
 PROCESS            7  OF           24  WORKING
 PROCESS            9  OF           24  WORKING
 PROCESS           11  OF           24  WORKING
 PROCESS           12  OF           24  WORKING
 PROCESS           13  OF           24  WORKING
 PROCESS           14  OF           24  WORKING
 PROCESS           16  OF           24  WORKING
 PROCESS           17  OF           24  WORKING
 PROCESS           19  OF           24  WORKING
 PROCESS           20  OF           24  WORKING
 PROCESS           22  OF           24  WORKING
 PROCESS           23  OF           24  WORKING
 PROCESS            0  OF           24  WORKING
 PROCESS            1  OF           24  WORKING
 PROCESS            2  OF           24  WORKING
 PROCESS            3  OF           24  WORKING
 PROCESS            4  OF           24  WORKING
 PROCESS            5  OF           24  WORKING
 PROCESS            6  OF           24  WORKING
 PROCESS            8  OF           24  WORKING
 PROCESS           10  OF           24  WORKING
 PROCESS           15  OF           24  WORKING
 PROCESS           18  OF           24  WORKING
 PROCESS           21  OF           24  WORKING

         
 *******************************************************************************
 *                                                                             *
 *                               CRYSTAL17                                     *
 *                      public : 1.0.2 - March 1st, 2018                       *
 *                       HTTP://WWW.CRYSTAL.UNITO.IT                           *
 *                                                                             *
 *                              MAIN AUTHORS                                   *
 *                                                                             *
 *  R. DOVESI(1,11), V.R. SAUNDERS(2), C. ROETTI(1,11), R. ORLANDO(1,11),      *
 *  C.M. ZICOVICH-WILSON(1,3), F. PASCALE(4), B. CIVALLERI(1,11),              *
 *  K. DOLL(5), N.M. HARRISON(2,6), I.J. BUSH(7), Ph. D'ARCO(8),               *
 *  M. LLUNELL(9), M. CAUSA'(10), Y. NOEL(8), L. MASCHIO(1,11), A. ERBA(1,11)  *
 *  M. RE'RAT(14), S. CASASSA(1,11)                                            *
 *                                                                             *
 *        CONTRIBUTIONS TO THE CODE HAVE ALSO BEEN GIVEN BY                    *
 *                                                                             *
 *  M. FERRABONE(1,11), M. DE LA PIERRE(1,11), M. FERRERO(1,11),               *
 *  J. BAIMA(1,11), E. ALBANESE(1,11), M.F. PEINTINGER(12), R. BAST(13),       *
 *  B. KIRTMAN(15), V. LACIVITA(1,11), R. DEMICHELIS(1,16)                     *
 *  G. BRANDEBURG(17), S. SALUSTRO(1,11), G. SANSONE(1,11)                     *
 *  M.T. RUGGIERO(18)                                                          *
 *                                                                             *
 * (1) THEORETICAL CHEMISTRY GROUP - UNIVERSITA' DI TORINO - TORINO (ITALY)    *
 * (2) COMPUTATIONAL SCIENCE & ENGINEERING DEPARTMENT - STFC DARESBURY (UK)    *
 * (3) UNIVERSIDAD AUTONOMA DEL ESTADO DE MORELOS - CUERNAVACA (MEXICO)        *
 * (4) UNIVERSITE' DE LORRAINE - NANCY (FRANCE)                                *
 * (5) UNIVERSITAET STUTTGART- STUTTGART (GERMANY)                             *
 * (6) IMPERIAL COLLEGE - LONDON (UK)                                          *
 * (7) OXFORD E-RESEARCH CENTRE - OXFORD (UK)                                  *
 * (8) UPMC - SORBONNE UNIVERSITES - PARIS (FRANCE)                            *
 * (9) UNIVERSIDAD DE BARCELONA - BARCELONA (SPAIN)                            *
 *(10) UNIVERSITA' DI NAPOLI "FEDERICO II" - NAPOLI (ITALY)                    *
 *(11) NIS - NANOSTRUCTURED INTERFACES AND SURFACES - TORINO (ITALY)           *
 *(12) MPI FUER CHEMISCHE ENERGIEKONVERSION - MUELHEIM AN DER RUHR (GERMANY)   *
 *(13) UNIVERSITY OF TROMSO - TROMSO (NORWAY)                                  *
 *(14) UNIVERSITE' DE PAU ET DES PAYS DE L'ADOUR - PAU (FRANCE)                *
 *(15) UNIVERSITY OF CALIFORNIA SANTA BARBARA - SANTA BARBARA (USA)            *
 *(16) CURTIN UNIVERSITY - PERTH (AUSTRALIA)                                   *
 *(17) UNIVERSITY COLLEGE LONDON - LONDON (UK)                                 *
 *(18) CAMBRIDGE UNIVERSITY - CAMBRIDGE (UK)                                   *
 *                                                                             *
 *******************************************************************************
 EEEEEEEEEE STARTING  DATE 19 11 2023 TIME 23:38:22.5
 C:\Users\wilso\AppData\Local\Temp\tmp_p\newconn.mol                             

 CRYSTAL CALCULATION
 (INPUT ACCORDING TO THE INTERNATIONAL TABLES FOR X-RAY CRYSTALLOGRAPHY)
 CRYSTAL FAMILY                       :  TETRAGONAL  
 CRYSTAL CLASS  (GROTH - 1921)        :  TETRAGONAL DISPHENOIDAL              

 SPACE GROUP (NONCENTROSYMMETRIC)     :  I -4            

 LATTICE PARAMETERS  (ANGSTROMS AND DEGREES) - CONVENTIONAL CELL
        A           B           C        ALPHA        BETA       GAMMA
    10.15800    10.15800    13.29400    90.00000    90.00000    90.00000


 NUMBER OF IRREDUCIBLE ATOMS IN THE CONVENTIONAL CELL:  124

 INPUT COORDINATES

 ATOM AT. N.              COORDINATES
   1  17     5.576100000000E-01  7.373700000000E-01  1.366700000000E-01
   2  17     4.423900000000E-01  2.626300000000E-01  1.366700000000E-01
   3  17     7.373700000000E-01  4.423900000000E-01  8.633300000000E-01
   4  17     2.626300000000E-01  5.576100000000E-01  8.633300000000E-01
   5  17     5.761000000000E-02  2.373700000000E-01  6.366700000000E-01
   6  17     9.423900000000E-01  7.626300000000E-01  6.366700000000E-01
   7  17     2.373700000000E-01  9.423900000000E-01  3.633300000000E-01
   8  17     7.626300000000E-01  5.761000000000E-02  3.633300000000E-01
   9  17     9.759200000000E-01  6.751900000000E-01  9.083000000000E-02
  10  17     2.408000000000E-02  3.248100000000E-01  9.083000000000E-02
  11  17     6.751900000000E-01  2.408000000000E-02  9.091700000000E-01
  12  17     3.248100000000E-01  9.759200000000E-01  9.091700000000E-01
  13  17     4.759200000000E-01  1.751900000000E-01  5.908300000000E-01
  14  17     5.240800000000E-01  8.248100000000E-01  5.908300000000E-01
  15  17     1.751900000000E-01  5.240800000000E-01  4.091700000000E-01
  16  17     8.248100000000E-01  4.759200000000E-01  4.091700000000E-01
  17   1     6.058200000000E-01  9.805800000000E-01  1.369900000000E-01
  18   1     3.941800000000E-01  1.942000000000E-02  1.369900000000E-01
  19   1     9.805800000000E-01  3.941800000000E-01  8.630100000000E-01
  20   1     1.942000000000E-02  6.058200000000E-01  8.630100000000E-01
  21   1     1.058200000000E-01  4.805800000000E-01  6.369900000000E-01
  22   1     8.941800000000E-01  5.194200000000E-01  6.369900000000E-01
  23   1     4.805800000000E-01  8.941800000000E-01  3.630100000000E-01
  24   1     5.194200000000E-01  1.058200000000E-01  3.630100000000E-01
  25  17     8.420800000000E-01  5.709000000000E-02  1.240200000000E-01
  26  17     1.579200000000E-01  9.429100000000E-01  1.240200000000E-01
  27  17     5.709000000000E-02  1.579200000000E-01  8.759800000000E-01
  28  17     9.429100000000E-01  8.420800000000E-01  8.759800000000E-01
  29  17     3.420800000000E-01  5.570900000000E-01  6.240200000000E-01
  30  17     6.579200000000E-01  4.429100000000E-01  6.240200000000E-01
  31  17     5.570900000000E-01  6.579200000000E-01  3.759800000000E-01
  32  17     4.429100000000E-01  3.420800000000E-01  3.759800000000E-01
  33   6     2.646500000000E-01  1.859800000000E-01  6.165500000000E-01
  34   6     7.353500000000E-01  8.140200000000E-01  6.165500000000E-01
  35   6     1.859800000000E-01  7.353500000000E-01  3.834500000000E-01
  36   6     8.140200000000E-01  2.646500000000E-01  3.834500000000E-01
  37   6     7.646500000000E-01  6.859800000000E-01  1.165500000000E-01
  38   6     2.353500000000E-01  3.140200000000E-01  1.165500000000E-01
  39   6     6.859800000000E-01  2.353500000000E-01  8.834500000000E-01
  40   6     3.140200000000E-01  7.646500000000E-01  8.834500000000E-01
  41   6     2.514000000000E-01  4.317000000000E-02  6.230000000000E-01
  42   6     7.486000000000E-01  9.568300000000E-01  6.230000000000E-01
  43   6     4.317000000000E-02  7.486000000000E-01  3.770000000000E-01
  44   6     9.568300000000E-01  2.514000000000E-01  3.770000000000E-01
  45   6     7.514000000000E-01  5.431700000000E-01  1.230000000000E-01
  46   6     2.486000000000E-01  4.568300000000E-01  1.230000000000E-01
  47   6     5.431700000000E-01  2.486000000000E-01  8.770000000000E-01
  48   6     4.568300000000E-01  7.514000000000E-01  8.770000000000E-01
  49   6     6.583700000000E-01  7.736700000000E-01  1.273400000000E-01
  50   6     3.416300000000E-01  2.263300000000E-01  1.273400000000E-01
  51   6     7.736700000000E-01  3.416300000000E-01  8.726600000000E-01
  52   6     2.263300000000E-01  6.583700000000E-01  8.726600000000E-01
  53   6     1.583700000000E-01  2.736700000000E-01  6.273400000000E-01
  54   6     8.416300000000E-01  7.263300000000E-01  6.273400000000E-01
  55   6     2.736700000000E-01  8.416300000000E-01  3.726600000000E-01
  56   6     7.263300000000E-01  1.583700000000E-01  3.726600000000E-01
  57   6     8.156900000000E-01  9.525900000000E-01  1.204300000000E-01
  58   6     1.843100000000E-01  4.741000000000E-02  1.204300000000E-01
  59   6     9.525900000000E-01  1.843100000000E-01  8.795700000000E-01
  60   6     4.741000000000E-02  8.156900000000E-01  8.795700000000E-01
  61   6     3.156900000000E-01  4.525900000000E-01  6.204300000000E-01
  62   6     6.843100000000E-01  5.474100000000E-01  6.204300000000E-01
  63   6     4.525900000000E-01  6.843100000000E-01  3.795700000000E-01
  64   6     5.474100000000E-01  3.156900000000E-01  3.795700000000E-01
  65   6     3.914300000000E-01  2.396500000000E-01  6.044300000000E-01
  66   6     6.085700000000E-01  7.603500000000E-01  6.044300000000E-01
  67   6     2.396500000000E-01  6.085700000000E-01  3.955700000000E-01
  68   6     7.603500000000E-01  3.914300000000E-01  3.955700000000E-01
  69   6     8.914300000000E-01  7.396500000000E-01  1.044300000000E-01
  70   6     1.085700000000E-01  2.603500000000E-01  1.044300000000E-01
  71   6     7.396500000000E-01  1.085700000000E-01  8.955700000000E-01
  72   6     2.603500000000E-01  8.914300000000E-01  8.955700000000E-01
  73   6     3.150000000000E-01  9.141000000000E-02  1.282200000000E-01
  74   6     6.850000000000E-01  9.085900000000E-01  1.282200000000E-01
  75   6     9.141000000000E-02  6.850000000000E-01  8.717800000000E-01
  76   6     9.085900000000E-01  3.150000000000E-01  8.717800000000E-01
  77   6     8.150000000000E-01  5.914100000000E-01  6.282200000000E-01
  78   6     1.850000000000E-01  4.085900000000E-01  6.282200000000E-01
  79   6     5.914100000000E-01  1.850000000000E-01  3.717800000000E-01
  80   6     4.085900000000E-01  8.150000000000E-01  3.717800000000E-01
  81   7     8.407700000000E-01  4.628300000000E-01  1.672900000000E-01
  82   7     1.592300000000E-01  5.371700000000E-01  1.672900000000E-01
  83   7     4.628300000000E-01  1.592300000000E-01  8.327100000000E-01
  84   7     5.371700000000E-01  8.407700000000E-01  8.327100000000E-01
  85   7     3.407700000000E-01  9.628300000000E-01  6.672900000000E-01
  86   7     6.592300000000E-01  3.717000000000E-02  6.672900000000E-01
  87   7     9.628300000000E-01  6.592300000000E-01  3.327100000000E-01
  88   7     3.717000000000E-02  3.407700000000E-01  3.327100000000E-01
  89   7     2.940400000000E-01  8.358500000000E-01  6.597700000000E-01
  90   7     7.059600000000E-01  1.641500000000E-01  6.597700000000E-01
  91   7     8.358500000000E-01  7.059600000000E-01  3.402300000000E-01
  92   7     1.641500000000E-01  2.940400000000E-01  3.402300000000E-01
  93   7     7.940400000000E-01  3.358500000000E-01  1.597700000000E-01
  94   7     2.059600000000E-01  6.641500000000E-01  1.597700000000E-01
  95   7     3.358500000000E-01  2.059600000000E-01  8.402300000000E-01
  96   7     6.641500000000E-01  7.940400000000E-01  8.402300000000E-01
  97   7     1.518600000000E-01  9.677900000000E-01  5.884000000000E-01
  98   7     8.481400000000E-01  3.221000000000E-02  5.884000000000E-01
  99   7     9.677900000000E-01  8.481400000000E-01  4.116000000000E-01
 100   7     3.221000000000E-02  1.518600000000E-01  4.116000000000E-01
 101   7     6.518600000000E-01  4.677900000000E-01  8.840000000000E-02
 102   7     3.481400000000E-01  5.322100000000E-01  8.840000000000E-02
 103   7     4.677900000000E-01  3.481400000000E-01  9.116000000000E-01
 104   7     5.322100000000E-01  6.518600000000E-01  9.116000000000E-01
 105   7     1.800200000000E-01  8.388700000000E-01  6.128200000000E-01
 106   7     8.199800000000E-01  1.611300000000E-01  6.128200000000E-01
 107   7     8.388700000000E-01  8.199800000000E-01  3.871800000000E-01
 108   7     1.611300000000E-01  1.800200000000E-01  3.871800000000E-01
 109   7     6.800200000000E-01  3.388700000000E-01  1.128200000000E-01
 110   7     3.199800000000E-01  6.611300000000E-01  1.128200000000E-01
 111   7     3.388700000000E-01  3.199800000000E-01  8.871800000000E-01
 112   7     6.611300000000E-01  6.800200000000E-01  8.871800000000E-01
 113   7     9.174200000000E-01  8.687700000000E-01  1.079100000000E-01
 114   7     8.258000000000E-02  1.312300000000E-01  1.079100000000E-01
 115   7     8.687700000000E-01  8.258000000000E-02  8.920900000000E-01
 116   7     1.312300000000E-01  9.174200000000E-01  8.920900000000E-01
 117   7     4.174200000000E-01  3.687700000000E-01  6.079100000000E-01
 118   7     5.825800000000E-01  6.312300000000E-01  6.079100000000E-01
 119   7     3.687700000000E-01  5.825800000000E-01  3.920900000000E-01
 120   7     6.312300000000E-01  4.174200000000E-01  3.920900000000E-01
 121  30     0.000000000000E+00  5.000000000000E-01  2.500000000000E-01
 122  30     5.000000000000E-01  0.000000000000E+00  7.500000000000E-01
 123  30     0.000000000000E+00  0.000000000000E+00  5.000000000000E-01
 124  30     5.000000000000E-01  5.000000000000E-01  0.000000000000E+00

 *******************************************************************************

 << INFORMATION >>: FROM NOW ON, ALL COORDINATES REFER TO THE PRIMITIVE CELL

 *******************************************************************************

 LATTICE PARAMETERS  (ANGSTROMS AND DEGREES) - PRIMITIVE CELL
       A          B          C        ALPHA      BETA     GAMMA        VOLUME
    9.78647    9.78647    9.78647   117.47208 117.47208  94.43726    685.870456

 INPUT LIST - ATOM N.   2 NOT IRREDUCIBLE

 INPUT LIST - ATOM N.   3 NOT IRREDUCIBLE

 INPUT LIST - ATOM N.   4 NOT IRREDUCIBLE

 INPUT LIST - ATOM N.   1 NOT IRREDUCIBLE

 INPUT LIST - ATOM N.   2 NOT IRREDUCIBLE

 INPUT LIST - ATOM N.   3 NOT IRREDUCIBLE

 INPUT LIST - ATOM N.   4 NOT IRREDUCIBLE

 INPUT LIST - ATOM N.   6 NOT IRREDUCIBLE

 INPUT LIST - ATOM N.   7 NOT IRREDUCIBLE

 INPUT LIST - ATOM N.   8 NOT IRREDUCIBLE

 INPUT LIST - ATOM N.   5 NOT IRREDUCIBLE

 INPUT LIST - ATOM N.   6 NOT IRREDUCIBLE

 INPUT LIST - ATOM N.   7 NOT IRREDUCIBLE

 INPUT LIST - ATOM N.   8 NOT IRREDUCIBLE

 INPUT LIST - ATOM N.  10 NOT IRREDUCIBLE

 INPUT LIST - ATOM N.  11 NOT IRREDUCIBLE

 INPUT LIST - ATOM N.  12 NOT IRREDUCIBLE

 INPUT LIST - ATOM N.   9 NOT IRREDUCIBLE

 INPUT LIST - ATOM N.  10 NOT IRREDUCIBLE

 INPUT LIST - ATOM N.  11 NOT IRREDUCIBLE

 INPUT LIST - ATOM N.  12 NOT IRREDUCIBLE

 INPUT LIST - ATOM N.  14 NOT IRREDUCIBLE

 INPUT LIST - ATOM N.  15 NOT IRREDUCIBLE

 INPUT LIST - ATOM N.  16 NOT IRREDUCIBLE

 INPUT LIST - ATOM N.  13 NOT IRREDUCIBLE

 INPUT LIST - ATOM N.  14 NOT IRREDUCIBLE

 INPUT LIST - ATOM N.  15 NOT IRREDUCIBLE

 INPUT LIST - ATOM N.  16 NOT IRREDUCIBLE

 INPUT LIST - ATOM N.  18 NOT IRREDUCIBLE

 INPUT LIST - ATOM N.  19 NOT IRREDUCIBLE

 INPUT LIST - ATOM N.  20 NOT IRREDUCIBLE

 INPUT LIST - ATOM N.  17 NOT IRREDUCIBLE

 INPUT LIST - ATOM N.  18 NOT IRREDUCIBLE

 INPUT LIST - ATOM N.  19 NOT IRREDUCIBLE

 INPUT LIST - ATOM N.  20 NOT IRREDUCIBLE

 INPUT LIST - ATOM N.  22 NOT IRREDUCIBLE

 INPUT LIST - ATOM N.  23 NOT IRREDUCIBLE

 INPUT LIST - ATOM N.  24 NOT IRREDUCIBLE

 INPUT LIST - ATOM N.  21 NOT IRREDUCIBLE

 INPUT LIST - ATOM N.  22 NOT IRREDUCIBLE

 INPUT LIST - ATOM N.  23 NOT IRREDUCIBLE

 INPUT LIST - ATOM N.  24 NOT IRREDUCIBLE

 INPUT LIST - ATOM N.  26 NOT IRREDUCIBLE

 INPUT LIST - ATOM N.  27 NOT IRREDUCIBLE

 INPUT LIST - ATOM N.  28 NOT IRREDUCIBLE

 INPUT LIST - ATOM N.  25 NOT IRREDUCIBLE

 INPUT LIST - ATOM N.  26 NOT IRREDUCIBLE

 INPUT LIST - ATOM N.  27 NOT IRREDUCIBLE

 INPUT LIST - ATOM N.  28 NOT IRREDUCIBLE

 INPUT LIST - ATOM N.  30 NOT IRREDUCIBLE

 INPUT LIST - ATOM N.  31 NOT IRREDUCIBLE

 INPUT LIST - ATOM N.  32 NOT IRREDUCIBLE

 INPUT LIST - ATOM N.  29 NOT IRREDUCIBLE

 INPUT LIST - ATOM N.  30 NOT IRREDUCIBLE

 INPUT LIST - ATOM N.  31 NOT IRREDUCIBLE

 INPUT LIST - ATOM N.  32 NOT IRREDUCIBLE

 INPUT LIST - ATOM N.  34 NOT IRREDUCIBLE

 INPUT LIST - ATOM N.  35 NOT IRREDUCIBLE

 INPUT LIST - ATOM N.  36 NOT IRREDUCIBLE

 INPUT LIST - ATOM N.  33 NOT IRREDUCIBLE

 INPUT LIST - ATOM N.  34 NOT IRREDUCIBLE

 INPUT LIST - ATOM N.  35 NOT IRREDUCIBLE

 INPUT LIST - ATOM N.  36 NOT IRREDUCIBLE

 INPUT LIST - ATOM N.  38 NOT IRREDUCIBLE

 INPUT LIST - ATOM N.  39 NOT IRREDUCIBLE

 INPUT LIST - ATOM N.  40 NOT IRREDUCIBLE

 INPUT LIST - ATOM N.  37 NOT IRREDUCIBLE

 INPUT LIST - ATOM N.  38 NOT IRREDUCIBLE

 INPUT LIST - ATOM N.  39 NOT IRREDUCIBLE

 INPUT LIST - ATOM N.  40 NOT IRREDUCIBLE

 INPUT LIST - ATOM N.  42 NOT IRREDUCIBLE

 INPUT LIST - ATOM N.  43 NOT IRREDUCIBLE

 INPUT LIST - ATOM N.  44 NOT IRREDUCIBLE

 INPUT LIST - ATOM N.  41 NOT IRREDUCIBLE

 INPUT LIST - ATOM N.  42 NOT IRREDUCIBLE

 INPUT LIST - ATOM N.  43 NOT IRREDUCIBLE

 INPUT LIST - ATOM N.  44 NOT IRREDUCIBLE

 INPUT LIST - ATOM N.  46 NOT IRREDUCIBLE

 INPUT LIST - ATOM N.  47 NOT IRREDUCIBLE

 INPUT LIST - ATOM N.  48 NOT IRREDUCIBLE

 INPUT LIST - ATOM N.  45 NOT IRREDUCIBLE

 INPUT LIST - ATOM N.  46 NOT IRREDUCIBLE

 INPUT LIST - ATOM N.  47 NOT IRREDUCIBLE

 INPUT LIST - ATOM N.  48 NOT IRREDUCIBLE

 INPUT LIST - ATOM N.  50 NOT IRREDUCIBLE

 INPUT LIST - ATOM N.  51 NOT IRREDUCIBLE

 INPUT LIST - ATOM N.  52 NOT IRREDUCIBLE

 INPUT LIST - ATOM N.  49 NOT IRREDUCIBLE

 INPUT LIST - ATOM N.  50 NOT IRREDUCIBLE

 INPUT LIST - ATOM N.  51 NOT IRREDUCIBLE

 INPUT LIST - ATOM N.  52 NOT IRREDUCIBLE

 INPUT LIST - ATOM N.  54 NOT IRREDUCIBLE

 INPUT LIST - ATOM N.  55 NOT IRREDUCIBLE

 INPUT LIST - ATOM N.  56 NOT IRREDUCIBLE

 INPUT LIST - ATOM N.  53 NOT IRREDUCIBLE

 INPUT LIST - ATOM N.  54 NOT IRREDUCIBLE

 INPUT LIST - ATOM N.  55 NOT IRREDUCIBLE

 INPUT LIST - ATOM N.  56 NOT IRREDUCIBLE

 INPUT LIST - ATOM N.  58 NOT IRREDUCIBLE

 INPUT LIST - ATOM N.  59 NOT IRREDUCIBLE

 INPUT LIST - ATOM N.  60 NOT IRREDUCIBLE

 INPUT LIST - ATOM N.  57 NOT IRREDUCIBLE

 INPUT LIST - ATOM N.  58 NOT IRREDUCIBLE

 INPUT LIST - ATOM N.  59 NOT IRREDUCIBLE

 INPUT LIST - ATOM N.  60 NOT IRREDUCIBLE

 INPUT LIST - ATOM N.  61 NOT IRREDUCIBLE

 INPUT LIST - ATOM N.  62 NOT IRREDUCIBLE

 COORDINATES OF THE EQUIVALENT ATOMS (FRACTIONAL UNITS)

 N. ATOM EQUIV AT. N.          X                  Y                  Z

   1   1   1   17 CL   -1.25960000000E-01 -3.05720000000E-01  2.94980000000E-01
   2   1   2   17 CL    3.99300000000E-01 -4.20940000000E-01 -2.94980000000E-01
   3   1   3   17 CL    3.05720000000E-01 -3.99300000000E-01  1.79760000000E-01
   4   1   4   17 CL    4.20940000000E-01  1.25960000000E-01 -1.79760000000E-01








   5   9   1   17 CL   -2.33980000000E-01  6.67500000000E-02 -3.48890000000E-01
   6   9   2   17 CL    4.15640000000E-01  1.14910000000E-01  3.48890000000E-01
   7   9   3   17 CL   -6.67500000000E-02 -4.15640000000E-01 -3.00730000000E-01
   8   9   4   17 CL   -1.14910000000E-01  2.33980000000E-01  3.00730000000E-01








   9  17   1    1 H     1.17570000000E-01 -2.57190000000E-01 -4.13600000000E-01
  10  17   2    1 H     1.56410000000E-01 -4.68830000000E-01  4.13600000000E-01
  11  17   3    1 H     2.57190000000E-01 -1.56410000000E-01  3.74760000000E-01
  12  17   4    1 H     4.68830000000E-01 -1.17570000000E-01 -3.74760000000E-01

 NUMBER OF SYMMETRY OPERATORS         :    4
 *******************************************************************************
 * GEOMETRY EDITING - INPUT COORDINATES ARE GIVEN IN ANGSTROM         
 *******************************************************************************

 GEOMETRY NOW FULLY CONSISTENT WITH THE GROUP
 *******************************************************************************
 *  GEOMETRY EDITING
 *  THE SYMMETRY OF THE CRYSTAL IS KEPT AND APPLIED TO THE PERTURBATION
 *******************************************************************************
 INFORMATION **** NEW DEFAULT **** FINALRUN 4 FOR GEOMETRY OPTIMIZATIONS
 INFORMATION **** NEW DEFAULT **** OPTGEOM OPTIMIZES BOTH ATOMIC COORDINATES AND CELL PARAMETERS
 INFORMATION **** NEW DEFAULT **** TOL. ON ATOMIC DISP TO REDEFINE REF. GEOMETRY: 0.8 Angs
 INFORMATION **** NEW DEFAULT **** N POINTS TO REDEFINE REF. GEOMETRY: N OF OPT DEGS OF FREEDOM
 INFORMATION **** NEW DEFAULT **** TOL. ON ENERGY TO REDEFINE REF. GEOMETRY: 10**-3*(5*N. ATOMS)

 IMPORTANT INFORMATION:
 THE COORDINATE SYSTEM ADOPTED IN THE OPTIMIZATION IS NOT IN
 GENERAL HOMOGENEOUS UNITS. FOR THIS REASON THE GRADIENT AND 
 HESSIAN MATRIX IN TERMS OF THIS SYSTEM ARE GIVEN WITHOUT
 UNITS. FOR MORE DETAILS SEE THE MANUAL.

 *******************************************************************************
 COMBINED CELL/ATOM OPTIMIZATION CONTROL

 INITIAL TRUST RADIUS         0.50000 MAXIMUM TRUST RADIUS               4.00000
 MAXIMUM GRADIENT COMPONENT   0.00045 MAXIMUM DISPLACEMENT COMPONENT     0.00180
 R.M.S. OF GRADIENT COMPONENT 0.00030 R.M.S. OF DISPLACEMENT COMPONENTS  0.00120
 THRESHOLD ON ENERGY CHANGE 0.100E-06 EXTRAPOLATING POLYNOMIAL ORDER           2
 MAXIMUM ALLOWED NUMBER OF STEPS   -1 SORTING OF ENERGY POINTS:               NO
 ANALYTICAL  GRADIENT                 HESSIAN UPDATING                      BFGS
 STEP SIZE NUMERICAL GRADIENT 0.00100
 INITIAL HESSIAN MATRIX: SCHLEGEL MODEL 2
 *******************************************************************************


 GCALCO - MAX INDICES DIRECT LATTICE VECTOR    14    14    16
 NO.OF VECTORS CREATED 6999 STARS  481 RMAX   197.96270 BOHR

 GEOMETRY FOR WAVE FUNCTION - DIMENSIONALITY OF THE SYSTEM    3
 (NON PERIODIC DIRECTION: LATTICE PARAMETER FORMALLY SET TO 500)
 *******************************************************************************
 LATTICE PARAMETERS (ANGSTROMS AND DEGREES) - BOHR = 0.5291772083 ANGSTROM
 PRIMITIVE CELL - CENTRING CODE 6/0 VOLUME=   685.870456 - DENSITY  2.711 g/cm^3
         A              B              C           ALPHA      BETA       GAMMA 
     9.78647490     9.78647490     9.78647490   117.472078 117.472078  94.437262
 *******************************************************************************
 ATOMS IN THE ASYMMETRIC UNIT   17 - ATOMS IN THE UNIT CELL:   62
     ATOM                 X/A                 Y/B                 Z/C    
 *******************************************************************************
      1 T  17 CL   -1.259600000000E-01 -3.057200000000E-01  2.949800000000E-01
      2 F  17 CL    3.993000000000E-01 -4.209400000000E-01 -2.949800000000E-01
      3 F  17 CL    3.057200000000E-01 -3.993000000000E-01  1.797600000000E-01
      4 F  17 CL    4.209400000000E-01  1.259600000000E-01 -1.797600000000E-01
      5 T  17 CL   -2.339800000000E-01  6.675000000000E-02 -3.488900000000E-01
      6 F  17 CL    4.156400000000E-01  1.149100000000E-01  3.488900000000E-01
      7 F  17 CL   -6.675000000000E-02 -4.156400000000E-01 -3.007300000000E-01
      8 F  17 CL   -1.149100000000E-01  2.339800000000E-01  3.007300000000E-01
      9 T   1 H     1.175700000000E-01 -2.571900000000E-01 -4.136000000000E-01
     10 F   1 H     1.564100000000E-01 -4.688300000000E-01  4.136000000000E-01
     11 F   1 H     2.571900000000E-01 -1.564100000000E-01  3.747600000000E-01
     12 F   1 H     4.688300000000E-01 -1.175700000000E-01 -3.747600000000E-01
     13 T  17 CL    1.811100000000E-01 -3.390000000000E-02 -1.008300000000E-01
     14 F  17 CL    6.693000000000E-02  2.819400000000E-01  1.008300000000E-01
     15 F  17 CL    3.390000000000E-02 -6.693000000000E-02  2.150100000000E-01
     16 F  17 CL   -2.819400000000E-01 -1.811100000000E-01 -2.150100000000E-01
     17 T   6 C    -1.974700000000E-01 -1.188000000000E-01  4.506300000000E-01
     18 F   6 C     4.305700000000E-01  3.519000000000E-01 -4.506300000000E-01
     19 F   6 C     1.188000000000E-01 -4.305700000000E-01 -7.867000000000E-02
     20 F   6 C    -3.519000000000E-01  1.974700000000E-01  7.867000000000E-02
     21 T   6 C    -3.338300000000E-01 -1.256000000000E-01  2.945700000000E-01
     22 F   6 C    -4.201700000000E-01  3.716000000000E-01 -2.945700000000E-01
     23 F   6 C     1.256000000000E-01  4.201700000000E-01 -2.082300000000E-01
     24 F   6 C    -3.716000000000E-01  3.338300000000E-01  2.082300000000E-01
     25 T   6 C    -9.899000000000E-02 -2.142900000000E-01  4.320400000000E-01
     26 F   6 C     3.536700000000E-01  4.689700000000E-01 -4.320400000000E-01
     27 F   6 C     2.142900000000E-01 -3.536700000000E-01  1.153000000000E-01
     28 F   6 C    -4.689700000000E-01  9.899000000000E-02 -1.153000000000E-01
     29 T   6 C     7.302000000000E-02 -6.388000000000E-02 -2.317200000000E-01
     30 F   6 C     1.678400000000E-01  3.047400000000E-01  2.317200000000E-01
     31 F   6 C     6.388000000000E-02 -1.678400000000E-01  1.369000000000E-01
     32 F   6 C    -3.047400000000E-01 -7.302000000000E-02 -1.369000000000E-01
     33 T   6 C    -1.559200000000E-01 -4.140000000000E-03 -3.689200000000E-01
     34 F   6 C     3.647800000000E-01  2.130000000000E-01  3.689200000000E-01
     35 F   6 C     4.140000000000E-03 -3.647800000000E-01 -1.517800000000E-01
     36 F   6 C    -2.130000000000E-01  1.559200000000E-01  1.517800000000E-01
     37 T   6 C     2.196300000000E-01  4.432200000000E-01  4.064100000000E-01
     38 F   6 C     3.681000000000E-02 -1.867800000000E-01 -4.064100000000E-01
     39 F   6 C    -4.432200000000E-01 -3.681000000000E-02 -2.235900000000E-01
     40 F   6 C     1.867800000000E-01 -2.196300000000E-01  2.235900000000E-01
     41 T   7 N    -3.698800000000E-01  8.060000000000E-03  3.036000000000E-01
     42 F   7 N    -2.955400000000E-01  3.265200000000E-01 -3.036000000000E-01
     43 F   7 N    -8.060000000000E-03  2.955400000000E-01 -3.779400000000E-01
     44 F   7 N    -3.265200000000E-01  3.698800000000E-01  3.779400000000E-01
     45 T   7 N     4.956200000000E-01 -4.619000000000E-02  1.298900000000E-01
     46 F   7 N    -1.760800000000E-01  3.657300000000E-01 -1.298900000000E-01
     47 F   7 N     4.619000000000E-02  1.760800000000E-01 -4.581900000000E-01
     48 F   7 N    -3.657300000000E-01 -4.956200000000E-01  4.581900000000E-01
     49 T   7 N    -4.438100000000E-01 -2.597400000000E-01  1.196500000000E-01
     50 F   7 N    -3.793900000000E-01  4.365400000000E-01 -1.196500000000E-01
     51 F   7 N     2.597400000000E-01  3.793900000000E-01 -1.840700000000E-01
     52 F   7 N    -4.365400000000E-01  4.438100000000E-01  1.840700000000E-01
     53 T   7 N     4.516900000000E-01 -2.071600000000E-01  1.889000000000E-02
     54 F   7 N    -2.260500000000E-01  4.328000000000E-01 -1.889000000000E-02
     55 F   7 N     2.071600000000E-01  2.260500000000E-01 -3.411500000000E-01
     56 F   7 N    -4.328000000000E-01 -4.516900000000E-01  3.411500000000E-01
     57 T   7 N    -2.332000000000E-02  2.533000000000E-02 -2.138100000000E-01
     58 F   7 N     2.391400000000E-01  1.904900000000E-01  2.138100000000E-01
     59 F   7 N    -2.533000000000E-02 -2.391400000000E-01 -4.865000000000E-02
     60 F   7 N    -1.904900000000E-01  2.332000000000E-02  4.865000000000E-02
     61 T  30 ZN   -2.500000000000E-01  2.500000000000E-01  5.000000000000E-01
     62 T  30 ZN   -5.000000000000E-01  5.000000000000E-01  0.000000000000E+00

 TRANSFORMATION MATRIX PRIMITIVE-CRYSTALLOGRAPHIC CELL
  0.0000  1.0000  1.0000  1.0000  0.0000  1.0000  1.0000  1.0000  0.0000

 *******************************************************************************
 CRYSTALLOGRAPHIC CELL (VOLUME=       1371.74091142)
         A              B              C           ALPHA      BETA       GAMMA 
    10.15800000    10.15800000    13.29400000    90.000000  90.000000  90.000000

 COORDINATES IN THE CRYSTALLOGRAPHIC CELL
     ATOM                 X/A                 Y/B                 Z/C    
 *******************************************************************************
      1 T  17 CL    5.761000000000E-02  2.373700000000E-01 -3.633300000000E-01
      2 F  17 CL   -5.761000000000E-02 -2.373700000000E-01 -3.633300000000E-01
      3 F  17 CL    2.373700000000E-01 -5.761000000000E-02  3.633300000000E-01
      4 F  17 CL   -2.373700000000E-01  5.761000000000E-02  3.633300000000E-01
      5 T  17 CL   -2.408000000000E-02 -3.248100000000E-01  9.083000000000E-02
      6 F  17 CL    2.408000000000E-02  3.248100000000E-01  9.083000000000E-02
      7 F  17 CL   -3.248100000000E-01  2.408000000000E-02 -9.083000000000E-02
      8 F  17 CL    3.248100000000E-01 -2.408000000000E-02 -9.083000000000E-02
      9 T   1 H    -3.941800000000E-01 -1.942000000000E-02  1.369900000000E-01
     10 F   1 H     3.941800000000E-01  1.942000000000E-02  1.369900000000E-01
     11 F   1 H    -1.942000000000E-02  3.941800000000E-01 -1.369900000000E-01
     12 F   1 H     1.942000000000E-02 -3.941800000000E-01 -1.369900000000E-01
     13 T  17 CL   -1.579200000000E-01  5.709000000000E-02  1.240200000000E-01
     14 F  17 CL    1.579200000000E-01 -5.709000000000E-02  1.240200000000E-01
     15 F  17 CL    5.709000000000E-02  1.579200000000E-01 -1.240200000000E-01
     16 F  17 CL   -5.709000000000E-02 -1.579200000000E-01 -1.240200000000E-01
     17 T   6 C    -2.353500000000E-01 -3.140200000000E-01  1.165500000000E-01
     18 F   6 C     2.353500000000E-01  3.140200000000E-01  1.165500000000E-01
     19 F   6 C    -3.140200000000E-01  2.353500000000E-01 -1.165500000000E-01
     20 F   6 C     3.140200000000E-01 -2.353500000000E-01 -1.165500000000E-01
     21 T   6 C    -2.486000000000E-01 -4.568300000000E-01  1.230000000000E-01
     22 F   6 C     2.486000000000E-01  4.568300000000E-01  1.230000000000E-01
     23 F   6 C    -4.568300000000E-01  2.486000000000E-01 -1.230000000000E-01
     24 F   6 C     4.568300000000E-01 -2.486000000000E-01 -1.230000000000E-01
     25 T   6 C    -3.416300000000E-01 -2.263300000000E-01  1.273400000000E-01
     26 F   6 C     3.416300000000E-01  2.263300000000E-01  1.273400000000E-01
     27 F   6 C    -2.263300000000E-01  3.416300000000E-01 -1.273400000000E-01
     28 F   6 C     2.263300000000E-01 -3.416300000000E-01 -1.273400000000E-01
     29 T   6 C    -1.843100000000E-01 -4.741000000000E-02  1.204300000000E-01
     30 F   6 C     1.843100000000E-01  4.741000000000E-02  1.204300000000E-01
     31 F   6 C    -4.741000000000E-02  1.843100000000E-01 -1.204300000000E-01
     32 F   6 C     4.741000000000E-02 -1.843100000000E-01 -1.204300000000E-01
     33 T   6 C    -1.085700000000E-01 -2.603500000000E-01  1.044300000000E-01
     34 F   6 C     1.085700000000E-01  2.603500000000E-01  1.044300000000E-01
     35 F   6 C    -2.603500000000E-01  1.085700000000E-01 -1.044300000000E-01
     36 F   6 C     2.603500000000E-01 -1.085700000000E-01 -1.044300000000E-01
     37 T   6 C     3.150000000000E-01  9.141000000000E-02  1.282200000000E-01
     38 F   6 C    -3.150000000000E-01 -9.141000000000E-02  1.282200000000E-01
     39 F   6 C     9.141000000000E-02 -3.150000000000E-01 -1.282200000000E-01
     40 F   6 C    -9.141000000000E-02  3.150000000000E-01 -1.282200000000E-01
     41 T   7 N    -1.592300000000E-01  4.628300000000E-01  1.672900000000E-01
     42 F   7 N     1.592300000000E-01 -4.628300000000E-01  1.672900000000E-01
     43 F   7 N     4.628300000000E-01  1.592300000000E-01 -1.672900000000E-01
     44 F   7 N    -4.628300000000E-01 -1.592300000000E-01 -1.672900000000E-01
     45 T   7 N    -2.059600000000E-01  3.358500000000E-01  1.597700000000E-01
     46 F   7 N     2.059600000000E-01 -3.358500000000E-01  1.597700000000E-01
     47 F   7 N     3.358500000000E-01  2.059600000000E-01 -1.597700000000E-01
     48 F   7 N    -3.358500000000E-01 -2.059600000000E-01 -1.597700000000E-01
     49 T   7 N     1.518600000000E-01 -3.221000000000E-02 -4.116000000000E-01
     50 F   7 N    -1.518600000000E-01  3.221000000000E-02 -4.116000000000E-01
     51 F   7 N    -3.221000000000E-02 -1.518600000000E-01  4.116000000000E-01
     52 F   7 N     3.221000000000E-02  1.518600000000E-01  4.116000000000E-01
     53 T   7 N    -3.199800000000E-01  3.388700000000E-01  1.128200000000E-01
     54 F   7 N     3.199800000000E-01 -3.388700000000E-01  1.128200000000E-01
     55 F   7 N     3.388700000000E-01  3.199800000000E-01 -1.128200000000E-01
     56 F   7 N    -3.388700000000E-01 -3.199800000000E-01 -1.128200000000E-01
     57 T   7 N    -8.258000000000E-02 -1.312300000000E-01  1.079100000000E-01
     58 F   7 N     8.258000000000E-02  1.312300000000E-01  1.079100000000E-01
     59 F   7 N    -1.312300000000E-01  8.258000000000E-02 -1.079100000000E-01
     60 F   7 N     1.312300000000E-01 -8.258000000000E-02 -1.079100000000E-01
     61 T  30 ZN    4.626932236752E-17  5.000000000000E-01  2.500000000000E-01
     62 T  30 ZN    0.000000000000E+00  0.000000000000E+00  5.000000000000E-01

 T = ATOM BELONGING TO THE ASYMMETRIC UNIT

 ****    4 SYMMOPS - TRANSLATORS IN FRACTIONAL UNITS
 **** MATRICES AND TRANSLATORS IN THE CRYSTALLOGRAPHIC REFERENCE FRAME
   V INV                    ROTATION MATRICES                   TRANSLATORS
   1   1  1.00  0.00  0.00  0.00  1.00  0.00  0.00  0.00  1.00  0.00  0.00  0.00
   2   2  0.00  1.00 -1.00  1.00 -0.00 -1.00 -0.00  0.00 -1.00  0.00  0.00  0.00
   3   4 -0.00 -1.00  0.00  0.00 -1.00  1.00  1.00 -1.00  0.00  0.00  0.00  0.00
   4   3 -1.00 -0.00  1.00 -1.00  0.00 -0.00 -1.00  1.00 -0.00  0.00  0.00  0.00

 DIRECT LATTICE VECTORS CARTESIAN COMPONENTS (ANGSTROM)
          X                    Y                    Z
  -0.507900000000E+01   0.507900000000E+01   0.664700000000E+01
   0.507900000000E+01  -0.507900000000E+01   0.664700000000E+01
   0.507900000000E+01   0.507900000000E+01  -0.664700000000E+01


 CARTESIAN COORDINATES - PRIMITIVE CELL
 *******************************************************************************
 *      ATOM          X(ANGSTROM)         Y(ANGSTROM)         Z(ANGSTROM)
 *******************************************************************************
    1    17 CL    5.852023800000E-01  2.411204460000E+00 -4.830109020000E+00
    2    17 CL   -5.852023800000E-01 -2.411204460000E+00 -4.830109020000E+00
    3    17 CL    2.411204460000E+00 -5.852023800000E-01  4.830109020000E+00
    4    17 CL   -2.411204460000E+00  5.852023800000E-01  4.830109020000E+00
    5    17 CL   -2.446046400000E-01 -3.299419980000E+00  1.207494020000E+00
    6    17 CL    2.446046400000E-01  3.299419980000E+00  1.207494020000E+00
    7    17 CL   -3.299419980000E+00  2.446046400000E-01 -1.207494020000E+00
    8    17 CL    3.299419980000E+00 -2.446046400000E-01 -1.207494020000E+00
    9     1 H    -4.004080440000E+00 -1.972683600000E-01  1.821145060000E+00
   10     1 H     4.004080440000E+00  1.972683600000E-01  1.821145060000E+00
   11     1 H    -1.972683600000E-01  4.004080440000E+00 -1.821145060000E+00
   12     1 H     1.972683600000E-01 -4.004080440000E+00 -1.821145060000E+00
   13    17 CL   -1.604151360000E+00  5.799202200000E-01  1.648721880000E+00
   14    17 CL    1.604151360000E+00 -5.799202200000E-01  1.648721880000E+00
   15    17 CL    5.799202200000E-01  1.604151360000E+00 -1.648721880000E+00
   16    17 CL   -5.799202200000E-01 -1.604151360000E+00 -1.648721880000E+00
   17     6 C    -2.390685300000E+00 -3.189815160000E+00  1.549415700000E+00
   18     6 C     2.390685300000E+00  3.189815160000E+00  1.549415700000E+00
   19     6 C    -3.189815160000E+00  2.390685300000E+00 -1.549415700000E+00
   20     6 C     3.189815160000E+00 -2.390685300000E+00 -1.549415700000E+00
   21     6 C    -2.525278800000E+00 -4.640479140000E+00  1.635162000000E+00
   22     6 C     2.525278800000E+00  4.640479140000E+00  1.635162000000E+00
   23     6 C    -4.640479140000E+00  2.525278800000E+00 -1.635162000000E+00
   24     6 C     4.640479140000E+00 -2.525278800000E+00 -1.635162000000E+00
   25     6 C    -3.470277540000E+00 -2.299060140000E+00  1.692857960000E+00
   26     6 C     3.470277540000E+00  2.299060140000E+00  1.692857960000E+00
   27     6 C    -2.299060140000E+00  3.470277540000E+00 -1.692857960000E+00
   28     6 C     2.299060140000E+00 -3.470277540000E+00 -1.692857960000E+00
   29     6 C    -1.872220980000E+00 -4.815907800000E-01  1.600996420000E+00
   30     6 C     1.872220980000E+00  4.815907800000E-01  1.600996420000E+00
   31     6 C    -4.815907800000E-01  1.872220980000E+00 -1.600996420000E+00
   32     6 C     4.815907800000E-01 -1.872220980000E+00 -1.600996420000E+00
   33     6 C    -1.102854060000E+00 -2.644635300000E+00  1.388292420000E+00
   34     6 C     1.102854060000E+00  2.644635300000E+00  1.388292420000E+00
   35     6 C    -2.644635300000E+00  1.102854060000E+00 -1.388292420000E+00
   36     6 C     2.644635300000E+00 -1.102854060000E+00 -1.388292420000E+00
   37     6 C     3.199770000000E+00  9.285427800000E-01  1.704556680000E+00
   38     6 C    -3.199770000000E+00 -9.285427800000E-01  1.704556680000E+00
   39     6 C     9.285427800000E-01 -3.199770000000E+00 -1.704556680000E+00
   40     6 C    -9.285427800000E-01  3.199770000000E+00 -1.704556680000E+00
   41     7 N    -1.617458340000E+00  4.701427140000E+00  2.223953260000E+00
   42     7 N     1.617458340000E+00 -4.701427140000E+00  2.223953260000E+00
   43     7 N     4.701427140000E+00  1.617458340000E+00 -2.223953260000E+00
   44     7 N    -4.701427140000E+00 -1.617458340000E+00 -2.223953260000E+00
   45     7 N    -2.092141680000E+00  3.411564300000E+00  2.123982380000E+00
   46     7 N     2.092141680000E+00 -3.411564300000E+00  2.123982380000E+00
   47     7 N     3.411564300000E+00  2.092141680000E+00 -2.123982380000E+00
   48     7 N    -3.411564300000E+00 -2.092141680000E+00 -2.123982380000E+00
   49     7 N     1.542593880000E+00 -3.271891800000E-01 -5.471810400000E+00
   50     7 N    -1.542593880000E+00  3.271891800000E-01 -5.471810400000E+00
   51     7 N    -3.271891800000E-01 -1.542593880000E+00  5.471810400000E+00
   52     7 N     3.271891800000E-01  1.542593880000E+00  5.471810400000E+00
   53     7 N    -3.250356840000E+00  3.442241460000E+00  1.499829080000E+00
   54     7 N     3.250356840000E+00 -3.442241460000E+00  1.499829080000E+00
   55     7 N     3.442241460000E+00  3.250356840000E+00 -1.499829080000E+00
   56     7 N    -3.442241460000E+00 -3.250356840000E+00 -1.499829080000E+00
   57     7 N    -8.388476400000E-01 -1.333034340000E+00  1.434555540000E+00
   58     7 N     8.388476400000E-01  1.333034340000E+00  1.434555540000E+00
   59     7 N    -1.333034340000E+00  8.388476400000E-01 -1.434555540000E+00
   60     7 N     1.333034340000E+00 -8.388476400000E-01 -1.434555540000E+00
   61    30 ZN    4.700037766092E-16  5.079000000000E+00 -9.970500000000E+00
   62    30 ZN    0.000000000000E+00  0.000000000000E+00  6.647000000000E+00

 *******************************************************************************
 STARTING BASIS SET HANDLING 
 *******************************************************************************

 Loading internal basis set: POB-DZVPP           

 Please cite in your publication:
 Peintinger, M. F., Oliveira, D. V. and Bredow, T. (2013), Generally applicable 
 solid-state Gaussian basis sets, in preparation                                
                                                                                
                    

 *******************************************************************************
 LOCAL ATOMIC FUNCTIONS BASIS SET
 *******************************************************************************
   ATOM   X(AU)   Y(AU)   Z(AU)  N. TYPE  EXPONENT  S COEF   P COEF   D/F/G COEF
 *******************************************************************************
   1 CL   1.106   4.557  -9.128
                                  1 S  
                                         1.045E+04 1.971E-03 0.000E+00 0.000E+00
                                         1.572E+03 1.475E-02 0.000E+00 0.000E+00
                                         3.571E+02 6.668E-02 0.000E+00 0.000E+00
                                         1.003E+02 1.723E-01 0.000E+00 0.000E+00
                                         3.081E+01 1.588E-01 0.000E+00 0.000E+00
                                  2 S  
                                         5.192E+01-1.001E-01 0.000E+00 0.000E+00
                                         5.705E+00 6.084E-01 0.000E+00 0.000E+00
                                         2.351E+00 5.435E-01 0.000E+00 0.000E+00
                                  3 S  
                                         4.886E-01 1.000E+00 0.000E+00 0.000E+00
                                  4 S  
                                         1.984E-01 1.000E+00 0.000E+00 0.000E+00
                           5-     7 P  
                                         3.077E+02 0.000E+00-8.780E-03 0.000E+00
                                         7.210E+01 0.000E+00-6.356E-02 0.000E+00
                                         2.253E+01 0.000E+00-2.402E-01 0.000E+00
                                         7.899E+00 0.000E+00-4.780E-01 0.000E+00
                                         2.877E+00 0.000E+00-3.852E-01 0.000E+00
                           8-    10 P  
                                         9.483E-01 0.000E+00 1.000E+00 0.000E+00
                          11-    13 P  
                                         2.521E-01 0.000E+00 1.000E+00 0.000E+00
                          14-    18 D  
                                         9.722E-01 0.000E+00 0.000E+00 1.000E+00
                          19-    23 D  
                                         2.060E-01 0.000E+00 0.000E+00 1.000E+00
   2 CL  -1.106  -4.557  -9.128
   3 CL   4.557  -1.106   9.128
   4 CL  -4.557   1.106   9.128
   5 CL  -0.462  -6.235   2.282
   6 CL   0.462   6.235   2.282
   7 CL  -6.235   0.462  -2.282
   8 CL   6.235  -0.462  -2.282
   9 H   -7.567  -0.373   3.441
                                185 S  
                                         2.263E+01 1.441E-02 0.000E+00 0.000E+00
                                         3.236E+00 1.072E-01 0.000E+00 0.000E+00
                                         7.304E-01 3.846E-01 0.000E+00 0.000E+00
                                186 S  
                                         1.417E-01 1.000E+00 0.000E+00 0.000E+00
                         187-   189 P  
                                         3.944E-01 0.000E+00 1.000E+00 0.000E+00
                         190-   192 P  
                                         1.006E-01 0.000E+00 1.000E+00 0.000E+00
  10 H    7.567   0.373   3.441
  11 H   -0.373   7.567  -3.441
  12 H    0.373  -7.567  -3.441
  13 CL  -3.031   1.096   3.116
  14 CL   3.031  -1.096   3.116
  15 CL   1.096   3.031  -3.116
  16 CL  -1.096  -3.031  -3.116
  17 C   -4.518  -6.028   2.928
                                309 S  
                                         1.238E+03 5.457E-03 0.000E+00 0.000E+00
                                         1.863E+02 4.064E-02 0.000E+00 0.000E+00
                                         4.225E+01 1.803E-01 0.000E+00 0.000E+00
                                         1.168E+01 4.632E-01 0.000E+00 0.000E+00
                                         3.593E+00 4.409E-01 0.000E+00 0.000E+00
                                310 S  
                                         5.281E+00 1.000E+00 0.000E+00 0.000E+00
                                311 S  
                                         4.447E-01 1.000E+00 0.000E+00 0.000E+00
                         312-   314 P  
                                         9.468E+00 0.000E+00 3.839E-02 0.000E+00
                                         2.010E+00 0.000E+00 2.112E-01 0.000E+00
                                         5.477E-01 0.000E+00 5.133E-01 0.000E+00
                         315-   317 P  
                                         1.604E-01 0.000E+00 1.000E+00 0.000E+00
                         318-   322 D  
                                         6.070E-01 0.000E+00 0.000E+00 1.000E+00
                         323-   327 D  
                                         2.939E-01 0.000E+00 0.000E+00 1.000E+00
  18 C    4.518   6.028   2.928
  19 C   -6.028   4.518  -2.928
  20 C    6.028  -4.518  -2.928
  21 C   -4.772  -8.769   3.090
  22 C    4.772   8.769   3.090
  23 C   -8.769   4.772  -3.090
  24 C    8.769  -4.772  -3.090
  25 C   -6.558  -4.345   3.199
  26 C    6.558   4.345   3.199
  27 C   -4.345   6.558  -3.199
  28 C    4.345  -6.558  -3.199
  29 C   -3.538  -0.910   3.025
  30 C    3.538   0.910   3.025
  31 C   -0.910   3.538  -3.025
  32 C    0.910  -3.538  -3.025
  33 C   -2.084  -4.998   2.623
  34 C    2.084   4.998   2.623
  35 C   -4.998   2.084  -2.623
  36 C    4.998  -2.084  -2.623
  37 C    6.047   1.755   3.221
  38 C   -6.047  -1.755   3.221
  39 C    1.755  -6.047  -3.221
  40 C   -1.755   6.047  -3.221
  41 N   -3.057   8.884   4.203
                                765 S  
                                         1.713E+03-5.393E-03 0.000E+00 0.000E+00
                                         2.576E+02-4.022E-02 0.000E+00 0.000E+00
                                         5.846E+01-1.793E-01 0.000E+00 0.000E+00
                                         1.620E+01-4.638E-01 0.000E+00 0.000E+00
                                         5.005E+00-4.417E-01 0.000E+00 0.000E+00
                                766 S  
                                         6.217E-01 1.000E+00 0.000E+00 0.000E+00
                                767 S  
                                         2.921E-01 1.000E+00 0.000E+00 0.000E+00
                         768-   770 P  
                                         1.357E+01 0.000E+00-4.007E-02 0.000E+00
                                         2.926E+00 0.000E+00-2.181E-01 0.000E+00
                                         7.993E-01 0.000E+00-5.129E-01 0.000E+00
                         771-   773 P  
                                         2.244E-01 0.000E+00 1.000E+00 0.000E+00
                         774-   778 D  
                                         3.118E-01 0.000E+00 0.000E+00 1.000E+00
  42 N    3.057  -8.884   4.203
  43 N    8.884   3.057  -4.203
  44 N   -8.884  -3.057  -4.203
  45 N   -3.954   6.447   4.014
  46 N    3.954  -6.447   4.014
  47 N    6.447   3.954  -4.014
  48 N   -6.447  -3.954  -4.014
  49 N    2.915  -0.618 -10.340
  50 N   -2.915   0.618 -10.340
  51 N   -0.618  -2.915  10.340
  52 N    0.618   2.915  10.340
  53 N   -6.142   6.505   2.834
  54 N    6.142  -6.505   2.834
  55 N    6.505   6.142  -2.834
  56 N   -6.505  -6.142  -2.834
  57 N   -1.585  -2.519   2.711
  58 N    1.585   2.519   2.711
  59 N   -2.519   1.585  -2.711
  60 N    2.519  -1.585  -2.711
  61 ZN   0.000   9.598 -18.842
                               1045 S  
                                         8.200E+04 1.421E-03 0.000E+00 0.000E+00
                                         1.231E+04 1.089E-02 0.000E+00 0.000E+00
                                         2.801E+03 5.406E-02 0.000E+00 0.000E+00
                                         7.910E+02 1.885E-01 0.000E+00 0.000E+00
                                         2.576E+02 3.835E-01 0.000E+00 0.000E+00
                                         8.881E+01 2.972E-01 0.000E+00 0.000E+00
                               1046 S  
                                         1.719E+02-1.105E-01 0.000E+00 0.000E+00
                                         2.030E+01 6.461E-01 0.000E+00 0.000E+00
                                         8.346E+00 4.422E-01 0.000E+00 0.000E+00
                               1047 S  
                                         1.485E+01-2.271E-01 0.000E+00 0.000E+00
                                         2.450E+00 7.243E-01 0.000E+00 0.000E+00
                                         9.985E-01 4.484E-01 0.000E+00 0.000E+00
                               1048 S  
                                         1.493E+00 1.000E+00 0.000E+00 0.000E+00
                               1049 S  
                                         1.830E-01 1.000E+00 0.000E+00 0.000E+00
                        1050-  1052 P  
                                         1.072E+03 0.000E+00 9.277E-03 0.000E+00
                                         2.527E+02 0.000E+00 6.954E-02 0.000E+00
                                         8.010E+01 0.000E+00 2.716E-01 0.000E+00
                                         2.890E+01 0.000E+00 5.340E-01 0.000E+00
                                         1.077E+01 0.000E+00 3.450E-01 0.000E+00
                        1053-  1055 P  
                                         5.645E+00 0.000E+00 3.413E-01 0.000E+00
                                         2.168E+00 0.000E+00 5.639E-01 0.000E+00
                                         8.054E-01 0.000E+00 2.368E-01 0.000E+00
                        1056-  1058 P  
                                         2.721E-01 0.000E+00 1.000E+00 0.000E+00
                        1059-  1063 D  
                                         5.609E+01 0.000E+00 0.000E+00 2.959E-02
                                         1.575E+01 0.000E+00 0.000E+00 1.587E-01
                                         5.312E+00 0.000E+00 0.000E+00 3.798E-01
                                         1.774E+00 0.000E+00 0.000E+00 4.690E-01
                        1064-  1068 D  
                                         5.073E-01 0.000E+00 0.000E+00 1.000E+00
                        1069-  1075 F  
                                         2.814E+00 0.000E+00 0.000E+00 1.000E+00
                        1076-  1082 F  
                                         1.300E+00 0.000E+00 0.000E+00 1.000E+00
  62 ZN   0.000   0.000  12.561

 *******************************************************************************
 FINISHED BASIS SET HANDLING 
 *******************************************************************************

 INFORMATION **** SET_MPP **** PCRYSTAL CALCULATION
 INFORMATION **** READM2 **** NEW DEFAULT: FOCK/KS MATRIX MIXING SET TO 30 %
 INFORMATION **** READM2 **** NEW DEFAULT: FULL DIRECT SCF MODE
 INFORMATION **** READM2 **** NEW DEFAULT: COULOMB BIPOLAR BUFFER SET TO 32 Mb
 INFORMATION **** READM2 **** NEW DEFAULT: EXCHANGE BIPOLAR BUFFER SET TO 32 Mb

 *******************************************************************************
 NEW DEFAULT: DFT INTEGRATION GRID INCREASED TO XLGRID
 NEW DEFAULT: DIIS ACCELERATOR ACTIVE
 USE KEYWORD NODIIS TO TURN IT OFF
 *******************************************************************************

 INFORMATION **** DFTD3_INPUT **** PERFORM DISPERSION CORRECTION DFT-D3(BJ) IN THE BECKE-JOHNSON DAMPING SCHEME

 PLEASE CITE:
 (1) DFT-D3 Reference
  S. Grimme, J. Antony, S. Ehrlich, and H. Krieg, J. Chem. Phys. 132 (2010), 154104
 (2) BJ-Damping Reference
  S. Grimme, S. Ehrlich, and L. Goerigk, J. Comput. Chem. 32 (2011), 1456-1465
 (3) General DFT-D Review
  S. Grimme, A. Hansen, J. G. Brandenburg, and C. Bannwarth,
  Chem. Rev. 116 (2016), 5105-5154

 INFORMATION **** BIPOSIZE **** COULOMB BIPOLAR BUFFER SET TO    30000000
 INFORMATION **** EXCHSIZE **** EXCHANGE BIPOLAR BUFFER SIZE SET TO    30000000
 INFORMATION **** TOLINTEG **** COULOMB AND EXCHANGE SERIES TOLERANCES MODIFIED
 INFORMATION **** MAXCYCLE **** MAX NUMBER OF SCF CYCLES SET TO          50
 *******************************************************************************
 N. OF ATOMS PER CELL        62  COULOMB OVERLAP TOL         (T1) 10**  -12
 NUMBER OF SHELLS           436  COULOMB PENETRATION TOL     (T2) 10**  -12
 NUMBER OF AO              1120  EXCHANGE OVERLAP TOL        (T3) 10**   20
 N. OF ELECTRONS PER CELL   552  EXCHANGE PSEUDO OVP (F(G))  (T4) 10**   20
 CORE ELECTRONS PER CELL    244  EXCHANGE PSEUDO OVP (P(G))  (T5) 10**   20
 N. OF SYMMETRY OPERATORS     4  POLE ORDER IN MONO ZONE                  4
 *******************************************************************************
 TYPE OF CALCULATION :  RESTRICTED CLOSED SHELL
 KOHN-SHAM HAMILTONIAN

 (EXCHANGE)[CORRELATION] FUNCTIONAL:(PERDEW-BURKE-ERNZERHOF)[PERDEW-BURKE-ERNZERHOF]


 CAPPA:IS1  3;IS2  3;IS3  3; K PTS MONK NET   6; SYMMOPS:K SPACE   8;G SPACE   4

 *******************************************************************************
 MAX NUMBER OF SCF CYCLES      50  CONVERGENCE ON DELTAP        10**-16
 WEIGHT OF F(I) IN F(I+1)      30% CONVERGENCE ON ENERGY        10**- 7
 SHRINK. FACT.(MONKH.)    3  3  3  NUMBER OF K POINTS IN THE IBZ      6
 SHRINKING FACTOR(GILAT NET)    3  NUMBER OF K POINTS(GILAT NET)      6
 *******************************************************************************
 *** K POINTS COORDINATES (OBLIQUE COORDINATES IN UNITS OF IS =  3)
   1-R(  0  0  0)   2-C(  1  0  0)   3-C(  1  1  0)   4-C(  2  1  0)
   5-C(  2  1  1)   6-C(  2  2  1)

 DIRECT LATTICE VECTORS COMPON. (A.U.)     RECIP. LATTICE VECTORS COMPON. (A.U.) 
        X            Y            Z              X            Y            Z
   -9.5979190    9.5979190   12.5610096      0.0000000    0.3273202    0.2501067
    9.5979190   -9.5979190   12.5610096      0.3273202    0.0000000    0.2501067
    9.5979190    9.5979190  -12.5610096      0.3273202    0.3273202    0.0000000

 DISK SPACE FOR EIGENVECTORS (FTN 10)    13798400 REALS

 SYMMETRY ADAPTION OF THE BLOCH FUNCTIONS ENABLED
 TTTTTTTTTTTTTTTTTTTTTTTTTTTTTT gordsh1     TELAPSE        4.49 TCPU        0.04

 MATRIX SIZE: P(G) 2124216, F(G) 1063052, P(G) IRR  268518, F(G) IRR  268518
 MAX G-VECTOR INDEX FOR 1- AND 2-ELECTRON INTEGRALS  63

 TTTTTTTTTTTTTTTTTTTTTTTTTTTTTT INPUT       TELAPSE        4.53 TCPU        0.09

 NEIGHBORS OF THE NON-EQUIVALENT ATOMS

 N = NUMBER OF NEIGHBORS AT DISTANCE R
    ATOM  N     R/ANG      R/AU   NEIGHBORS (ATOM LABELS AND CELL INDICES)
   1 CL   1     1.0950     2.0692   25 C    0 0 1
   1 CL   1     2.1707     4.1021   38 C    0 0 1
   1 CL   1     2.1834     4.1260   17 C    0 0 1
   1 CL   1     2.5186     4.7595    9 H    0 0 1
   1 CL   1     2.5548     4.8279   54 N    0-1 0
   1 CL   1     2.7928     5.2776   21 C    0 0 1

   5 CL   1     1.0945     2.0684   33 C    0 0 0
   5 CL   1     2.0667     3.9055   57 N    0 0 0
   5 CL   1     2.1759     4.1119   17 C    0 0 0
   5 CL   1     2.5126     4.7480   46 N    0 0 0
   5 CL   1     2.5429     4.8053   42 N    0 0 0
   5 CL   1     2.6801     5.0646   21 C    0 0 0

   9 H    1     1.0933     2.0660   38 C    0 0 0
   9 H    1     2.1620     4.0855   29 C    0 0 0
   9 H    1     2.1723     4.1051   25 C    0 0 0
   9 H    1     2.1857     4.1305   10 H    0-1-1
   9 H    1     2.5186     4.7595    1 CL   0 0-1
   9 H    1     2.5285     4.7782   13 CL   0 0 0

  13 CL   1     1.0959     2.0709   29 C    0 0 0
  13 CL   1     2.0715     3.9145   57 N    0 0 0
  13 CL   1     2.1965     4.1508   38 C    0 0 0
  13 CL   1     2.5285     4.7782    9 H    0 0 0
  13 CL   1     2.5654     4.8479   58 N    0 0 0
  13 CL   1     2.9124     5.5037   45 N    0 0 0

  17 C    1     1.4070     2.6588   25 C    0 0 0
  17 C    1     1.4077     2.6602   33 C    0 0 0
  17 C    1     1.4594     2.7579   21 C    0 0 0
  17 C    1     2.1759     4.1119    5 CL   0 0 0
  17 C    1     2.1834     4.1260    1 CL   0 0-1
  17 C    1     2.4067     4.5479   38 C    0 0 0

  21 C    1     1.3492     2.5496   49 N    0 0-1
  21 C    1     1.3553     2.5611   41 N   -1 0-1
  21 C    1     1.4594     2.7579   17 C    0 0 0
  21 C    1     2.2025     4.1620   53 N   -1 0-1
  21 C    1     2.2049     4.1667   45 N   -1 0-1
  21 C    1     2.4633     4.6549   33 C    0 0 0

  25 C    1     1.0950     2.0692    1 CL   0 0-1
  25 C    1     1.3970     2.6400   38 C    0 0 0
  25 C    1     1.4070     2.6588   17 C    0 0 0
  25 C    1     2.1723     4.1051    9 H    0 0 0
  25 C    1     2.4118     4.5577   33 C    0 0 0
  25 C    1     2.4219     4.5767   29 C    0 0 0

  29 C    1     1.0959     2.0709   13 CL   0 0 0
  29 C    1     1.3493     2.5497   57 N    0 0 0
  29 C    1     1.4046     2.6543   38 C    0 0 0
  29 C    1     2.1620     4.0855    9 H    0 0 0
  29 C    1     2.3056     4.3570   33 C    0 0 0
  29 C    1     2.4219     4.5767   25 C    0 0 0

  33 C    1     1.0945     2.0684    5 CL   0 0 0
  33 C    1     1.3387     2.5298   57 N    0 0 0
  33 C    1     1.4077     2.6602   17 C    0 0 0
  33 C    1     2.3056     4.3570   29 C    0 0 0
  33 C    1     2.4118     4.5577   25 C    0 0 0
  33 C    1     2.4633     4.6549   21 C    0 0 0

  37 C    1     1.0933     2.0660   10 H    0 0 0
  37 C    1     1.3970     2.6400   26 C    0 0 0
  37 C    1     1.4046     2.6543   30 C    0 0 0
  37 C    1     2.1707     4.1021    2 CL   1 1 1
  37 C    1     2.1965     4.1508   14 CL   0 0 0
  37 C    1     2.4067     4.5479   18 C    0 0 0

  41 N    1     1.3553     2.5611   21 C    1 0 1
  41 N    1     1.3781     2.6042   45 N    0 0 0
  41 N    1     1.9919     3.7642   61 ZN   1 1 0
  41 N    1     2.1855     4.1299   53 N    0 0 0
  41 N    1     2.1874     4.1336   49 N    1 0 0
  41 N    1     2.4882     4.7020   17 C    1 0 1

  45 N    1     1.3160     2.4870   53 N    0 0 0
  45 N    1     1.3781     2.6042   41 N    0 0 0
  45 N    1     2.1869     4.1326   49 N    1 0 0
  45 N    1     2.2049     4.1667   21 C    1 0 1
  45 N    1     2.5126     4.7480    6 CL   0 0 0
  45 N    1     2.9124     5.5037   13 CL   0 0 0

  49 N    1     1.3492     2.5496   21 C    0 0 1
  49 N    1     1.3792     2.6063   53 N   -1 0 0
  49 N    1     1.9667     3.7164   62 ZN  -1-1 0
  49 N    1     2.1869     4.1326   45 N   -1 0 0
  49 N    1     2.1874     4.1336   41 N   -1 0 0
  49 N    1     2.5229     4.7676   17 C    0 0 1

  53 N    1     1.3160     2.4870   45 N    0 0 0
  53 N    1     1.3792     2.6063   49 N    1 0 0
  53 N    1     2.1855     4.1299   41 N    0 0 0
  53 N    1     2.2025     4.1620   21 C    1 0 1
  53 N    1     2.5548     4.8279    2 CL   1 0 0
  53 N    1     2.8762     5.4352   62 ZN   0-1 0

  57 N    1     1.3387     2.5298   33 C    0 0 0
  57 N    1     1.3493     2.5497   29 C    0 0 0
  57 N    1     2.0667     3.9055    5 CL   0 0 0
  57 N    1     2.0715     3.9145   13 CL   0 0 0
  57 N    1     2.4105     4.5552   38 C    0 0 0
  57 N    1     2.4226     4.5781   17 C    0 0 0

  61 ZN   4     1.9919     3.7642   41 N   -1-1 0   42 N    0-1 1   43 N    0-1 0
                                    44 N    0 0 1
  61 ZN   4     2.7756     5.2452    5 CL   0-1 1    6 CL  -1-1 0    7 CL   0 0 1
                                     8 CL   0-1 0
  61 ZN   4     2.9319     5.5406   45 N   -1-1 0   46 N    0-1 1   47 N    0-1 0
                                    48 N    0 0 1
  61 ZN   4     3.0692     5.7999   21 C    0-1 1   22 C   -1-1 0   23 C    0 0 1
                                    24 C    0-1 0
  61 ZN   4     3.2996     6.2354   33 C    0-1 1   34 C   -1-1 0   35 C    0 0 1
                                    36 C    0-1 0
  61 ZN   4     3.5259     6.6629   17 C    0-1 1   18 C   -1-1 0   19 C    0 0 1
                                    20 C    0-1 0

  62 ZN   4     1.9667     3.7164   49 N    1 1 0   50 N    1 1 0   51 N    0 0 0
                                    52 N    0 0 0
  62 ZN   4     2.8762     5.4352   53 N    0 1 0   54 N    1 0 0   55 N    0 0-1
                                    56 N    1 1 1
  62 ZN   4     3.0639     5.7900   21 C    1 1 1   22 C    0 0-1   23 C    0 1 0
                                    24 C    1 0 0
  62 ZN   4     3.0753     5.8115    1 CL   1 1 0    2 CL   1 1 0    3 CL   0 0 0
                                     4 CL   0 0 0
  62 ZN   4     3.6307     6.8610   25 C    1 1 1   26 C    0 0-1   27 C    0 1 0
                                    28 C    1 0 0
  62 ZN   4     3.6327     6.8649   17 C    1 1 1   18 C    0 0-1   19 C    0 1 0
                                    20 C    1 0 0


 SYMMETRY ALLOWED ELASTIC DISTORTION 1
  0.5773503  0.0000000  0.0000000
  0.0000000  0.5773503  0.0000000
  0.0000000  0.0000000  0.5773503

 SYMMETRY ALLOWED ELASTIC DISTORTION 2
  0.4082483  0.0000000  0.0000000
  0.0000000  0.4082483  0.0000000
  0.0000000  0.0000000 -0.8164966

 SYMMETRY ALLOWED INTERNAL DEGREE(S) OF FREEDOM:  45
 TTTTTTTTTTTTTTTTTTTTTTTTTTTTTT SYMM        TELAPSE        4.56 TCPU        0.12
 TTTTTTTTTTTTTTTTTTTTTTTTTTTTTT INT_SCREEN  TELAPSE        4.57 TCPU        0.12

 *******************************************************************************
 *                             OPTIMIZATION STARTS                             *
 *******************************************************************************
 RECLASIFICATION OF INDICES FOR INTEGRAL CALC ACCORDING TO DIFFERENT CRITERIA:
           FIXDELTE                  FIXDELTX              FIXDELTN
          0.10000000               0.80000000                 47
 DEFAULT MAX NUM OF POINTS  100
 *******************************************************************************

 *******************************************************************************
 COORDINATE AND CELL OPTIMIZATION - POINT    1
 INFORMATION **** EXCBUF **** EXCH. BIPO BUFFER: WORDS USED =           0

 DFT PARAMETERS

     ATOM       ELECTRONS   NET CHARGE   R(ANGSTROM)
   1  17  CL     17.0000      0.0000     0.99000000
   9   1  H       1.0000      0.0000     1.11000000
  17   6  C       6.0000      0.0000     0.77000000
  41   7  N       7.0000      0.0000     0.74000000
  61  30  ZN     30.0000      0.0000     1.37000000

 SIZE OF GRID=     458015
 TTTTTTTTTTTTTTTTTTTTTTTTTTTTTT MAKE_GRID2  TELAPSE        6.00 TCPU        1.55
 BECKE WEIGHT FUNCTION
 RADSAFE =     2.00
 TOLERANCES - DENSITY:10**- 6; POTENTIAL:10**- 9; GRID WGT:10**-14

 RADIAL INTEGRATION  - INTERVALS (POINTS,UPPER LIMIT):            1( 75,  4.0*R)

 ANGULAR INTEGRATION - INTERVALS (ACCURACY LEVEL [N. POINTS] UPPER LIMIT):
  1(  4[  86]   0.2)  2(  8[ 194]   0.5)  3( 12[ 350]   0.9)  4( 16[ 974]   3.5)
  5( 12[ 350]9999.0)
 TTTTTTTTTTTTTTTTTTTTTTTTTTTTTT INT_CALC    TELAPSE        6.06 TCPU        1.60

 *******************************************************************************
 C:\Users\wilso\AppData\Local\Temp\tmp_p\newconn.mol                             
 CRYSTAL - SCF - TYPE OF CALCULATION :  RESTRICTED CLOSED SHELL
 *******************************************************************************

 CAPPA:IS1  3;IS2  3;IS3  3; K PTS MONK NET   6; SYMMOPS:K SPACE   8;G SPACE   4

 TTTTTTTTTTTTTTTTTTTTTTTTTTTTTT SDIK        TELAPSE        6.28 TCPU        1.83

 AAAAAAAAAAAAAAAAAAAAAAAAAAAAAAAAAAAAAAAAAAAAAAAAAAAAAAAAAAAAAAAAAAAAAAAAAAAAAAA
         ATOMIC WAVEFUNCTION(S)


 NUCLEAR CHARGE 17.0  SYMMETRY SPECIES            S    P
 N. ELECTRONS   17.0  NUMBER OF PRIMITIVE GTOS   10    7
                      NUMBER OF CONTRACTED GTOS   4    3
                      NUMBER OF CLOSED SHELLS     3    1
                      OPEN SHELL OCCUPATION       0    5

  ZNUC SCFIT  TOTAL HF ENERGY   KINETIC ENERGY   VIRIAL THEOREM ACCURACY
  17.0   9   -4.593005957E+02  4.593991532E+02 -1.999785464E+00  2.3E-06

 NUCLEAR CHARGE  1.0  SYMMETRY SPECIES            S
 N. ELECTRONS    1.0  NUMBER OF PRIMITIVE GTOS    4
                      NUMBER OF CONTRACTED GTOS   2
                      NUMBER OF CLOSED SHELLS     0
                      OPEN SHELL OCCUPATION       1

  ZNUC SCFIT  TOTAL HF ENERGY   KINETIC ENERGY   VIRIAL THEOREM ACCURACY
   1.0   1   -4.946643675E-01  4.917913167E-01 -2.005842012E+00  9.4E-17

 NUCLEAR CHARGE  6.0  SYMMETRY SPECIES            S    P
 N. ELECTRONS    6.0  NUMBER OF PRIMITIVE GTOS    7    4
                      NUMBER OF CONTRACTED GTOS   3    2
                      NUMBER OF CLOSED SHELLS     2    0
                      OPEN SHELL OCCUPATION       0    2

  ZNUC SCFIT  TOTAL HF ENERGY   KINETIC ENERGY   VIRIAL THEOREM ACCURACY
   6.0   6   -3.750912652E+01  3.905246519E+01 -1.960480378E+00  3.7E-06

 NUCLEAR CHARGE  7.0  SYMMETRY SPECIES            S    P
 N. ELECTRONS    7.0  NUMBER OF PRIMITIVE GTOS    7    4
                      NUMBER OF CONTRACTED GTOS   3    2
                      NUMBER OF CLOSED SHELLS     2    0
                      OPEN SHELL OCCUPATION       0    3

  ZNUC SCFIT  TOTAL HF ENERGY   KINETIC ENERGY   VIRIAL THEOREM ACCURACY
   7.0   9   -5.432196661E+01  5.425066284E+01 -2.001314339E+00  1.2E-06

 NUCLEAR CHARGE 30.0  SYMMETRY SPECIES            S    P    D
 N. ELECTRONS   30.0  NUMBER OF PRIMITIVE GTOS   14    9    5
                      NUMBER OF CONTRACTED GTOS   5    3    2
                      NUMBER OF CLOSED SHELLS     4    2    1
                      OPEN SHELL OCCUPATION       0    0    0

  ZNUC SCFIT  TOTAL HF ENERGY   KINETIC ENERGY   VIRIAL THEOREM ACCURACY
  30.0  10   -1.777404290E+03  1.777325716E+03 -2.000044209E+00  2.5E-06

 AAAAAAAAAAAAAAAAAAAAAAAAAAAAAAAAAAAAAAAAAAAAAAAAAAAAAAAAAAAAAAAAAAAAAAAAAAAAAAA

 CHARGE NORMALIZATION FACTOR   1.00000000
 TOTAL ATOMIC CHARGES:
  17.0000000  17.0000000  17.0000000  17.0000000  17.0000000  17.0000000
  17.0000000  17.0000000   1.0000000   1.0000000   1.0000000   1.0000000
  17.0000000  17.0000000  17.0000000  17.0000000   6.0000000   6.0000000
   6.0000000   6.0000000   6.0000000   6.0000000   6.0000000   6.0000000
   6.0000000   6.0000000   6.0000000   6.0000000   6.0000000   6.0000000
   6.0000000   6.0000000   6.0000000   6.0000000   6.0000000   6.0000000
   6.0000000   6.0000000   6.0000000   6.0000000   7.0000000   7.0000000
   7.0000000   7.0000000   7.0000000   7.0000000   7.0000000   7.0000000
   7.0000000   7.0000000   7.0000000   7.0000000   7.0000000   7.0000000
   7.0000000   7.0000000   7.0000000   7.0000000   7.0000000   7.0000000
  30.0000000  30.0000000
 TTTTTTTTTTTTTTTTTTTTTTTTTTTTTT MOQGAD      TELAPSE        8.50 TCPU        4.03
 TTTTTTTTTTTTTTTTTTTTTTTTTTTTTT SHELLXN     TELAPSE       98.02 TCPU       88.87
 TTTTTTTTTTTTTTTTTTTTTTTTTTTTTT MONMO3      TELAPSE      105.55 TCPU       96.39
 NUMERICALLY INTEGRATED DENSITY    551.9998225599
 TTTTTTTTTTTTTTTTTTTTTTTTTTTTTT NUMDFT      TELAPSE      108.27 TCPU       99.11
 CYC   0 ETOT(AU) -1.110364012412E+04 DETOT -1.11E+04 tst  0.00E+00 PX  1.00E+00
 TTTTTTTTTTTTTTTTTTTTTTTTTTTTTT DIIS        TELAPSE      108.38 TCPU       99.21
 TTTTTTTTTTTTTTTTTTTTTTTTTTTTTT FDIK        TELAPSE      156.45 TCPU      144.74
 INSULATING STATE
 TOP OF VALENCE BANDS -    BAND    276; K    1; EIG -1.3102765E-01 AU
 BOTTOM OF VIRTUAL BANDS - BAND    277; K    1; EIG -9.1470190E-02 AU
 DIRECT ENERGY BAND GAP:   1.0764 eV
 TTTTTTTTTTTTTTTTTTTTTTTTTTTTTT PDIG        TELAPSE      157.39 TCPU      145.68
 CHARGE NORMALIZATION FACTOR   1.00000000
 TOTAL ATOMIC CHARGES:
  16.7661613  16.7661613  16.7661613  16.7661613  16.6763642  16.6763642
  16.6763642  16.6763642   1.1317476   1.1317476   1.1317476   1.1317476
  16.5861456  16.5861456  16.5861456  16.5861456   6.2470503   6.2470503
   6.2470503   6.2470503   5.5595130   5.5595130   5.5595130   5.5595130
   6.1771240   6.1771240   6.1771240   6.1771240   5.9970128   5.9970128
   5.9970128   5.9970128   6.0405151   6.0405151   6.0405151   6.0405151
   6.2971608   6.2971608   6.2971608   6.2971608   7.3835147   7.3835147
   7.3835147   7.3835147   7.1978788   7.1978788   7.1978788   7.1978788
   7.4123441   7.4123441   7.4123441   7.4123441   7.1378446   7.1378446
   7.1378446   7.1378446   7.5665878   7.5665878   7.5665878   7.5665878
  27.5519659  27.7401749
 TTTTTTTTTTTTTTTTTTTTTTTTTTTTTT MOQGAD      TELAPSE      157.44 TCPU      145.73
 TTTTTTTTTTTTTTTTTTTTTTTTTTTTTT SHELLXN     TELAPSE      260.29 TCPU      245.82
 TTTTTTTTTTTTTTTTTTTTTTTTTTTTTT MONMO3      TELAPSE      267.79 TCPU      253.30
 NUMERICALLY INTEGRATED DENSITY    551.9998724674
 TTTTTTTTTTTTTTTTTTTTTTTTTTTTTT NUMDFT      TELAPSE      275.35 TCPU      260.84
 CYC   1 ETOT(AU) -1.107392899424E+04 DETOT  2.97E+01 tst  0.00E+00 PX  1.00E+00
 TTTTTTTTTTTTTTTTTTTTTTTTTTTTTT DIIS        TELAPSE      275.69 TCPU      261.18
 DIIS TEST: 0.19442E+02 AT SCF   CYCLE   1 - MIX   30 %
 TTTTTTTTTTTTTTTTTTTTTTTTTTTTTT FDIK        TELAPSE      295.47 TCPU      278.23
 INSULATING STATE
 TOP OF VALENCE BANDS -    BAND    276; K    1; EIG -7.2475668E-02 AU
 BOTTOM OF VIRTUAL BANDS - BAND    277; K    3; EIG -7.0110892E-02 AU
 INDIRECT ENERGY BAND GAP:   0.0643 eV
 BOTTOM OF VIRTUAL BANDS - BAND    277; K    1; EIG -6.0020485E-02 AU
 TTTTTTTTTTTTTTTTTTTTTTTTTTTTTT PDIG        TELAPSE      296.41 TCPU      279.17
 CHARGE NORMALIZATION FACTOR   1.00000000
 TOTAL ATOMIC CHARGES:
  17.4237987  17.4237987  17.4237987  17.4237987  17.5400271  17.5400271
  17.5400271  17.5400271   1.2650109   1.2650109   1.2650109   1.2650109
  16.6664025  16.6664025  16.6664025  16.6664025   6.2456491   6.2456491
   6.2456491   6.2456491   6.7142114   6.7142114   6.7142114   6.7142114
   5.8094017   5.8094017   5.8094017   5.8094017   5.7336954   5.7336954
   5.7336954   5.7336954   5.8348229   5.8348229   5.8348229   5.8348229
   5.7662681   5.7662681   5.7662681   5.7662681   7.6329689   7.6329689
   7.6329689   7.6329689   7.0777020   7.0777020   7.0777020   7.0777020
   7.3337239   7.3337239   7.3337239   7.3337239   6.9292904   6.9292904
   6.9292904   6.9292904   4.5286049   4.5286049   4.5286049   4.5286049
  31.7120906  30.2815975
 TTTTTTTTTTTTTTTTTTTTTTTTTTTTTT MOQGAD      TELAPSE      296.47 TCPU      279.22
 TTTTTTTTTTTTTTTTTTTTTTTTTTTTTT SHELLXN     TELAPSE      397.82 TCPU      378.88
 TTTTTTTTTTTTTTTTTTTTTTTTTTTTTT MONMO3      TELAPSE      405.82 TCPU      386.85
 NUMERICALLY INTEGRATED DENSITY    551.9998165775
 TTTTTTTTTTTTTTTTTTTTTTTTTTTTTT NUMDFT      TELAPSE      413.43 TCPU      394.45
 CYC   2 ETOT(AU) -1.105725775637E+04 DETOT  1.67E+01 tst  1.44E-01 PX  3.78E+00
 TTTTTTTTTTTTTTTTTTTTTTTTTTTTTT DIIS        TELAPSE      413.69 TCPU      394.71
 DIIS TEST: 0.12276E+03 AT SCF   CYCLE   2 - DIIS ACTIVE - HISTORY:     2 CYCLES
 TTTTTTTTTTTTTTTTTTTTTTTTTTTTTT FDIK        TELAPSE      432.22 TCPU      411.02
 INSULATING STATE
 TOP OF VALENCE BANDS -    BAND    276; K    6; EIG -1.2099614E-01 AU
 TOP OF VALENCE BANDS -    BAND    276; K    1; EIG -1.2181882E-01 AU
 BOTTOM OF VIRTUAL BANDS - BAND    277; K    4; EIG -8.6169215E-02 AU
 INDIRECT ENERGY BAND GAP:   0.9477 eV
 BOTTOM OF VIRTUAL BANDS - BAND    277; K    1; EIG -8.4097561E-02 AU
 TTTTTTTTTTTTTTTTTTTTTTTTTTTTTT PDIG        TELAPSE      433.16 TCPU      411.96
 CHARGE NORMALIZATION FACTOR   1.00000000
 TOTAL ATOMIC CHARGES:
  17.0673118  17.0673118  17.0673118  17.0673118  16.9977450  16.9977450
  16.9977450  16.9977450   1.1446145   1.1446145   1.1446145   1.1446145
  17.3982210  17.3982210  17.3982210  17.3982210   5.9784931   5.9784931
   5.9784931   5.9784931   6.2133748   6.2133748   6.2133748   6.2133748
   5.6219988   5.6219988   5.6219988   5.6219988   6.0453974   6.0453974
   6.0453974   6.0453974   5.7087081   5.7087081   5.7087081   5.7087081
   5.9462534   5.9462534   5.9462534   5.9462534   6.3894763   6.3894763
   6.3894763   6.3894763   7.0570055   7.0570055   7.0570055   7.0570055
   6.7173893   6.7173893   6.7173893   6.7173893   7.0245521   7.0245521
   7.0245521   7.0245521   7.6860982   7.6860982   7.6860982   7.6860982
  30.0026210  30.0108221
 TTTTTTTTTTTTTTTTTTTTTTTTTTTTTT MOQGAD      TELAPSE      433.22 TCPU      412.02
 TTTTTTTTTTTTTTTTTTTTTTTTTTTTTT SHELLXN     TELAPSE      535.83 TCPU      512.07
 TTTTTTTTTTTTTTTTTTTTTTTTTTTTTT MONMO3      TELAPSE      543.59 TCPU      519.81
 NUMERICALLY INTEGRATED DENSITY    551.9998333678
 TTTTTTTTTTTTTTTTTTTTTTTTTTTTTT NUMDFT      TELAPSE      551.30 TCPU      527.48
 CYC   3 ETOT(AU) -1.107300470184E+04 DETOT -1.57E+01 tst  3.66E-01 PX  2.99E+00
 TTTTTTTTTTTTTTTTTTTTTTTTTTTTTT DIIS        TELAPSE      551.93 TCPU      528.11
 DIIS TEST: 0.21508E+02 AT SCF   CYCLE   3 - DIIS ACTIVE - HISTORY:     3 CYCLES
 TTTTTTTTTTTTTTTTTTTTTTTTTTTTTT FDIK        TELAPSE      570.70 TCPU      542.23
 INSULATING STATE
 TOP OF VALENCE BANDS -    BAND    276; K    5; EIG -1.4402070E-01 AU
 TOP OF VALENCE BANDS -    BAND    276; K    1; EIG -1.4442491E-01 AU
 BOTTOM OF VIRTUAL BANDS - BAND    277; K    6; EIG -7.5259270E-02 AU
 INDIRECT ENERGY BAND GAP:   1.8711 eV
 BOTTOM OF VIRTUAL BANDS - BAND    277; K    1; EIG -7.2810210E-02 AU
 TTTTTTTTTTTTTTTTTTTTTTTTTTTTTT PDIG        TELAPSE      571.64 TCPU      543.16
 CHARGE NORMALIZATION FACTOR   1.00000000
 TOTAL ATOMIC CHARGES:
  17.0189881  17.0189881  17.0189881  17.0189881  16.9380976  16.9380976
  16.9380976  16.9380976   1.1555380   1.1555380   1.1555380   1.1555380
  16.6785880  16.6785880  16.6785880  16.6785880   6.3912782   6.3912782
   6.3912782   6.3912782   5.7999762   5.7999762   5.7999762   5.7999762
   5.9571357   5.9571357   5.9571357   5.9571357   5.7104902   5.7104902
   5.7104902   5.7104902   5.8254536   5.8254536   5.8254536   5.8254536
   6.4372302   6.4372302   6.4372302   6.4372302   7.3668302   7.3668302
   7.3668302   7.3668302   7.0665491   7.0665491   7.0665491   7.0665491
   7.2017081   7.2017081   7.2017081   7.2017081   6.9740598   6.9740598
   6.9740598   6.9740598   7.0747115   7.0747115   7.0747115   7.0747115
  28.7785717  28.8348907
 TTTTTTTTTTTTTTTTTTTTTTTTTTTTTT MOQGAD      TELAPSE      571.70 TCPU      543.22
 TTTTTTTTTTTTTTTTTTTTTTTTTTTTTT SHELLXN     TELAPSE      672.47 TCPU      643.22
 TTTTTTTTTTTTTTTTTTTTTTTTTTTTTT MONMO3      TELAPSE      679.84 TCPU      650.56
 NUMERICALLY INTEGRATED DENSITY    551.9998598683
 TTTTTTTTTTTTTTTTTTTTTTTTTTTTTT NUMDFT      TELAPSE      687.59 TCPU      658.28
 CYC   4 ETOT(AU) -1.107658356538E+04 DETOT -3.58E+00 tst  5.96E-02 PX  7.62E-01
 TTTTTTTTTTTTTTTTTTTTTTTTTTTTTT DIIS        TELAPSE      687.82 TCPU      658.52
 DIIS TEST: 0.26590E+01 AT SCF   CYCLE   4 - DIIS ACTIVE - HISTORY:     4 CYCLES
 TTTTTTTTTTTTTTTTTTTTTTTTTTTTTT FDIK        TELAPSE      705.49 TCPU      673.45
 INSULATING STATE
 TOP OF VALENCE BANDS -    BAND    276; K    1; EIG -1.4383527E-01 AU
 BOTTOM OF VIRTUAL BANDS - BAND    277; K    4; EIG -9.3670906E-02 AU
 INDIRECT ENERGY BAND GAP:   1.3650 eV
 BOTTOM OF VIRTUAL BANDS - BAND    277; K    1; EIG -9.2497014E-02 AU
 TTTTTTTTTTTTTTTTTTTTTTTTTTTTTT PDIG        TELAPSE      706.44 TCPU      674.40
 CHARGE NORMALIZATION FACTOR   1.00000000
 TOTAL ATOMIC CHARGES:
  17.0805994  17.0805994  17.0805994  17.0805994  16.9941703  16.9941703
  16.9941703  16.9941703   1.1532872   1.1532872   1.1532872   1.1532872
  16.8696475  16.8696475  16.8696475  16.8696475   6.1231147   6.1231147
   6.1231147   6.1231147   5.8804811   5.8804811   5.8804811   5.8804811
   5.9471968   5.9471968   5.9471968   5.9471968   5.9484216   5.9484216
   5.9484216   5.9484216   5.9014148   5.9014148   5.9014148   5.9014148
   5.8538809   5.8538809   5.8538809   5.8538809   7.1986062   7.1986062
   7.1986062   7.1986062   7.1240771   7.1240771   7.1240771   7.1240771
   7.2839357   7.2839357   7.2839357   7.2839357   7.1078189   7.1078189
   7.1078189   7.1078189   7.1085341   7.1085341   7.1085341   7.1085341
  28.8696523  28.8296016
 TTTTTTTTTTTTTTTTTTTTTTTTTTTTTT MOQGAD      TELAPSE      706.50 TCPU      674.46
 TTTTTTTTTTTTTTTTTTTTTTTTTTTTTT SHELLXN     TELAPSE      807.30 TCPU      774.59
 TTTTTTTTTTTTTTTTTTTTTTTTTTTTTT MONMO3      TELAPSE      814.81 TCPU      782.08
 NUMERICALLY INTEGRATED DENSITY    551.9998505541
 TTTTTTTTTTTTTTTTTTTTTTTTTTTTTT NUMDFT      TELAPSE      822.66 TCPU      789.89
 CYC   5 ETOT(AU) -1.107676330486E+04 DETOT -1.80E-01 tst  2.61E-03 PX  1.83E-01
 TTTTTTTTTTTTTTTTTTTTTTTTTTTTTT DIIS        TELAPSE      822.97 TCPU      790.20
 DIIS TEST: 0.13165E+01 AT SCF   CYCLE   5 - DIIS ACTIVE - HISTORY:     5 CYCLES
 TTTTTTTTTTTTTTTTTTTTTTTTTTTTTT FDIK        TELAPSE      838.61 TCPU      803.91
 INSULATING STATE
 TOP OF VALENCE BANDS -    BAND    276; K    1; EIG -1.5942170E-01 AU
 BOTTOM OF VIRTUAL BANDS - BAND    277; K    1; EIG -8.0110993E-02 AU
 DIRECT ENERGY BAND GAP:   2.1582 eV
 TTTTTTTTTTTTTTTTTTTTTTTTTTTTTT PDIG        TELAPSE      839.55 TCPU      804.85
 CHARGE NORMALIZATION FACTOR   1.00000000
 TOTAL ATOMIC CHARGES:
  16.9849286  16.9849286  16.9849286  16.9849286  16.9571440  16.9571440
  16.9571440  16.9571440   1.1372381   1.1372381   1.1372381   1.1372381
  16.8048819  16.8048819  16.8048819  16.8048819   6.2239536   6.2239536
   6.2239536   6.2239536   5.9301119   5.9301119   5.9301119   5.9301119
   5.9494015   5.9494015   5.9494015   5.9494015   5.9047987   5.9047987
   5.9047987   5.9047987   5.8661969   5.8661969   5.8661969   5.8661969
   6.2412274   6.2412274   6.2412274   6.2412274   7.1670586   7.1670586
   7.1670586   7.1670586   7.1333973   7.1333973   7.1333973   7.1333973
   7.1036595   7.1036595   7.1036595   7.1036595   7.0264502   7.0264502
   7.0264502   7.0264502   7.1014009   7.1014009   7.1014009   7.1014009
  28.9526178  28.9199866
 TTTTTTTTTTTTTTTTTTTTTTTTTTTTTT MOQGAD      TELAPSE      839.61 TCPU      804.90
 TTTTTTTTTTTTTTTTTTTTTTTTTTTTTT SHELLXN     TELAPSE      942.53 TCPU      904.96
 TTTTTTTTTTTTTTTTTTTTTTTTTTTTTT MONMO3      TELAPSE      954.44 TCPU      916.84
 NUMERICALLY INTEGRATED DENSITY    551.9998554206
 TTTTTTTTTTTTTTTTTTTTTTTTTTTTTT NUMDFT      TELAPSE      962.19 TCPU      924.57
 CYC   6 ETOT(AU) -1.107696054347E+04 DETOT -1.97E-01 tst  1.55E-03 PX  1.25E-01
 TTTTTTTTTTTTTTTTTTTTTTTTTTTTTT DIIS        TELAPSE      962.43 TCPU      924.81
 DIIS TEST: 0.14094E+00 AT SCF   CYCLE   6 - DIIS ACTIVE - HISTORY:     6 CYCLES
 TTTTTTTTTTTTTTTTTTTTTTTTTTTTTT FDIK        TELAPSE      978.34 TCPU      939.33
 INSULATING STATE
 TOP OF VALENCE BANDS -    BAND    276; K    1; EIG -1.5499075E-01 AU
 BOTTOM OF VIRTUAL BANDS - BAND    277; K    1; EIG -7.6869621E-02 AU
 DIRECT ENERGY BAND GAP:   2.1258 eV
 TTTTTTTTTTTTTTTTTTTTTTTTTTTTTT PDIG        TELAPSE      979.30 TCPU      940.29
 CHARGE NORMALIZATION FACTOR   1.00000000
 TOTAL ATOMIC CHARGES:
  17.0406762  17.0406762  17.0406762  17.0406762  16.9444924  16.9444924
  16.9444924  16.9444924   1.1440185   1.1440185   1.1440185   1.1440185
  16.8370463  16.8370463  16.8370463  16.8370463   6.2557764   6.2557764
   6.2557764   6.2557764   5.9007390   5.9007390   5.9007390   5.9007390
   5.9310576   5.9310576   5.9310576   5.9310576   5.8414652   5.8414652
   5.8414652   5.8414652   5.8346015   5.8346015   5.8346015   5.8346015
   6.1878769   6.1878769   6.1878769   6.1878769   7.1581532   7.1581532
   7.1581532   7.1581532   7.0440244   7.0440244   7.0440244   7.0440244
   7.2083995   7.2083995   7.2083995   7.2083995   7.0471172   7.0471172
   7.0471172   7.0471172   7.1589201   7.1589201   7.1589201   7.1589201
  28.9249300  28.9376129
 TTTTTTTTTTTTTTTTTTTTTTTTTTTTTT MOQGAD      TELAPSE      979.35 TCPU      940.34
 TTTTTTTTTTTTTTTTTTTTTTTTTTTTTT SHELLXN     TELAPSE     1082.08 TCPU     1040.35
 TTTTTTTTTTTTTTTTTTTTTTTTTTTTTT MONMO3      TELAPSE     1093.94 TCPU     1052.17
 NUMERICALLY INTEGRATED DENSITY    551.9998541958
 TTTTTTTTTTTTTTTTTTTTTTTTTTTTTT NUMDFT      TELAPSE     1101.80 TCPU     1060.01
[...]
  61 ZN   4     2.8893     5.4601   45 N   -1-1 0   46 N    0-1 1   47 N    0-1 0
                                    48 N    0 0 1
  61 ZN   4     3.0154     5.6982    5 CL   0-1 1    6 CL  -1-1 0    7 CL   0 0 1
                                     8 CL   0-1 0
  61 ZN   4     3.3708     6.3698   21 C    0-1 1   22 C   -1-1 0   23 C    0 0 1
                                    24 C    0-1 0
  61 ZN   4     3.7807     7.1445   33 C    0-1 1   34 C   -1-1 0   35 C    0 0 1
                                    36 C    0-1 0
  61 ZN   4     3.9521     7.4684   17 C    0-1 1   18 C   -1-1 0   19 C    0 0 1
                                    20 C    0-1 0

  62 ZN   4     2.0943     3.9576   49 N    1 1 0   50 N    1 1 0   51 N    0 0 0
                                    52 N    0 0 0
  62 ZN   4     2.8449     5.3761   53 N    0 1 0   54 N    1 0 0   55 N    0 0-1
                                    56 N    1 1 1
  62 ZN   4     3.2179     6.0809    1 CL   1 1 0    2 CL   1 1 0    3 CL   0 0 0
                                     4 CL   0 0 0
  62 ZN   4     3.3074     6.2500   21 C    1 1 1   22 C    0 0-1   23 C    0 1 0
                                    24 C    1 0 0
  62 ZN   4     3.9819     7.5248   17 C    1 1 1   18 C    0 0-1   19 C    0 1 0
                                    20 C    1 0 0
  62 ZN   4     4.0646     7.6810   45 N    0 1 0   46 N    1 0 0   47 N    0 0-1
                                    48 N    1 1 1


 FINAL OPTIMIZED GEOMETRY - DIMENSIONALITY OF THE SYSTEM      3
 (NON PERIODIC DIRECTION: LATTICE PARAMETER FORMALLY SET TO 500)
 *******************************************************************************
 LATTICE PARAMETERS (ANGSTROMS AND DEGREES) - BOHR = 0.5291772083 ANGSTROM
 PRIMITIVE CELL - CENTRING CODE 6/0 VOLUME=   815.914769 - DENSITY  2.279 g/cm^3
         A              B              C           ALPHA      BETA       GAMMA 
    10.28219393    10.28219393    10.28219393   115.021115 115.021115  98.864344
 *******************************************************************************
 ATOMS IN THE ASYMMETRIC UNIT   17 - ATOMS IN THE UNIT CELL:   62
     ATOM                 X/A                 Y/B                 Z/C    
 *******************************************************************************
      1 T  17 CL   -1.247031468947E-01 -3.589856758263E-01  2.531165196521E-01
      2 F  17 CL    3.878978045216E-01 -3.778196665467E-01 -2.531165196521E-01
      3 F  17 CL    3.589856758263E-01 -3.878978045216E-01  2.342825289316E-01
      4 F  17 CL    3.778196665467E-01  1.247031468947E-01 -2.342825289316E-01
      5 T  17 CL   -2.501358487561E-01  6.761257729763E-02 -3.349081642445E-01
      6 F  17 CL    4.025207415421E-01  8.477231548842E-02  3.349081642445E-01
      7 F  17 CL   -6.761257729763E-02 -4.025207415421E-01 -3.177484260537E-01
      8 F  17 CL   -8.477231548842E-02  2.501358487561E-01  3.177484260537E-01
      9 T   1 H     1.279412024552E-01 -2.477334217959E-01 -4.164600639129E-01
     10 F   1 H     1.687266421170E-01 -4.555987336319E-01  4.164600639129E-01
     11 F   1 H     2.477334217959E-01 -1.687266421170E-01  3.756746242511E-01
     12 F   1 H     4.555987336319E-01 -1.279412024552E-01 -3.756746242511E-01
     13 T  17 CL    2.506293896376E-01 -3.691991751514E-02 -6.596457038484E-02
     14 F  17 CL    2.904465286970E-02  3.165939600224E-01  6.596457038484E-02
     15 F  17 CL    3.691991751514E-02 -2.904465286970E-02  2.875493071527E-01
     16 F  17 CL   -3.165939600224E-01 -2.506293896376E-01 -2.875493071527E-01
     17 T   6 C    -1.695589718711E-01 -1.239204974489E-01  4.629682702148E-01
     18 F   6 C     4.131112323363E-01  3.674727579141E-01 -4.629682702148E-01
     19 F   6 C     1.239204974489E-01 -4.131112323363E-01 -4.563847442224E-02
     20 F   6 C    -3.674727579141E-01  1.695589718711E-01  4.563847442224E-02
     21 T   6 C    -2.936764489351E-01 -1.272743139178E-01  3.200870426907E-01
     22 F   6 C    -4.473613566085E-01  3.862365083742E-01 -3.200870426907E-01
     23 F   6 C     1.272743139178E-01  4.473613566085E-01 -1.664021350173E-01
     24 F   6 C    -3.862365083742E-01  2.936764489351E-01  1.664021350173E-01
     25 T   6 C    -7.584539169819E-02 -2.099750648914E-01  4.496225162878E-01
     26 F   6 C     3.404024188208E-01  4.745320920140E-01 -4.496225162878E-01
     27 F   6 C     2.099750648914E-01 -3.404024188208E-01  1.341296731932E-01
     28 F   6 C    -4.745320920140E-01  7.584539169819E-02 -1.341296731932E-01
     29 T   6 C     8.798360872566E-02 -7.087311438301E-02 -2.462955618694E-01
     30 F   6 C     1.754224474864E-01  3.342791705950E-01  2.462955618694E-01
     31 F   6 C     7.087311438301E-02 -1.754224474864E-01  1.588567231087E-01
     32 F   6 C    -3.342791705950E-01 -8.798360872566E-02 -1.588567231087E-01
     33 T   6 C    -1.275780581190E-01 -2.437060524092E-02 -3.675179957131E-01
     34 F   6 C     3.431473904722E-01  2.399399375941E-01  3.675179957131E-01
     35 F   6 C     2.437060524092E-02 -3.431473904722E-01 -1.032074528781E-01
     36 F   6 C    -2.399399375941E-01  1.275780581190E-01  1.032074528781E-01
     37 T   6 C     2.244753514909E-01  4.619789507087E-01  4.060214889258E-01
     38 F   6 C     5.595746178286E-02 -1.815461374348E-01 -4.060214889258E-01
     39 F   6 C    -4.619789507087E-01 -5.595746178286E-02 -2.375035992177E-01
     40 F   6 C     1.815461374348E-01 -2.244753514909E-01  2.375035992177E-01
     41 T   7 N    -3.159234804889E-01  3.933318287330E-03  3.301523214405E-01
     42 F   7 N    -3.262190031532E-01  3.539241980706E-01 -3.301523214405E-01
     43 F   7 N    -3.933318287330E-03  3.262190031532E-01 -3.198567987762E-01
     44 F   7 N    -3.539241980706E-01  3.159234804889E-01  3.198567987762E-01
     45 T   7 N    -4.412484067180E-01 -4.599571687930E-02  1.727164046679E-01
     46 F   7 N    -2.187121215472E-01  3.860351886141E-01 -1.727164046679E-01
     47 F   7 N     4.599571687930E-02  2.187121215472E-01 -3.952526898387E-01
     48 F   7 N    -3.860351886141E-01  4.412484067180E-01  3.952526898387E-01
     49 T   7 N    -4.040365381748E-01 -2.547995890167E-01  1.593231310289E-01
     50 F   7 N    -4.141227200455E-01  4.366403307963E-01 -1.593231310289E-01
     51 F   7 N     2.547995890167E-01  4.141227200455E-01 -1.492369491582E-01
     52 F   7 N    -4.366403307963E-01  4.040365381748E-01  1.492369491582E-01
     53 T   7 N    -4.950726009119E-01 -1.991935848062E-01  7.253996957058E-02
     54 F   7 N    -2.717335543768E-01  4.323874295175E-01 -7.253996957058E-02
     55 F   7 N     1.991935848062E-01  2.717335543768E-01 -2.958790161057E-01
     56 F   7 N    -4.323874295175E-01  4.950726009119E-01  2.958790161057E-01
     57 T   7 N    -4.637977075456E-03  2.650802356490E-03 -2.279717575989E-01
     58 F   7 N     2.306225599554E-01  2.233337805234E-01  2.279717575989E-01
     59 F   7 N    -2.650802356490E-03 -2.306225599554E-01 -7.288779431946E-03
     60 F   7 N    -2.233337805234E-01  4.637977075456E-03  7.288779431946E-03
     61 T  30 ZN   -2.500000000000E-01  2.500000000000E-01  5.000000000000E-01
     62 T  30 ZN   -5.000000000000E-01 -5.000000000000E-01  1.305173529442E-18

 TRANSFORMATION MATRIX PRIMITIVE-CRYSTALLOGRAPHIC CELL
  0.0000  1.0000  1.0000  1.0000  0.0000  1.0000  1.0000  1.0000  0.0000

 *******************************************************************************
 CRYSTALLOGRAPHIC CELL (VOLUME=       1631.82953707)
         A              B              C           ALPHA      BETA       GAMMA 
    11.04604154    11.04604154    13.37400391    90.000000  90.000000  90.000000

 COORDINATES IN THE CRYSTALLOGRAPHIC CELL
     ATOM                 X/A                 Y/B                 Z/C    
 *******************************************************************************
      1 T  17 CL    9.416995360209E-03  2.436995242919E-01 -3.684026711865E-01
      2 F  17 CL   -9.416995360208E-03 -2.436995242919E-01 -3.684026711865E-01
      3 F  17 CL    2.436995242919E-01 -9.416995360209E-03  3.684026711865E-01
      4 F  17 CL   -2.436995242919E-01  9.416995360209E-03  3.684026711865E-01
      5 T  17 CL   -8.579869095394E-03 -3.263282951491E-01  7.619244639302E-02
      6 F  17 CL    8.579869095394E-03  3.263282951491E-01  7.619244639302E-02
      7 F  17 CL   -3.263282951491E-01  8.579869095394E-03 -7.619244639302E-02
      8 F  17 CL    3.263282951491E-01 -8.579869095394E-03 -7.619244639302E-02
      9 T   1 H    -3.960673440820E-01 -2.039271983090E-02  1.483339222861E-01
     10 F   1 H     3.960673440820E-01  2.039271983090E-02  1.483339222861E-01
     11 F   1 H    -2.039271983090E-02  3.960673440820E-01 -1.483339222861E-01
     12 F   1 H     2.039271983090E-02 -3.960673440820E-01 -1.483339222861E-01
     13 T  17 CL   -1.767569387688E-01  1.107923683839E-01  1.398370212536E-01
     14 F  17 CL    1.767569387688E-01 -1.107923683839E-01  1.398370212536E-01
     15 F  17 CL    1.107923683839E-01  1.767569387688E-01 -1.398370212536E-01
     16 F  17 CL   -1.107923683839E-01 -1.767569387688E-01 -1.398370212536E-01
     17 T   6 C    -2.456966276815E-01 -2.913351021037E-01  1.217761302326E-01
     18 F   6 C     2.456966276815E-01  2.913351021037E-01  1.217761302326E-01
     19 F   6 C    -2.913351021037E-01  2.456966276815E-01 -1.217761302326E-01
     20 F   6 C     2.913351021037E-01 -2.456966276815E-01 -1.217761302326E-01
     21 T   6 C    -2.567554111460E-01 -4.231575461633E-01  1.294810972282E-01
     22 F   6 C     2.567554111460E-01  4.231575461633E-01  1.294810972282E-01
     23 F   6 C    -4.231575461633E-01  2.567554111460E-01 -1.294810972282E-01
     24 F   6 C     4.231575461633E-01 -2.567554111460E-01 -1.294810972282E-01
     25 T   6 C    -3.422535784527E-01 -2.081239052595E-01  1.322785135613E-01
     26 F   6 C     3.422535784527E-01  2.081239052595E-01  1.322785135613E-01
     27 F   6 C    -2.081239052595E-01  3.422535784527E-01 -1.322785135613E-01
     28 F   6 C     2.081239052595E-01 -3.422535784527E-01 -1.322785135613E-01
     29 T   6 C    -2.025761424890E-01 -4.371941938037E-02  1.317030281060E-01
     30 F   6 C     2.025761424890E-01  4.371941938037E-02  1.317030281060E-01
     31 F   6 C    -4.371941938037E-02  2.025761424890E-01 -1.317030281060E-01
     32 F   6 C     4.371941938037E-02 -2.025761424890E-01 -1.317030281060E-01
     33 T   6 C    -1.321552714175E-01 -2.353627242956E-01  1.077846661766E-01
     34 F   6 C     1.321552714175E-01  2.353627242956E-01  1.077846661766E-01
     35 F   6 C    -2.353627242956E-01  1.321552714175E-01 -1.077846661766E-01
     36 F   6 C     2.353627242956E-01 -1.321552714175E-01 -1.077846661766E-01
     37 T   6 C     3.217625440717E-01  8.425894485404E-02  1.402164066369E-01
     38 F   6 C    -3.217625440717E-01 -8.425894485404E-02  1.402164066369E-01
     39 F   6 C     8.425894485404E-02 -3.217625440717E-01 -1.402164066369E-01
     40 F   6 C    -8.425894485404E-02  3.217625440717E-01 -1.402164066369E-01
     41 T   7 N    -1.749954398916E-01 -4.948522386679E-01  1.789287581790E-01
     42 F   7 N     1.749954398916E-01  4.948522386679E-01  1.789287581790E-01
     43 F   7 N    -4.948522386679E-01  1.749954398916E-01 -1.789287581790E-01
     44 F   7 N     4.948522386679E-01 -1.749954398916E-01 -1.789287581790E-01
     45 T   7 N    -2.160154527467E-01  3.887318574146E-01  1.700197358674E-01
     46 F   7 N     2.160154527467E-01 -3.887318574146E-01  1.700197358674E-01
     47 F   7 N     3.887318574146E-01  2.160154527467E-01 -1.700197358674E-01
     48 F   7 N    -3.887318574146E-01 -2.160154527467E-01 -1.700197358674E-01
     49 T   7 N     1.542800400935E-01  5.043090935344E-03 -4.090796291102E-01
     50 F   7 N    -1.542800400935E-01 -5.043090935344E-03 -4.090796291102E-01
     51 F   7 N     5.043090935344E-03 -1.542800400935E-01  4.090796291102E-01
     52 F   7 N    -5.043090935344E-03  1.542800400935E-01  4.090796291102E-01
     53 T   7 N    -3.157905071619E-01  3.883304767324E-01  1.165969223556E-01
     54 F   7 N     3.157905071619E-01 -3.883304767324E-01  1.165969223556E-01
     55 F   7 N     3.883304767324E-01  3.157905071619E-01 -1.165969223556E-01
     56 F   7 N    -3.883304767324E-01 -3.157905071619E-01 -1.165969223556E-01
     57 T   7 N    -1.103414890835E-01 -1.176302685154E-01  1.129922914399E-01
     58 F   7 N     1.103414890835E-01  1.176302685154E-01  1.129922914399E-01
     59 F   7 N    -1.176302685154E-01  1.103414890835E-01 -1.129922914399E-01
     60 F   7 N     1.176302685154E-01 -1.103414890835E-01 -1.129922914399E-01
     61 T  30 ZN    4.626932236752E-17  5.000000000000E-01  2.500000000000E-01
     62 T  30 ZN    0.000000000000E+00  1.305173529442E-18 -5.000000000000E-01

 T = ATOM BELONGING TO THE ASYMMETRIC UNIT
 INFORMATION **** fort.34 **** GEOMETRY OUTPUT FILE

 DIRECT LATTICE VECTORS CARTESIAN COMPONENTS (ANGSTROM)
          X                    Y                    Z
  -0.552302076924E+01   0.552302076924E+01   0.668700195373E+01
   0.552302076924E+01  -0.552302076924E+01   0.668700195373E+01
   0.552302076924E+01   0.552302076924E+01  -0.668700195373E+01


 CARTESIAN COORDINATES - PRIMITIVE CELL
 *******************************************************************************
 *      ATOM          X(ANGSTROM)         Y(ANGSTROM)         Z(ANGSTROM)
 *******************************************************************************
    1    17 CL    1.040205219165E-01  2.691915068236E+00 -4.927018763969E+00
    2    17 CL   -1.040205219165E-01 -2.691915068236E+00 -4.927018763969E+00
    3    17 CL    2.691915068236E+00 -1.040205219165E-01  4.927018763969E+00
    4    17 CL   -2.691915068236E+00  1.040205219165E-01  4.927018763969E+00
    5    17 CL   -9.477359042245E-02 -3.604635903399E+00  1.018998075780E+00
    6    17 CL    9.477359042244E-02  3.604635903399E+00  1.018998075780E+00
    7    17 CL   -3.604635903399E+00  9.477359042245E-02 -1.018998075780E+00
    8    17 CL    3.604635903399E+00 -9.477359042245E-02 -1.018998075780E+00
    9     1 H    -4.374976334765E+00 -2.252588303348E-01  1.983818456264E+00
   10     1 H     4.374976334765E+00  2.252588303348E-01  1.983818456264E+00
   11     1 H    -2.252588303348E-01  4.374976334765E+00 -1.983818456264E+00
   12     1 H     2.252588303348E-01 -4.374976334765E+00 -1.983818456264E+00
   13    17 CL   -1.952464487854E+00  1.223817103315E+00  1.870180868654E+00
   14    17 CL    1.952464487854E+00 -1.223817103315E+00  1.870180868654E+00
   15    17 CL    1.223817103315E+00  1.952464487854E+00 -1.870180868654E+00
   16    17 CL   -1.223817103315E+00 -1.952464487854E+00 -1.870180868654E+00
   17     6 C    -2.713975155234E+00 -3.218099639455E+00  1.628634441567E+00
   18     6 C     2.713975155234E+00  3.218099639455E+00  1.628634441567E+00
   19     6 C    -3.218099639455E+00  2.713975155234E+00 -1.628634441567E+00
   20     6 C     3.218099639455E+00 -2.713975155234E+00 -1.628634441567E+00
   21     6 C    -2.836130936749E+00 -4.674215832241E+00  1.731680700273E+00
   22     6 C     2.836130936749E+00  4.674215832241E+00  1.731680700273E+00
   23     6 C    -4.674215832241E+00  2.836130936749E+00 -1.731680700273E+00
   24     6 C     4.674215832241E+00 -2.836130936749E+00 -1.731680700273E+00
   25     6 C    -3.780547244282E+00 -2.298945302647E+00  1.769093357243E+00
   26     6 C     3.780547244282E+00  2.298945302647E+00  1.769093357243E+00
   27     6 C    -2.298945302647E+00  3.780547244282E+00 -1.769093357243E+00
   28     6 C     2.298945302647E+00 -3.780547244282E+00 -1.769093357243E+00
   29     6 C    -2.237664484639E+00 -4.829265225138E-01  1.761396812515E+00
   30     6 C     2.237664484639E+00  4.829265225138E-01  1.761396812515E+00
   31     6 C    -4.829265225138E-01  2.237664484639E+00 -1.761396812515E+00
   32     6 C     4.829265225138E-01 -2.237664484639E+00 -1.761396812515E+00
   33     6 C    -1.459792617607E+00 -2.599826429179E+00  1.441512546610E+00
   34     6 C     1.459792617607E+00  2.599826429179E+00  1.441512546610E+00
   35     6 C    -2.599826429179E+00  1.459792617607E+00 -1.441512546610E+00
   36     6 C     2.599826429179E+00 -1.459792617607E+00 -1.441512546610E+00
   37     6 C     3.554202427344E+00  9.307278048463E-01  1.875254770253E+00
   38     6 C    -3.554202427344E+00 -9.307278048463E-01  1.875254770253E+00
   39     6 C     9.307278048463E-01 -3.554202427344E+00 -1.875254770253E+00
   40     6 C    -9.307278048463E-01  3.554202427344E+00 -1.875254770253E+00
   41     7 N    -1.933006898088E+00  5.579883154745E+00  2.392993911043E+00
   42     7 N     1.933006898088E+00 -5.579883154745E+00  2.392993911043E+00
   43     7 N     5.579883154745E+00  1.933006898088E+00 -2.392993911043E+00
   44     7 N    -5.579883154745E+00 -1.933006898088E+00 -2.392993911043E+00
   45     7 N    -2.386115663994E+00  4.293948244332E+00  2.273844611837E+00
   46     7 N     2.386115663994E+00 -4.293948244332E+00  2.273844611837E+00
   47     7 N     4.293948244332E+00  2.386115663994E+00 -2.273844611837E+00
   48     7 N    -4.293948244332E+00 -2.386115663994E+00 -2.273844611837E+00
   49     7 N     1.704183731431E+00  5.570619195414E-02 -5.471032558184E+00
   50     7 N    -1.704183731431E+00 -5.570619195415E-02 -5.471032558184E+00
   51     7 N     5.570619195414E-02 -1.704183731431E+00  5.471032558184E+00
   52     7 N    -5.570619195415E-02  1.704183731431E+00  5.471032558184E+00
   53     7 N    -3.488235059568E+00  4.289514576644E+00  1.559367695183E+00
   54     7 N     3.488235059568E+00 -4.289514576644E+00  1.559367695183E+00
   55     7 N     4.289514576644E+00  3.488235059568E+00 -1.559367695183E+00
   56     7 N    -4.289514576644E+00 -3.488235059568E+00 -1.559367695183E+00
   57     7 N    -1.218836671834E+00 -1.299348832204E+00  1.511159347231E+00
   58     7 N     1.218836671834E+00  1.299348832204E+00  1.511159347231E+00
   59     7 N    -1.299348832204E+00  1.218836671834E+00 -1.511159347231E+00
   60     7 N     1.299348832204E+00 -1.218836671834E+00 -1.511159347231E+00
   61    30 ZN    5.110928568289E-16  5.523020769240E+00 -1.003050293060E+01
   62    30 ZN    0.000000000000E+00  1.441700102115E-17  6.687001953733E+00

 ****    4 SYMMOPS - TRANSLATORS IN FRACTIONAL UNITS
 **** MATRICES AND TRANSLATORS IN THE CRYSTALLOGRAPHIC REFERENCE FRAME
   V INV                    ROTATION MATRICES                   TRANSLATORS
   1   1  1.00  0.00  0.00  0.00  1.00  0.00  0.00  0.00  1.00  0.00  0.00  0.00
   2   2 -0.00  1.00 -1.00  1.00  0.00 -1.00 -0.00  0.00 -1.00  0.00  0.00  0.00
   3   4  0.00 -1.00  0.00  0.00 -1.00  1.00  1.00 -1.00  0.00  0.00  0.00  0.00
   4   3 -1.00  0.00  1.00 -1.00  0.00 -0.00 -1.00  1.00 -0.00  0.00  0.00  0.00
 TTTTTTTTTTTTTTTTTTTTTTTTTTTTTT END         TELAPSE   126217.65 TCPU   122496.44
 EEEEEEEEEE TERMINATION  DATE 21 11 2023 TIME 10:42:00.1
NODE    0 CPU TIME =    122496.444
NODE    1 CPU TIME =    123666.279
NODE    2 CPU TIME =    123200.148
NODE    3 CPU TIME =    122745.130
NODE    4 CPU TIME =    123520.977
NODE    5 CPU TIME =    123373.967
NODE    6 CPU TIME =    123070.305
NODE    7 CPU TIME =    122765.953
NODE    8 CPU TIME =    123314.106
NODE    9 CPU TIME =    123443.215
NODE   10 CPU TIME =    122839.353
NODE   11 CPU TIME =    122463.372
NODE   12 CPU TIME =    123082.345
NODE   13 CPU TIME =    123192.413
NODE   14 CPU TIME =    122827.116
NODE   15 CPU TIME =    122651.326
NODE   16 CPU TIME =    122881.123
NODE   17 CPU TIME =    122990.334
NODE   18 CPU TIME =    122479.563
NODE   19 CPU TIME =    122367.963
NODE   20 CPU TIME =    122743.151
NODE   21 CPU TIME =    122861.078
NODE   22 CPU TIME =    122498.584
NODE   23 CPU TIME =    122324.582
    TOTAL CPU TIME =   2949798.826
trying normal rsh (/usr/bin/rsh)
exec: No such file or directory
trying normal rsh (/usr/bin/rsh)
exec: No such file or directory
trying normal rsh (/usr/bin/rsh)
exec: No such file or directory
trying normal rsh (/usr/bin/rsh)
exec: No such file or directory
