Loading crystal17/1.0.2/intel/19.0
  Loading requirement: intel/19.0 ompi/4.0.1/intel/19.0
 PROCESS            4  OF           24  WORKING
 PROCESS            5  OF           24  WORKING
 PROCESS            8  OF           24  WORKING
 PROCESS            9  OF           24  WORKING
 PROCESS           11  OF           24  WORKING
 PROCESS           13  OF           24  WORKING
 PROCESS           15  OF           24  WORKING
 PROCESS           16  OF           24  WORKING
 PROCESS           17  OF           24  WORKING
 PROCESS           20  OF           24  WORKING
 PROCESS           22  OF           24  WORKING
 PROCESS           23  OF           24  WORKING
 PROCESS            0  OF           24  WORKING
 PROCESS            1  OF           24  WORKING
 PROCESS            2  OF           24  WORKING
 PROCESS            3  OF           24  WORKING
 PROCESS            6  OF           24  WORKING
 PROCESS           10  OF           24  WORKING
 PROCESS           12  OF           24  WORKING
 PROCESS           14  OF           24  WORKING
 PROCESS           18  OF           24  WORKING
 PROCESS           19  OF           24  WORKING
 PROCESS           21  OF           24  WORKING
 PROCESS            7  OF           24  WORKING

         
 *******************************************************************************
 *                                                                             *
 *                               CRYSTAL17                                     *
 *                      public : 1.0.2 - March 1st, 2018                       *
 *                       HTTP://WWW.CRYSTAL.UNITO.IT                           *
 *                                                                             *
 *                              MAIN AUTHORS                                   *
 *                                                                             *
 *  R. DOVESI(1,11), V.R. SAUNDERS(2), C. ROETTI(1,11), R. ORLANDO(1,11),      *
 *  C.M. ZICOVICH-WILSON(1,3), F. PASCALE(4), B. CIVALLERI(1,11),              *
 *  K. DOLL(5), N.M. HARRISON(2,6), I.J. BUSH(7), Ph. D'ARCO(8),               *
 *  M. LLUNELL(9), M. CAUSA'(10), Y. NOEL(8), L. MASCHIO(1,11), A. ERBA(1,11)  *
 *  M. RE'RAT(14), S. CASASSA(1,11)                                            *
 *                                                                             *
 *        CONTRIBUTIONS TO THE CODE HAVE ALSO BEEN GIVEN BY                    *
 *                                                                             *
 *  M. FERRABONE(1,11), M. DE LA PIERRE(1,11), M. FERRERO(1,11),               *
 *  J. BAIMA(1,11), E. ALBANESE(1,11), M.F. PEINTINGER(12), R. BAST(13),       *
 *  B. KIRTMAN(15), V. LACIVITA(1,11), R. DEMICHELIS(1,16)                     *
 *  G. BRANDEBURG(17), S. SALUSTRO(1,11), G. SANSONE(1,11)                     *
 *  M.T. RUGGIERO(18)                                                          *
 *                                                                             *
 * (1) THEORETICAL CHEMISTRY GROUP - UNIVERSITA' DI TORINO - TORINO (ITALY)    *
 * (2) COMPUTATIONAL SCIENCE & ENGINEERING DEPARTMENT - STFC DARESBURY (UK)    *
 * (3) UNIVERSIDAD AUTONOMA DEL ESTADO DE MORELOS - CUERNAVACA (MEXICO)        *
 * (4) UNIVERSITE' DE LORRAINE - NANCY (FRANCE)                                *
 * (5) UNIVERSITAET STUTTGART- STUTTGART (GERMANY)                             *
 * (6) IMPERIAL COLLEGE - LONDON (UK)                                          *
 * (7) OXFORD E-RESEARCH CENTRE - OXFORD (UK)                                  *
 * (8) UPMC - SORBONNE UNIVERSITES - PARIS (FRANCE)                            *
 * (9) UNIVERSIDAD DE BARCELONA - BARCELONA (SPAIN)                            *
 *(10) UNIVERSITA' DI NAPOLI "FEDERICO II" - NAPOLI (ITALY)                    *
 *(11) NIS - NANOSTRUCTURED INTERFACES AND SURFACES - TORINO (ITALY)           *
 *(12) MPI FUER CHEMISCHE ENERGIEKONVERSION - MUELHEIM AN DER RUHR (GERMANY)   *
 *(13) UNIVERSITY OF TROMSO - TROMSO (NORWAY)                                  *
 *(14) UNIVERSITE' DE PAU ET DES PAYS DE L'ADOUR - PAU (FRANCE)                *
 *(15) UNIVERSITY OF CALIFORNIA SANTA BARBARA - SANTA BARBARA (USA)            *
 *(16) CURTIN UNIVERSITY - PERTH (AUSTRALIA)                                   *
 *(17) UNIVERSITY COLLEGE LONDON - LONDON (UK)                                 *
 *(18) CAMBRIDGE UNIVERSITY - CAMBRIDGE (UK)                                   *
 *                                                                             *
 *******************************************************************************
 EEEEEEEEEE STARTING  DATE 20 11 2023 TIME 05:48:47.1
 C:\Users\wilso\AppData\Local\Temp\tmp_p\newconn.mol                             

 CRYSTAL CALCULATION
 (INPUT ACCORDING TO THE INTERNATIONAL TABLES FOR X-RAY CRYSTALLOGRAPHY)
 CRYSTAL FAMILY                       :  TETRAGONAL  
 CRYSTAL CLASS  (GROTH - 1921)        :  TETRAGONAL DISPHENOIDAL              

 SPACE GROUP (NONCENTROSYMMETRIC)     :  I -4            

 LATTICE PARAMETERS  (ANGSTROMS AND DEGREES) - CONVENTIONAL CELL
        A           B           C        ALPHA        BETA       GAMMA
    10.15800    10.15800    13.29400    90.00000    90.00000    90.00000


 NUMBER OF IRREDUCIBLE ATOMS IN THE CONVENTIONAL CELL:  124

 INPUT COORDINATES

 ATOM AT. N.              COORDINATES
   1   1     5.576100000000E-01  7.373700000000E-01  1.366700000000E-01
   2   1     4.423900000000E-01  2.626300000000E-01  1.366700000000E-01
   3   1     7.373700000000E-01  4.423900000000E-01  8.633300000000E-01
   4   1     2.626300000000E-01  5.576100000000E-01  8.633300000000E-01
   5   1     5.761000000000E-02  2.373700000000E-01  6.366700000000E-01
   6   1     9.423900000000E-01  7.626300000000E-01  6.366700000000E-01
   7   1     2.373700000000E-01  9.423900000000E-01  3.633300000000E-01
   8   1     7.626300000000E-01  5.761000000000E-02  3.633300000000E-01
   9  17     9.759200000000E-01  6.751900000000E-01  9.083000000000E-02
  10  17     2.408000000000E-02  3.248100000000E-01  9.083000000000E-02
  11  17     6.751900000000E-01  2.408000000000E-02  9.091700000000E-01
  12  17     3.248100000000E-01  9.759200000000E-01  9.091700000000E-01
  13  17     4.759200000000E-01  1.751900000000E-01  5.908300000000E-01
  14  17     5.240800000000E-01  8.248100000000E-01  5.908300000000E-01
  15  17     1.751900000000E-01  5.240800000000E-01  4.091700000000E-01
  16  17     8.248100000000E-01  4.759200000000E-01  4.091700000000E-01
  17  17     6.058200000000E-01  9.805800000000E-01  1.369900000000E-01
  18  17     3.941800000000E-01  1.942000000000E-02  1.369900000000E-01
  19  17     9.805800000000E-01  3.941800000000E-01  8.630100000000E-01
  20  17     1.942000000000E-02  6.058200000000E-01  8.630100000000E-01
  21  17     1.058200000000E-01  4.805800000000E-01  6.369900000000E-01
  22  17     8.941800000000E-01  5.194200000000E-01  6.369900000000E-01
  23  17     4.805800000000E-01  8.941800000000E-01  3.630100000000E-01
  24  17     5.194200000000E-01  1.058200000000E-01  3.630100000000E-01
  25  17     8.420800000000E-01  5.709000000000E-02  1.240200000000E-01
  26  17     1.579200000000E-01  9.429100000000E-01  1.240200000000E-01
  27  17     5.709000000000E-02  1.579200000000E-01  8.759800000000E-01
  28  17     9.429100000000E-01  8.420800000000E-01  8.759800000000E-01
  29  17     3.420800000000E-01  5.570900000000E-01  6.240200000000E-01
  30  17     6.579200000000E-01  4.429100000000E-01  6.240200000000E-01
  31  17     5.570900000000E-01  6.579200000000E-01  3.759800000000E-01
  32  17     4.429100000000E-01  3.420800000000E-01  3.759800000000E-01
  33   6     2.646500000000E-01  1.859800000000E-01  6.165500000000E-01
  34   6     7.353500000000E-01  8.140200000000E-01  6.165500000000E-01
  35   6     1.859800000000E-01  7.353500000000E-01  3.834500000000E-01
  36   6     8.140200000000E-01  2.646500000000E-01  3.834500000000E-01
  37   6     7.646500000000E-01  6.859800000000E-01  1.165500000000E-01
  38   6     2.353500000000E-01  3.140200000000E-01  1.165500000000E-01
  39   6     6.859800000000E-01  2.353500000000E-01  8.834500000000E-01
  40   6     3.140200000000E-01  7.646500000000E-01  8.834500000000E-01
  41   6     2.514000000000E-01  4.317000000000E-02  6.230000000000E-01
  42   6     7.486000000000E-01  9.568300000000E-01  6.230000000000E-01
  43   6     4.317000000000E-02  7.486000000000E-01  3.770000000000E-01
  44   6     9.568300000000E-01  2.514000000000E-01  3.770000000000E-01
  45   6     7.514000000000E-01  5.431700000000E-01  1.230000000000E-01
  46   6     2.486000000000E-01  4.568300000000E-01  1.230000000000E-01
  47   6     5.431700000000E-01  2.486000000000E-01  8.770000000000E-01
  48   6     4.568300000000E-01  7.514000000000E-01  8.770000000000E-01
  49   6     6.583700000000E-01  7.736700000000E-01  1.273400000000E-01
  50   6     3.416300000000E-01  2.263300000000E-01  1.273400000000E-01
  51   6     7.736700000000E-01  3.416300000000E-01  8.726600000000E-01
  52   6     2.263300000000E-01  6.583700000000E-01  8.726600000000E-01
  53   6     1.583700000000E-01  2.736700000000E-01  6.273400000000E-01
  54   6     8.416300000000E-01  7.263300000000E-01  6.273400000000E-01
  55   6     2.736700000000E-01  8.416300000000E-01  3.726600000000E-01
  56   6     7.263300000000E-01  1.583700000000E-01  3.726600000000E-01
  57   6     8.156900000000E-01  9.525900000000E-01  1.204300000000E-01
  58   6     1.843100000000E-01  4.741000000000E-02  1.204300000000E-01
  59   6     9.525900000000E-01  1.843100000000E-01  8.795700000000E-01
  60   6     4.741000000000E-02  8.156900000000E-01  8.795700000000E-01
  61   6     3.156900000000E-01  4.525900000000E-01  6.204300000000E-01
  62   6     6.843100000000E-01  5.474100000000E-01  6.204300000000E-01
  63   6     4.525900000000E-01  6.843100000000E-01  3.795700000000E-01
  64   6     5.474100000000E-01  3.156900000000E-01  3.795700000000E-01
  65   6     3.914300000000E-01  2.396500000000E-01  6.044300000000E-01
  66   6     6.085700000000E-01  7.603500000000E-01  6.044300000000E-01
  67   6     2.396500000000E-01  6.085700000000E-01  3.955700000000E-01
  68   6     7.603500000000E-01  3.914300000000E-01  3.955700000000E-01
  69   6     8.914300000000E-01  7.396500000000E-01  1.044300000000E-01
  70   6     1.085700000000E-01  2.603500000000E-01  1.044300000000E-01
  71   6     7.396500000000E-01  1.085700000000E-01  8.955700000000E-01
  72   6     2.603500000000E-01  8.914300000000E-01  8.955700000000E-01
  73   6     3.150000000000E-01  9.141000000000E-02  1.282200000000E-01
  74   6     6.850000000000E-01  9.085900000000E-01  1.282200000000E-01
  75   6     9.141000000000E-02  6.850000000000E-01  8.717800000000E-01
  76   6     9.085900000000E-01  3.150000000000E-01  8.717800000000E-01
  77   6     8.150000000000E-01  5.914100000000E-01  6.282200000000E-01
  78   6     1.850000000000E-01  4.085900000000E-01  6.282200000000E-01
  79   6     5.914100000000E-01  1.850000000000E-01  3.717800000000E-01
  80   6     4.085900000000E-01  8.150000000000E-01  3.717800000000E-01
  81   7     8.407700000000E-01  4.628300000000E-01  1.672900000000E-01
  82   7     1.592300000000E-01  5.371700000000E-01  1.672900000000E-01
  83   7     4.628300000000E-01  1.592300000000E-01  8.327100000000E-01
  84   7     5.371700000000E-01  8.407700000000E-01  8.327100000000E-01
  85   7     3.407700000000E-01  9.628300000000E-01  6.672900000000E-01
  86   7     6.592300000000E-01  3.717000000000E-02  6.672900000000E-01
  87   7     9.628300000000E-01  6.592300000000E-01  3.327100000000E-01
  88   7     3.717000000000E-02  3.407700000000E-01  3.327100000000E-01
  89   7     2.940400000000E-01  8.358500000000E-01  6.597700000000E-01
  90   7     7.059600000000E-01  1.641500000000E-01  6.597700000000E-01
  91   7     8.358500000000E-01  7.059600000000E-01  3.402300000000E-01
  92   7     1.641500000000E-01  2.940400000000E-01  3.402300000000E-01
  93   7     7.940400000000E-01  3.358500000000E-01  1.597700000000E-01
  94   7     2.059600000000E-01  6.641500000000E-01  1.597700000000E-01
  95   7     3.358500000000E-01  2.059600000000E-01  8.402300000000E-01
  96   7     6.641500000000E-01  7.940400000000E-01  8.402300000000E-01
  97   7     1.518600000000E-01  9.677900000000E-01  5.884000000000E-01
  98   7     8.481400000000E-01  3.221000000000E-02  5.884000000000E-01
  99   7     9.677900000000E-01  8.481400000000E-01  4.116000000000E-01
 100   7     3.221000000000E-02  1.518600000000E-01  4.116000000000E-01
 101   7     6.518600000000E-01  4.677900000000E-01  8.840000000000E-02
 102   7     3.481400000000E-01  5.322100000000E-01  8.840000000000E-02
 103   7     4.677900000000E-01  3.481400000000E-01  9.116000000000E-01
 104   7     5.322100000000E-01  6.518600000000E-01  9.116000000000E-01
 105   7     1.800200000000E-01  8.388700000000E-01  6.128200000000E-01
 106   7     8.199800000000E-01  1.611300000000E-01  6.128200000000E-01
 107   7     8.388700000000E-01  8.199800000000E-01  3.871800000000E-01
 108   7     1.611300000000E-01  1.800200000000E-01  3.871800000000E-01
 109   7     6.800200000000E-01  3.388700000000E-01  1.128200000000E-01
 110   7     3.199800000000E-01  6.611300000000E-01  1.128200000000E-01
 111   7     3.388700000000E-01  3.199800000000E-01  8.871800000000E-01
 112   7     6.611300000000E-01  6.800200000000E-01  8.871800000000E-01
 113   7     9.174200000000E-01  8.687700000000E-01  1.079100000000E-01
 114   7     8.258000000000E-02  1.312300000000E-01  1.079100000000E-01
 115   7     8.687700000000E-01  8.258000000000E-02  8.920900000000E-01
 116   7     1.312300000000E-01  9.174200000000E-01  8.920900000000E-01
 117   7     4.174200000000E-01  3.687700000000E-01  6.079100000000E-01
 118   7     5.825800000000E-01  6.312300000000E-01  6.079100000000E-01
 119   7     3.687700000000E-01  5.825800000000E-01  3.920900000000E-01
 120   7     6.312300000000E-01  4.174200000000E-01  3.920900000000E-01
 121  30     0.000000000000E+00  5.000000000000E-01  2.500000000000E-01
 122  30     5.000000000000E-01  0.000000000000E+00  7.500000000000E-01
 123  30     0.000000000000E+00  0.000000000000E+00  5.000000000000E-01
 124  30     5.000000000000E-01  5.000000000000E-01  0.000000000000E+00

 *******************************************************************************

 << INFORMATION >>: FROM NOW ON, ALL COORDINATES REFER TO THE PRIMITIVE CELL

 *******************************************************************************

 LATTICE PARAMETERS  (ANGSTROMS AND DEGREES) - PRIMITIVE CELL
       A          B          C        ALPHA      BETA     GAMMA        VOLUME
    9.78647    9.78647    9.78647   117.47208 117.47208  94.43726    685.870456

 INPUT LIST - ATOM N.   2 NOT IRREDUCIBLE

 INPUT LIST - ATOM N.   3 NOT IRREDUCIBLE

 INPUT LIST - ATOM N.   4 NOT IRREDUCIBLE

 INPUT LIST - ATOM N.   1 NOT IRREDUCIBLE

 INPUT LIST - ATOM N.   2 NOT IRREDUCIBLE

 INPUT LIST - ATOM N.   3 NOT IRREDUCIBLE

 INPUT LIST - ATOM N.   4 NOT IRREDUCIBLE

 INPUT LIST - ATOM N.   6 NOT IRREDUCIBLE

 INPUT LIST - ATOM N.   7 NOT IRREDUCIBLE

 INPUT LIST - ATOM N.   8 NOT IRREDUCIBLE

 INPUT LIST - ATOM N.   5 NOT IRREDUCIBLE

 INPUT LIST - ATOM N.   6 NOT IRREDUCIBLE

 INPUT LIST - ATOM N.   7 NOT IRREDUCIBLE

 INPUT LIST - ATOM N.   8 NOT IRREDUCIBLE

 INPUT LIST - ATOM N.  10 NOT IRREDUCIBLE

 INPUT LIST - ATOM N.  11 NOT IRREDUCIBLE

 INPUT LIST - ATOM N.  12 NOT IRREDUCIBLE

 INPUT LIST - ATOM N.   9 NOT IRREDUCIBLE

 INPUT LIST - ATOM N.  10 NOT IRREDUCIBLE

 INPUT LIST - ATOM N.  11 NOT IRREDUCIBLE

 INPUT LIST - ATOM N.  12 NOT IRREDUCIBLE

 INPUT LIST - ATOM N.  14 NOT IRREDUCIBLE

 INPUT LIST - ATOM N.  15 NOT IRREDUCIBLE

 INPUT LIST - ATOM N.  16 NOT IRREDUCIBLE

 INPUT LIST - ATOM N.  13 NOT IRREDUCIBLE

 INPUT LIST - ATOM N.  14 NOT IRREDUCIBLE

 INPUT LIST - ATOM N.  15 NOT IRREDUCIBLE

 INPUT LIST - ATOM N.  16 NOT IRREDUCIBLE

 INPUT LIST - ATOM N.  18 NOT IRREDUCIBLE

 INPUT LIST - ATOM N.  19 NOT IRREDUCIBLE

 INPUT LIST - ATOM N.  20 NOT IRREDUCIBLE

 INPUT LIST - ATOM N.  17 NOT IRREDUCIBLE

 INPUT LIST - ATOM N.  18 NOT IRREDUCIBLE

 INPUT LIST - ATOM N.  19 NOT IRREDUCIBLE

 INPUT LIST - ATOM N.  20 NOT IRREDUCIBLE

 INPUT LIST - ATOM N.  22 NOT IRREDUCIBLE

 INPUT LIST - ATOM N.  23 NOT IRREDUCIBLE

 INPUT LIST - ATOM N.  24 NOT IRREDUCIBLE

 INPUT LIST - ATOM N.  21 NOT IRREDUCIBLE

 INPUT LIST - ATOM N.  22 NOT IRREDUCIBLE

 INPUT LIST - ATOM N.  23 NOT IRREDUCIBLE

 INPUT LIST - ATOM N.  24 NOT IRREDUCIBLE

 INPUT LIST - ATOM N.  26 NOT IRREDUCIBLE

 INPUT LIST - ATOM N.  27 NOT IRREDUCIBLE

 INPUT LIST - ATOM N.  28 NOT IRREDUCIBLE

 INPUT LIST - ATOM N.  25 NOT IRREDUCIBLE

 INPUT LIST - ATOM N.  26 NOT IRREDUCIBLE

 INPUT LIST - ATOM N.  27 NOT IRREDUCIBLE

 INPUT LIST - ATOM N.  28 NOT IRREDUCIBLE

 INPUT LIST - ATOM N.  30 NOT IRREDUCIBLE

 INPUT LIST - ATOM N.  31 NOT IRREDUCIBLE

 INPUT LIST - ATOM N.  32 NOT IRREDUCIBLE

 INPUT LIST - ATOM N.  29 NOT IRREDUCIBLE

 INPUT LIST - ATOM N.  30 NOT IRREDUCIBLE

 INPUT LIST - ATOM N.  31 NOT IRREDUCIBLE

 INPUT LIST - ATOM N.  32 NOT IRREDUCIBLE

 INPUT LIST - ATOM N.  34 NOT IRREDUCIBLE

 INPUT LIST - ATOM N.  35 NOT IRREDUCIBLE

 INPUT LIST - ATOM N.  36 NOT IRREDUCIBLE

 INPUT LIST - ATOM N.  33 NOT IRREDUCIBLE

 INPUT LIST - ATOM N.  34 NOT IRREDUCIBLE

 INPUT LIST - ATOM N.  35 NOT IRREDUCIBLE

 INPUT LIST - ATOM N.  36 NOT IRREDUCIBLE

 INPUT LIST - ATOM N.  38 NOT IRREDUCIBLE

 INPUT LIST - ATOM N.  39 NOT IRREDUCIBLE

 INPUT LIST - ATOM N.  40 NOT IRREDUCIBLE

 INPUT LIST - ATOM N.  37 NOT IRREDUCIBLE

 INPUT LIST - ATOM N.  38 NOT IRREDUCIBLE

 INPUT LIST - ATOM N.  39 NOT IRREDUCIBLE

 INPUT LIST - ATOM N.  40 NOT IRREDUCIBLE

 INPUT LIST - ATOM N.  42 NOT IRREDUCIBLE

 INPUT LIST - ATOM N.  43 NOT IRREDUCIBLE

 INPUT LIST - ATOM N.  44 NOT IRREDUCIBLE

 INPUT LIST - ATOM N.  41 NOT IRREDUCIBLE

 INPUT LIST - ATOM N.  42 NOT IRREDUCIBLE

 INPUT LIST - ATOM N.  43 NOT IRREDUCIBLE

 INPUT LIST - ATOM N.  44 NOT IRREDUCIBLE

 INPUT LIST - ATOM N.  46 NOT IRREDUCIBLE

 INPUT LIST - ATOM N.  47 NOT IRREDUCIBLE

 INPUT LIST - ATOM N.  48 NOT IRREDUCIBLE

 INPUT LIST - ATOM N.  45 NOT IRREDUCIBLE

 INPUT LIST - ATOM N.  46 NOT IRREDUCIBLE

 INPUT LIST - ATOM N.  47 NOT IRREDUCIBLE

 INPUT LIST - ATOM N.  48 NOT IRREDUCIBLE

 INPUT LIST - ATOM N.  50 NOT IRREDUCIBLE

 INPUT LIST - ATOM N.  51 NOT IRREDUCIBLE

 INPUT LIST - ATOM N.  52 NOT IRREDUCIBLE

 INPUT LIST - ATOM N.  49 NOT IRREDUCIBLE

 INPUT LIST - ATOM N.  50 NOT IRREDUCIBLE

 INPUT LIST - ATOM N.  51 NOT IRREDUCIBLE

 INPUT LIST - ATOM N.  52 NOT IRREDUCIBLE

 INPUT LIST - ATOM N.  54 NOT IRREDUCIBLE

 INPUT LIST - ATOM N.  55 NOT IRREDUCIBLE

 INPUT LIST - ATOM N.  56 NOT IRREDUCIBLE

 INPUT LIST - ATOM N.  53 NOT IRREDUCIBLE

 INPUT LIST - ATOM N.  54 NOT IRREDUCIBLE

 INPUT LIST - ATOM N.  55 NOT IRREDUCIBLE

 INPUT LIST - ATOM N.  56 NOT IRREDUCIBLE

 INPUT LIST - ATOM N.  58 NOT IRREDUCIBLE

 INPUT LIST - ATOM N.  59 NOT IRREDUCIBLE

 INPUT LIST - ATOM N.  60 NOT IRREDUCIBLE

 INPUT LIST - ATOM N.  57 NOT IRREDUCIBLE

 INPUT LIST - ATOM N.  58 NOT IRREDUCIBLE

 INPUT LIST - ATOM N.  59 NOT IRREDUCIBLE

 INPUT LIST - ATOM N.  60 NOT IRREDUCIBLE

 INPUT LIST - ATOM N.  61 NOT IRREDUCIBLE

 INPUT LIST - ATOM N.  62 NOT IRREDUCIBLE

 COORDINATES OF THE EQUIVALENT ATOMS (FRACTIONAL UNITS)

 N. ATOM EQUIV AT. N.          X                  Y                  Z

   1   1   1    1 H    -1.25960000000E-01 -3.05720000000E-01  2.94980000000E-01
   2   1   2    1 H     3.99300000000E-01 -4.20940000000E-01 -2.94980000000E-01
   3   1   3    1 H     3.05720000000E-01 -3.99300000000E-01  1.79760000000E-01
   4   1   4    1 H     4.20940000000E-01  1.25960000000E-01 -1.79760000000E-01








   5   9   1   17 CL   -2.33980000000E-01  6.67500000000E-02 -3.48890000000E-01
   6   9   2   17 CL    4.15640000000E-01  1.14910000000E-01  3.48890000000E-01
   7   9   3   17 CL   -6.67500000000E-02 -4.15640000000E-01 -3.00730000000E-01
   8   9   4   17 CL   -1.14910000000E-01  2.33980000000E-01  3.00730000000E-01








   9  17   1   17 CL    1.17570000000E-01 -2.57190000000E-01 -4.13600000000E-01
  10  17   2   17 CL    1.56410000000E-01 -4.68830000000E-01  4.13600000000E-01
  11  17   3   17 CL    2.57190000000E-01 -1.56410000000E-01  3.74760000000E-01
  12  17   4   17 CL    4.68830000000E-01 -1.17570000000E-01 -3.74760000000E-01

 NUMBER OF SYMMETRY OPERATORS         :    4
 *******************************************************************************
 * GEOMETRY EDITING - INPUT COORDINATES ARE GIVEN IN ANGSTROM         
 *******************************************************************************

 GEOMETRY NOW FULLY CONSISTENT WITH THE GROUP
 *******************************************************************************
 *  GEOMETRY EDITING
 *  THE SYMMETRY OF THE CRYSTAL IS KEPT AND APPLIED TO THE PERTURBATION
 *******************************************************************************
 INFORMATION **** NEW DEFAULT **** FINALRUN 4 FOR GEOMETRY OPTIMIZATIONS
 INFORMATION **** NEW DEFAULT **** OPTGEOM OPTIMIZES BOTH ATOMIC COORDINATES AND CELL PARAMETERS
 INFORMATION **** NEW DEFAULT **** TOL. ON ATOMIC DISP TO REDEFINE REF. GEOMETRY: 0.8 Angs
 INFORMATION **** NEW DEFAULT **** N POINTS TO REDEFINE REF. GEOMETRY: N OF OPT DEGS OF FREEDOM
 INFORMATION **** NEW DEFAULT **** TOL. ON ENERGY TO REDEFINE REF. GEOMETRY: 10**-3*(5*N. ATOMS)

 IMPORTANT INFORMATION:
 THE COORDINATE SYSTEM ADOPTED IN THE OPTIMIZATION IS NOT IN
 GENERAL HOMOGENEOUS UNITS. FOR THIS REASON THE GRADIENT AND 
 HESSIAN MATRIX IN TERMS OF THIS SYSTEM ARE GIVEN WITHOUT
 UNITS. FOR MORE DETAILS SEE THE MANUAL.

 *******************************************************************************
 COMBINED CELL/ATOM OPTIMIZATION CONTROL

 INITIAL TRUST RADIUS         0.50000 MAXIMUM TRUST RADIUS               4.00000
 MAXIMUM GRADIENT COMPONENT   0.00045 MAXIMUM DISPLACEMENT COMPONENT     0.00180
 R.M.S. OF GRADIENT COMPONENT 0.00030 R.M.S. OF DISPLACEMENT COMPONENTS  0.00120
 THRESHOLD ON ENERGY CHANGE 0.100E-06 EXTRAPOLATING POLYNOMIAL ORDER           2
 MAXIMUM ALLOWED NUMBER OF STEPS   -1 SORTING OF ENERGY POINTS:               NO
 ANALYTICAL  GRADIENT                 HESSIAN UPDATING                      BFGS
 STEP SIZE NUMERICAL GRADIENT 0.00100
 INITIAL HESSIAN MATRIX: SCHLEGEL MODEL 2
 *******************************************************************************


 GCALCO - MAX INDICES DIRECT LATTICE VECTOR    14    14    16
 NO.OF VECTORS CREATED 6999 STARS  481 RMAX   197.96270 BOHR

 GEOMETRY FOR WAVE FUNCTION - DIMENSIONALITY OF THE SYSTEM    3
 (NON PERIODIC DIRECTION: LATTICE PARAMETER FORMALLY SET TO 500)
 *******************************************************************************
 LATTICE PARAMETERS (ANGSTROMS AND DEGREES) - BOHR = 0.5291772083 ANGSTROM
 PRIMITIVE CELL - CENTRING CODE 6/0 VOLUME=   685.870456 - DENSITY  2.711 g/cm^3
         A              B              C           ALPHA      BETA       GAMMA 
     9.78647490     9.78647490     9.78647490   117.472078 117.472078  94.437262
 *******************************************************************************
 ATOMS IN THE ASYMMETRIC UNIT   17 - ATOMS IN THE UNIT CELL:   62
     ATOM                 X/A                 Y/B                 Z/C    
 *******************************************************************************
      1 T   1 H    -1.259600000000E-01 -3.057200000000E-01  2.949800000000E-01
      2 F   1 H     3.993000000000E-01 -4.209400000000E-01 -2.949800000000E-01
      3 F   1 H     3.057200000000E-01 -3.993000000000E-01  1.797600000000E-01
      4 F   1 H     4.209400000000E-01  1.259600000000E-01 -1.797600000000E-01
      5 T  17 CL   -2.339800000000E-01  6.675000000000E-02 -3.488900000000E-01
      6 F  17 CL    4.156400000000E-01  1.149100000000E-01  3.488900000000E-01
      7 F  17 CL   -6.675000000000E-02 -4.156400000000E-01 -3.007300000000E-01
      8 F  17 CL   -1.149100000000E-01  2.339800000000E-01  3.007300000000E-01
      9 T  17 CL    1.175700000000E-01 -2.571900000000E-01 -4.136000000000E-01
     10 F  17 CL    1.564100000000E-01 -4.688300000000E-01  4.136000000000E-01
     11 F  17 CL    2.571900000000E-01 -1.564100000000E-01  3.747600000000E-01
     12 F  17 CL    4.688300000000E-01 -1.175700000000E-01 -3.747600000000E-01
     13 T  17 CL    1.811100000000E-01 -3.390000000000E-02 -1.008300000000E-01
     14 F  17 CL    6.693000000000E-02  2.819400000000E-01  1.008300000000E-01
     15 F  17 CL    3.390000000000E-02 -6.693000000000E-02  2.150100000000E-01
     16 F  17 CL   -2.819400000000E-01 -1.811100000000E-01 -2.150100000000E-01
     17 T   6 C    -1.974700000000E-01 -1.188000000000E-01  4.506300000000E-01
     18 F   6 C     4.305700000000E-01  3.519000000000E-01 -4.506300000000E-01
     19 F   6 C     1.188000000000E-01 -4.305700000000E-01 -7.867000000000E-02
     20 F   6 C    -3.519000000000E-01  1.974700000000E-01  7.867000000000E-02
     21 T   6 C    -3.338300000000E-01 -1.256000000000E-01  2.945700000000E-01
     22 F   6 C    -4.201700000000E-01  3.716000000000E-01 -2.945700000000E-01
     23 F   6 C     1.256000000000E-01  4.201700000000E-01 -2.082300000000E-01
     24 F   6 C    -3.716000000000E-01  3.338300000000E-01  2.082300000000E-01
     25 T   6 C    -9.899000000000E-02 -2.142900000000E-01  4.320400000000E-01
     26 F   6 C     3.536700000000E-01  4.689700000000E-01 -4.320400000000E-01
     27 F   6 C     2.142900000000E-01 -3.536700000000E-01  1.153000000000E-01
     28 F   6 C    -4.689700000000E-01  9.899000000000E-02 -1.153000000000E-01
     29 T   6 C     7.302000000000E-02 -6.388000000000E-02 -2.317200000000E-01
     30 F   6 C     1.678400000000E-01  3.047400000000E-01  2.317200000000E-01
     31 F   6 C     6.388000000000E-02 -1.678400000000E-01  1.369000000000E-01
     32 F   6 C    -3.047400000000E-01 -7.302000000000E-02 -1.369000000000E-01
     33 T   6 C    -1.559200000000E-01 -4.140000000000E-03 -3.689200000000E-01
     34 F   6 C     3.647800000000E-01  2.130000000000E-01  3.689200000000E-01
     35 F   6 C     4.140000000000E-03 -3.647800000000E-01 -1.517800000000E-01
     36 F   6 C    -2.130000000000E-01  1.559200000000E-01  1.517800000000E-01
     37 T   6 C     2.196300000000E-01  4.432200000000E-01  4.064100000000E-01
     38 F   6 C     3.681000000000E-02 -1.867800000000E-01 -4.064100000000E-01
     39 F   6 C    -4.432200000000E-01 -3.681000000000E-02 -2.235900000000E-01
     40 F   6 C     1.867800000000E-01 -2.196300000000E-01  2.235900000000E-01
     41 T   7 N    -3.698800000000E-01  8.060000000000E-03  3.036000000000E-01
     42 F   7 N    -2.955400000000E-01  3.265200000000E-01 -3.036000000000E-01
     43 F   7 N    -8.060000000000E-03  2.955400000000E-01 -3.779400000000E-01
     44 F   7 N    -3.265200000000E-01  3.698800000000E-01  3.779400000000E-01
     45 T   7 N     4.956200000000E-01 -4.619000000000E-02  1.298900000000E-01
     46 F   7 N    -1.760800000000E-01  3.657300000000E-01 -1.298900000000E-01
     47 F   7 N     4.619000000000E-02  1.760800000000E-01 -4.581900000000E-01
     48 F   7 N    -3.657300000000E-01 -4.956200000000E-01  4.581900000000E-01
     49 T   7 N    -4.438100000000E-01 -2.597400000000E-01  1.196500000000E-01
     50 F   7 N    -3.793900000000E-01  4.365400000000E-01 -1.196500000000E-01
     51 F   7 N     2.597400000000E-01  3.793900000000E-01 -1.840700000000E-01
     52 F   7 N    -4.365400000000E-01  4.438100000000E-01  1.840700000000E-01
     53 T   7 N     4.516900000000E-01 -2.071600000000E-01  1.889000000000E-02
     54 F   7 N    -2.260500000000E-01  4.328000000000E-01 -1.889000000000E-02
     55 F   7 N     2.071600000000E-01  2.260500000000E-01 -3.411500000000E-01
     56 F   7 N    -4.328000000000E-01 -4.516900000000E-01  3.411500000000E-01
     57 T   7 N    -2.332000000000E-02  2.533000000000E-02 -2.138100000000E-01
     58 F   7 N     2.391400000000E-01  1.904900000000E-01  2.138100000000E-01
     59 F   7 N    -2.533000000000E-02 -2.391400000000E-01 -4.865000000000E-02
     60 F   7 N    -1.904900000000E-01  2.332000000000E-02  4.865000000000E-02
     61 T  30 ZN   -2.500000000000E-01  2.500000000000E-01  5.000000000000E-01
     62 T  30 ZN   -5.000000000000E-01  5.000000000000E-01  0.000000000000E+00

 TRANSFORMATION MATRIX PRIMITIVE-CRYSTALLOGRAPHIC CELL
  0.0000  1.0000  1.0000  1.0000  0.0000  1.0000  1.0000  1.0000  0.0000

 *******************************************************************************
 CRYSTALLOGRAPHIC CELL (VOLUME=       1371.74091142)
         A              B              C           ALPHA      BETA       GAMMA 
    10.15800000    10.15800000    13.29400000    90.000000  90.000000  90.000000

 COORDINATES IN THE CRYSTALLOGRAPHIC CELL
     ATOM                 X/A                 Y/B                 Z/C    
 *******************************************************************************
      1 T   1 H     5.761000000000E-02  2.373700000000E-01 -3.633300000000E-01
      2 F   1 H    -5.761000000000E-02 -2.373700000000E-01 -3.633300000000E-01
      3 F   1 H     2.373700000000E-01 -5.761000000000E-02  3.633300000000E-01
      4 F   1 H    -2.373700000000E-01  5.761000000000E-02  3.633300000000E-01
      5 T  17 CL   -2.408000000000E-02 -3.248100000000E-01  9.083000000000E-02
      6 F  17 CL    2.408000000000E-02  3.248100000000E-01  9.083000000000E-02
      7 F  17 CL   -3.248100000000E-01  2.408000000000E-02 -9.083000000000E-02
      8 F  17 CL    3.248100000000E-01 -2.408000000000E-02 -9.083000000000E-02
      9 T  17 CL   -3.941800000000E-01 -1.942000000000E-02  1.369900000000E-01
     10 F  17 CL    3.941800000000E-01  1.942000000000E-02  1.369900000000E-01
     11 F  17 CL   -1.942000000000E-02  3.941800000000E-01 -1.369900000000E-01
     12 F  17 CL    1.942000000000E-02 -3.941800000000E-01 -1.369900000000E-01
     13 T  17 CL   -1.579200000000E-01  5.709000000000E-02  1.240200000000E-01
     14 F  17 CL    1.579200000000E-01 -5.709000000000E-02  1.240200000000E-01
     15 F  17 CL    5.709000000000E-02  1.579200000000E-01 -1.240200000000E-01
     16 F  17 CL   -5.709000000000E-02 -1.579200000000E-01 -1.240200000000E-01
     17 T   6 C    -2.353500000000E-01 -3.140200000000E-01  1.165500000000E-01
     18 F   6 C     2.353500000000E-01  3.140200000000E-01  1.165500000000E-01
     19 F   6 C    -3.140200000000E-01  2.353500000000E-01 -1.165500000000E-01
     20 F   6 C     3.140200000000E-01 -2.353500000000E-01 -1.165500000000E-01
     21 T   6 C    -2.486000000000E-01 -4.568300000000E-01  1.230000000000E-01
     22 F   6 C     2.486000000000E-01  4.568300000000E-01  1.230000000000E-01
     23 F   6 C    -4.568300000000E-01  2.486000000000E-01 -1.230000000000E-01
     24 F   6 C     4.568300000000E-01 -2.486000000000E-01 -1.230000000000E-01
     25 T   6 C    -3.416300000000E-01 -2.263300000000E-01  1.273400000000E-01
     26 F   6 C     3.416300000000E-01  2.263300000000E-01  1.273400000000E-01
     27 F   6 C    -2.263300000000E-01  3.416300000000E-01 -1.273400000000E-01
     28 F   6 C     2.263300000000E-01 -3.416300000000E-01 -1.273400000000E-01
     29 T   6 C    -1.843100000000E-01 -4.741000000000E-02  1.204300000000E-01
     30 F   6 C     1.843100000000E-01  4.741000000000E-02  1.204300000000E-01
     31 F   6 C    -4.741000000000E-02  1.843100000000E-01 -1.204300000000E-01
     32 F   6 C     4.741000000000E-02 -1.843100000000E-01 -1.204300000000E-01
     33 T   6 C    -1.085700000000E-01 -2.603500000000E-01  1.044300000000E-01
     34 F   6 C     1.085700000000E-01  2.603500000000E-01  1.044300000000E-01
     35 F   6 C    -2.603500000000E-01  1.085700000000E-01 -1.044300000000E-01
     36 F   6 C     2.603500000000E-01 -1.085700000000E-01 -1.044300000000E-01
     37 T   6 C     3.150000000000E-01  9.141000000000E-02  1.282200000000E-01
     38 F   6 C    -3.150000000000E-01 -9.141000000000E-02  1.282200000000E-01
     39 F   6 C     9.141000000000E-02 -3.150000000000E-01 -1.282200000000E-01
     40 F   6 C    -9.141000000000E-02  3.150000000000E-01 -1.282200000000E-01
     41 T   7 N    -1.592300000000E-01  4.628300000000E-01  1.672900000000E-01
     42 F   7 N     1.592300000000E-01 -4.628300000000E-01  1.672900000000E-01
     43 F   7 N     4.628300000000E-01  1.592300000000E-01 -1.672900000000E-01
     44 F   7 N    -4.628300000000E-01 -1.592300000000E-01 -1.672900000000E-01
     45 T   7 N    -2.059600000000E-01  3.358500000000E-01  1.597700000000E-01
     46 F   7 N     2.059600000000E-01 -3.358500000000E-01  1.597700000000E-01
     47 F   7 N     3.358500000000E-01  2.059600000000E-01 -1.597700000000E-01
     48 F   7 N    -3.358500000000E-01 -2.059600000000E-01 -1.597700000000E-01
     49 T   7 N     1.518600000000E-01 -3.221000000000E-02 -4.116000000000E-01
     50 F   7 N    -1.518600000000E-01  3.221000000000E-02 -4.116000000000E-01
     51 F   7 N    -3.221000000000E-02 -1.518600000000E-01  4.116000000000E-01
     52 F   7 N     3.221000000000E-02  1.518600000000E-01  4.116000000000E-01
     53 T   7 N    -3.199800000000E-01  3.388700000000E-01  1.128200000000E-01
     54 F   7 N     3.199800000000E-01 -3.388700000000E-01  1.128200000000E-01
     55 F   7 N     3.388700000000E-01  3.199800000000E-01 -1.128200000000E-01
     56 F   7 N    -3.388700000000E-01 -3.199800000000E-01 -1.128200000000E-01
     57 T   7 N    -8.258000000000E-02 -1.312300000000E-01  1.079100000000E-01
     58 F   7 N     8.258000000000E-02  1.312300000000E-01  1.079100000000E-01
     59 F   7 N    -1.312300000000E-01  8.258000000000E-02 -1.079100000000E-01
     60 F   7 N     1.312300000000E-01 -8.258000000000E-02 -1.079100000000E-01
     61 T  30 ZN    4.626932236752E-17  5.000000000000E-01  2.500000000000E-01
     62 T  30 ZN    0.000000000000E+00  0.000000000000E+00  5.000000000000E-01

 T = ATOM BELONGING TO THE ASYMMETRIC UNIT

 ****    4 SYMMOPS - TRANSLATORS IN FRACTIONAL UNITS
 **** MATRICES AND TRANSLATORS IN THE CRYSTALLOGRAPHIC REFERENCE FRAME
   V INV                    ROTATION MATRICES                   TRANSLATORS
   1   1  1.00  0.00  0.00  0.00  1.00  0.00  0.00  0.00  1.00  0.00  0.00  0.00
   2   2  0.00  1.00 -1.00  1.00 -0.00 -1.00 -0.00  0.00 -1.00  0.00  0.00  0.00
   3   4 -0.00 -1.00  0.00  0.00 -1.00  1.00  1.00 -1.00  0.00  0.00  0.00  0.00
   4   3 -1.00 -0.00  1.00 -1.00  0.00 -0.00 -1.00  1.00 -0.00  0.00  0.00  0.00

 DIRECT LATTICE VECTORS CARTESIAN COMPONENTS (ANGSTROM)
          X                    Y                    Z
  -0.507900000000E+01   0.507900000000E+01   0.664700000000E+01
   0.507900000000E+01  -0.507900000000E+01   0.664700000000E+01
   0.507900000000E+01   0.507900000000E+01  -0.664700000000E+01


 CARTESIAN COORDINATES - PRIMITIVE CELL
 *******************************************************************************
 *      ATOM          X(ANGSTROM)         Y(ANGSTROM)         Z(ANGSTROM)
 *******************************************************************************
    1     1 H     5.852023800000E-01  2.411204460000E+00 -4.830109020000E+00
    2     1 H    -5.852023800000E-01 -2.411204460000E+00 -4.830109020000E+00
    3     1 H     2.411204460000E+00 -5.852023800000E-01  4.830109020000E+00
    4     1 H    -2.411204460000E+00  5.852023800000E-01  4.830109020000E+00
    5    17 CL   -2.446046400000E-01 -3.299419980000E+00  1.207494020000E+00
    6    17 CL    2.446046400000E-01  3.299419980000E+00  1.207494020000E+00
    7    17 CL   -3.299419980000E+00  2.446046400000E-01 -1.207494020000E+00
    8    17 CL    3.299419980000E+00 -2.446046400000E-01 -1.207494020000E+00
    9    17 CL   -4.004080440000E+00 -1.972683600000E-01  1.821145060000E+00
   10    17 CL    4.004080440000E+00  1.972683600000E-01  1.821145060000E+00
   11    17 CL   -1.972683600000E-01  4.004080440000E+00 -1.821145060000E+00
   12    17 CL    1.972683600000E-01 -4.004080440000E+00 -1.821145060000E+00
   13    17 CL   -1.604151360000E+00  5.799202200000E-01  1.648721880000E+00
   14    17 CL    1.604151360000E+00 -5.799202200000E-01  1.648721880000E+00
   15    17 CL    5.799202200000E-01  1.604151360000E+00 -1.648721880000E+00
   16    17 CL   -5.799202200000E-01 -1.604151360000E+00 -1.648721880000E+00
   17     6 C    -2.390685300000E+00 -3.189815160000E+00  1.549415700000E+00
   18     6 C     2.390685300000E+00  3.189815160000E+00  1.549415700000E+00
   19     6 C    -3.189815160000E+00  2.390685300000E+00 -1.549415700000E+00
   20     6 C     3.189815160000E+00 -2.390685300000E+00 -1.549415700000E+00
   21     6 C    -2.525278800000E+00 -4.640479140000E+00  1.635162000000E+00
   22     6 C     2.525278800000E+00  4.640479140000E+00  1.635162000000E+00
   23     6 C    -4.640479140000E+00  2.525278800000E+00 -1.635162000000E+00
   24     6 C     4.640479140000E+00 -2.525278800000E+00 -1.635162000000E+00
   25     6 C    -3.470277540000E+00 -2.299060140000E+00  1.692857960000E+00
   26     6 C     3.470277540000E+00  2.299060140000E+00  1.692857960000E+00
   27     6 C    -2.299060140000E+00  3.470277540000E+00 -1.692857960000E+00
   28     6 C     2.299060140000E+00 -3.470277540000E+00 -1.692857960000E+00
   29     6 C    -1.872220980000E+00 -4.815907800000E-01  1.600996420000E+00
   30     6 C     1.872220980000E+00  4.815907800000E-01  1.600996420000E+00
   31     6 C    -4.815907800000E-01  1.872220980000E+00 -1.600996420000E+00
   32     6 C     4.815907800000E-01 -1.872220980000E+00 -1.600996420000E+00
   33     6 C    -1.102854060000E+00 -2.644635300000E+00  1.388292420000E+00
   34     6 C     1.102854060000E+00  2.644635300000E+00  1.388292420000E+00
   35     6 C    -2.644635300000E+00  1.102854060000E+00 -1.388292420000E+00
   36     6 C     2.644635300000E+00 -1.102854060000E+00 -1.388292420000E+00
   37     6 C     3.199770000000E+00  9.285427800000E-01  1.704556680000E+00
   38     6 C    -3.199770000000E+00 -9.285427800000E-01  1.704556680000E+00
   39     6 C     9.285427800000E-01 -3.199770000000E+00 -1.704556680000E+00
   40     6 C    -9.285427800000E-01  3.199770000000E+00 -1.704556680000E+00
   41     7 N    -1.617458340000E+00  4.701427140000E+00  2.223953260000E+00
   42     7 N     1.617458340000E+00 -4.701427140000E+00  2.223953260000E+00
   43     7 N     4.701427140000E+00  1.617458340000E+00 -2.223953260000E+00
   44     7 N    -4.701427140000E+00 -1.617458340000E+00 -2.223953260000E+00
   45     7 N    -2.092141680000E+00  3.411564300000E+00  2.123982380000E+00
   46     7 N     2.092141680000E+00 -3.411564300000E+00  2.123982380000E+00
   47     7 N     3.411564300000E+00  2.092141680000E+00 -2.123982380000E+00
   48     7 N    -3.411564300000E+00 -2.092141680000E+00 -2.123982380000E+00
   49     7 N     1.542593880000E+00 -3.271891800000E-01 -5.471810400000E+00
   50     7 N    -1.542593880000E+00  3.271891800000E-01 -5.471810400000E+00
   51     7 N    -3.271891800000E-01 -1.542593880000E+00  5.471810400000E+00
   52     7 N     3.271891800000E-01  1.542593880000E+00  5.471810400000E+00
   53     7 N    -3.250356840000E+00  3.442241460000E+00  1.499829080000E+00
   54     7 N     3.250356840000E+00 -3.442241460000E+00  1.499829080000E+00
   55     7 N     3.442241460000E+00  3.250356840000E+00 -1.499829080000E+00
   56     7 N    -3.442241460000E+00 -3.250356840000E+00 -1.499829080000E+00
   57     7 N    -8.388476400000E-01 -1.333034340000E+00  1.434555540000E+00
   58     7 N     8.388476400000E-01  1.333034340000E+00  1.434555540000E+00
   59     7 N    -1.333034340000E+00  8.388476400000E-01 -1.434555540000E+00
   60     7 N     1.333034340000E+00 -8.388476400000E-01 -1.434555540000E+00
   61    30 ZN    4.700037766092E-16  5.079000000000E+00 -9.970500000000E+00
   62    30 ZN    0.000000000000E+00  0.000000000000E+00  6.647000000000E+00

 *******************************************************************************
 STARTING BASIS SET HANDLING 
 *******************************************************************************

 Loading internal basis set: POB-DZVPP           

 Please cite in your publication:
 Peintinger, M. F., Oliveira, D. V. and Bredow, T. (2013), Generally applicable 
 solid-state Gaussian basis sets, in preparation                                
                                                                                
                    

 *******************************************************************************
 LOCAL ATOMIC FUNCTIONS BASIS SET
 *******************************************************************************
   ATOM   X(AU)   Y(AU)   Z(AU)  N. TYPE  EXPONENT  S COEF   P COEF   D/F/G COEF
 *******************************************************************************
   1 H    1.106   4.557  -9.128
                                  1 S  
                                         2.263E+01 1.441E-02 0.000E+00 0.000E+00
                                         3.236E+00 1.072E-01 0.000E+00 0.000E+00
                                         7.304E-01 3.846E-01 0.000E+00 0.000E+00
                                  2 S  
                                         1.417E-01 1.000E+00 0.000E+00 0.000E+00
                           3-     5 P  
                                         3.944E-01 0.000E+00 1.000E+00 0.000E+00
                           6-     8 P  
                                         1.006E-01 0.000E+00 1.000E+00 0.000E+00
   2 H   -1.106  -4.557  -9.128
   3 H    4.557  -1.106   9.128
   4 H   -4.557   1.106   9.128
   5 CL  -0.462  -6.235   2.282
                                 33 S  
                                         1.045E+04 1.971E-03 0.000E+00 0.000E+00
                                         1.572E+03 1.475E-02 0.000E+00 0.000E+00
                                         3.571E+02 6.668E-02 0.000E+00 0.000E+00
                                         1.003E+02 1.723E-01 0.000E+00 0.000E+00
                                         3.081E+01 1.588E-01 0.000E+00 0.000E+00
                                 34 S  
                                         5.192E+01-1.001E-01 0.000E+00 0.000E+00
                                         5.705E+00 6.084E-01 0.000E+00 0.000E+00
                                         2.351E+00 5.435E-01 0.000E+00 0.000E+00
                                 35 S  
                                         4.886E-01 1.000E+00 0.000E+00 0.000E+00
                                 36 S  
                                         1.984E-01 1.000E+00 0.000E+00 0.000E+00
                          37-    39 P  
                                         3.077E+02 0.000E+00-8.780E-03 0.000E+00
                                         7.210E+01 0.000E+00-6.356E-02 0.000E+00
                                         2.253E+01 0.000E+00-2.402E-01 0.000E+00
                                         7.899E+00 0.000E+00-4.780E-01 0.000E+00
                                         2.877E+00 0.000E+00-3.852E-01 0.000E+00
                          40-    42 P  
                                         9.483E-01 0.000E+00 1.000E+00 0.000E+00
                          43-    45 P  
                                         2.521E-01 0.000E+00 1.000E+00 0.000E+00
                          46-    50 D  
                                         9.722E-01 0.000E+00 0.000E+00 1.000E+00
                          51-    55 D  
                                         2.060E-01 0.000E+00 0.000E+00 1.000E+00
   6 CL   0.462   6.235   2.282
   7 CL  -6.235   0.462  -2.282
   8 CL   6.235  -0.462  -2.282
   9 CL  -7.567  -0.373   3.441
  10 CL   7.567   0.373   3.441
  11 CL  -0.373   7.567  -3.441
  12 CL   0.373  -7.567  -3.441
  13 CL  -3.031   1.096   3.116
  14 CL   3.031  -1.096   3.116
  15 CL   1.096   3.031  -3.116
  16 CL  -1.096  -3.031  -3.116
  17 C   -4.518  -6.028   2.928
                                309 S  
                                         1.238E+03 5.457E-03 0.000E+00 0.000E+00
                                         1.863E+02 4.064E-02 0.000E+00 0.000E+00
                                         4.225E+01 1.803E-01 0.000E+00 0.000E+00
                                         1.168E+01 4.632E-01 0.000E+00 0.000E+00
                                         3.593E+00 4.409E-01 0.000E+00 0.000E+00
                                310 S  
                                         5.281E+00 1.000E+00 0.000E+00 0.000E+00
                                311 S  
                                         4.447E-01 1.000E+00 0.000E+00 0.000E+00
                         312-   314 P  
                                         9.468E+00 0.000E+00 3.839E-02 0.000E+00
                                         2.010E+00 0.000E+00 2.112E-01 0.000E+00
                                         5.477E-01 0.000E+00 5.133E-01 0.000E+00
                         315-   317 P  
                                         1.604E-01 0.000E+00 1.000E+00 0.000E+00
                         318-   322 D  
                                         6.070E-01 0.000E+00 0.000E+00 1.000E+00
                         323-   327 D  
                                         2.939E-01 0.000E+00 0.000E+00 1.000E+00
  18 C    4.518   6.028   2.928
  19 C   -6.028   4.518  -2.928
  20 C    6.028  -4.518  -2.928
  21 C   -4.772  -8.769   3.090
  22 C    4.772   8.769   3.090
  23 C   -8.769   4.772  -3.090
  24 C    8.769  -4.772  -3.090
  25 C   -6.558  -4.345   3.199
  26 C    6.558   4.345   3.199
  27 C   -4.345   6.558  -3.199
  28 C    4.345  -6.558  -3.199
  29 C   -3.538  -0.910   3.025
  30 C    3.538   0.910   3.025
  31 C   -0.910   3.538  -3.025
  32 C    0.910  -3.538  -3.025
  33 C   -2.084  -4.998   2.623
  34 C    2.084   4.998   2.623
  35 C   -4.998   2.084  -2.623
  36 C    4.998  -2.084  -2.623
  37 C    6.047   1.755   3.221
  38 C   -6.047  -1.755   3.221
  39 C    1.755  -6.047  -3.221
  40 C   -1.755   6.047  -3.221
  41 N   -3.057   8.884   4.203
                                765 S  
                                         1.713E+03-5.393E-03 0.000E+00 0.000E+00
                                         2.576E+02-4.022E-02 0.000E+00 0.000E+00
                                         5.846E+01-1.793E-01 0.000E+00 0.000E+00
                                         1.620E+01-4.638E-01 0.000E+00 0.000E+00
                                         5.005E+00-4.417E-01 0.000E+00 0.000E+00
                                766 S  
                                         6.217E-01 1.000E+00 0.000E+00 0.000E+00
                                767 S  
                                         2.921E-01 1.000E+00 0.000E+00 0.000E+00
                         768-   770 P  
                                         1.357E+01 0.000E+00-4.007E-02 0.000E+00
                                         2.926E+00 0.000E+00-2.181E-01 0.000E+00
                                         7.993E-01 0.000E+00-5.129E-01 0.000E+00
                         771-   773 P  
                                         2.244E-01 0.000E+00 1.000E+00 0.000E+00
                         774-   778 D  
                                         3.118E-01 0.000E+00 0.000E+00 1.000E+00
  42 N    3.057  -8.884   4.203
  43 N    8.884   3.057  -4.203
  44 N   -8.884  -3.057  -4.203
  45 N   -3.954   6.447   4.014
  46 N    3.954  -6.447   4.014
  47 N    6.447   3.954  -4.014
  48 N   -6.447  -3.954  -4.014
  49 N    2.915  -0.618 -10.340
  50 N   -2.915   0.618 -10.340
  51 N   -0.618  -2.915  10.340
  52 N    0.618   2.915  10.340
  53 N   -6.142   6.505   2.834
  54 N    6.142  -6.505   2.834
  55 N    6.505   6.142  -2.834
  56 N   -6.505  -6.142  -2.834
  57 N   -1.585  -2.519   2.711
  58 N    1.585   2.519   2.711
  59 N   -2.519   1.585  -2.711
  60 N    2.519  -1.585  -2.711
  61 ZN   0.000   9.598 -18.842
                               1045 S  
                                         8.200E+04 1.421E-03 0.000E+00 0.000E+00
                                         1.231E+04 1.089E-02 0.000E+00 0.000E+00
                                         2.801E+03 5.406E-02 0.000E+00 0.000E+00
                                         7.910E+02 1.885E-01 0.000E+00 0.000E+00
                                         2.576E+02 3.835E-01 0.000E+00 0.000E+00
                                         8.881E+01 2.972E-01 0.000E+00 0.000E+00
                               1046 S  
                                         1.719E+02-1.105E-01 0.000E+00 0.000E+00
                                         2.030E+01 6.461E-01 0.000E+00 0.000E+00
                                         8.346E+00 4.422E-01 0.000E+00 0.000E+00
                               1047 S  
                                         1.485E+01-2.271E-01 0.000E+00 0.000E+00
                                         2.450E+00 7.243E-01 0.000E+00 0.000E+00
                                         9.985E-01 4.484E-01 0.000E+00 0.000E+00
                               1048 S  
                                         1.493E+00 1.000E+00 0.000E+00 0.000E+00
                               1049 S  
                                         1.830E-01 1.000E+00 0.000E+00 0.000E+00
                        1050-  1052 P  
                                         1.072E+03 0.000E+00 9.277E-03 0.000E+00
                                         2.527E+02 0.000E+00 6.954E-02 0.000E+00
                                         8.010E+01 0.000E+00 2.716E-01 0.000E+00
                                         2.890E+01 0.000E+00 5.340E-01 0.000E+00
                                         1.077E+01 0.000E+00 3.450E-01 0.000E+00
                        1053-  1055 P  
                                         5.645E+00 0.000E+00 3.413E-01 0.000E+00
                                         2.168E+00 0.000E+00 5.639E-01 0.000E+00
                                         8.054E-01 0.000E+00 2.368E-01 0.000E+00
                        1056-  1058 P  
                                         2.721E-01 0.000E+00 1.000E+00 0.000E+00
                        1059-  1063 D  
                                         5.609E+01 0.000E+00 0.000E+00 2.959E-02
                                         1.575E+01 0.000E+00 0.000E+00 1.587E-01
                                         5.312E+00 0.000E+00 0.000E+00 3.798E-01
                                         1.774E+00 0.000E+00 0.000E+00 4.690E-01
                        1064-  1068 D  
                                         5.073E-01 0.000E+00 0.000E+00 1.000E+00
                        1069-  1075 F  
                                         2.814E+00 0.000E+00 0.000E+00 1.000E+00
                        1076-  1082 F  
                                         1.300E+00 0.000E+00 0.000E+00 1.000E+00
  62 ZN   0.000   0.000  12.561

 *******************************************************************************
 FINISHED BASIS SET HANDLING 
 *******************************************************************************

 INFORMATION **** SET_MPP **** PCRYSTAL CALCULATION
 INFORMATION **** READM2 **** NEW DEFAULT: FOCK/KS MATRIX MIXING SET TO 30 %
 INFORMATION **** READM2 **** NEW DEFAULT: FULL DIRECT SCF MODE
 INFORMATION **** READM2 **** NEW DEFAULT: COULOMB BIPOLAR BUFFER SET TO 32 Mb
 INFORMATION **** READM2 **** NEW DEFAULT: EXCHANGE BIPOLAR BUFFER SET TO 32 Mb

 *******************************************************************************
 NEW DEFAULT: DFT INTEGRATION GRID INCREASED TO XLGRID
 NEW DEFAULT: DIIS ACCELERATOR ACTIVE
 USE KEYWORD NODIIS TO TURN IT OFF
 *******************************************************************************

 INFORMATION **** DFTD3_INPUT **** PERFORM DISPERSION CORRECTION DFT-D3(BJ) IN THE BECKE-JOHNSON DAMPING SCHEME

 PLEASE CITE:
 (1) DFT-D3 Reference
  S. Grimme, J. Antony, S. Ehrlich, and H. Krieg, J. Chem. Phys. 132 (2010), 154104
 (2) BJ-Damping Reference
  S. Grimme, S. Ehrlich, and L. Goerigk, J. Comput. Chem. 32 (2011), 1456-1465
 (3) General DFT-D Review
  S. Grimme, A. Hansen, J. G. Brandenburg, and C. Bannwarth,
  Chem. Rev. 116 (2016), 5105-5154

 INFORMATION **** BIPOSIZE **** COULOMB BIPOLAR BUFFER SET TO    30000000
 INFORMATION **** EXCHSIZE **** EXCHANGE BIPOLAR BUFFER SIZE SET TO    30000000
 INFORMATION **** TOLINTEG **** COULOMB AND EXCHANGE SERIES TOLERANCES MODIFIED
 INFORMATION **** MAXCYCLE **** MAX NUMBER OF SCF CYCLES SET TO          50
 *******************************************************************************
 N. OF ATOMS PER CELL        62  COULOMB OVERLAP TOL         (T1) 10**  -12
 NUMBER OF SHELLS           436  COULOMB PENETRATION TOL     (T2) 10**  -12
 NUMBER OF AO              1120  EXCHANGE OVERLAP TOL        (T3) 10**   20
 N. OF ELECTRONS PER CELL   552  EXCHANGE PSEUDO OVP (F(G))  (T4) 10**   20
 CORE ELECTRONS PER CELL    244  EXCHANGE PSEUDO OVP (P(G))  (T5) 10**   20
 N. OF SYMMETRY OPERATORS     4  POLE ORDER IN MONO ZONE                  4
 *******************************************************************************
 TYPE OF CALCULATION :  RESTRICTED CLOSED SHELL
 KOHN-SHAM HAMILTONIAN

 (EXCHANGE)[CORRELATION] FUNCTIONAL:(PERDEW-BURKE-ERNZERHOF)[PERDEW-BURKE-ERNZERHOF]


 CAPPA:IS1  3;IS2  3;IS3  3; K PTS MONK NET   6; SYMMOPS:K SPACE   8;G SPACE   4

 *******************************************************************************
 MAX NUMBER OF SCF CYCLES      50  CONVERGENCE ON DELTAP        10**-16
 WEIGHT OF F(I) IN F(I+1)      30% CONVERGENCE ON ENERGY        10**- 7
 SHRINK. FACT.(MONKH.)    3  3  3  NUMBER OF K POINTS IN THE IBZ      6
 SHRINKING FACTOR(GILAT NET)    3  NUMBER OF K POINTS(GILAT NET)      6
 *******************************************************************************
 *** K POINTS COORDINATES (OBLIQUE COORDINATES IN UNITS OF IS =  3)
   1-R(  0  0  0)   2-C(  1  0  0)   3-C(  1  1  0)   4-C(  2  1  0)
   5-C(  2  1  1)   6-C(  2  2  1)

 DIRECT LATTICE VECTORS COMPON. (A.U.)     RECIP. LATTICE VECTORS COMPON. (A.U.) 
        X            Y            Z              X            Y            Z
   -9.5979190    9.5979190   12.5610096      0.0000000    0.3273202    0.2501067
    9.5979190   -9.5979190   12.5610096      0.3273202    0.0000000    0.2501067
    9.5979190    9.5979190  -12.5610096      0.3273202    0.3273202    0.0000000

 DISK SPACE FOR EIGENVECTORS (FTN 10)    13798400 REALS

 SYMMETRY ADAPTION OF THE BLOCH FUNCTIONS ENABLED
 TTTTTTTTTTTTTTTTTTTTTTTTTTTTTT gordsh1     TELAPSE        1.32 TCPU        0.04

 MATRIX SIZE: P(G) 2119176, F(G) 1060532, P(G) IRR  267882, F(G) IRR  267882
 MAX G-VECTOR INDEX FOR 1- AND 2-ELECTRON INTEGRALS  63

 TTTTTTTTTTTTTTTTTTTTTTTTTTTTTT INPUT       TELAPSE        1.36 TCPU        0.08

 NEIGHBORS OF THE NON-EQUIVALENT ATOMS

 N = NUMBER OF NEIGHBORS AT DISTANCE R
    ATOM  N     R/ANG      R/AU   NEIGHBORS (ATOM LABELS AND CELL INDICES)
   1 H    1     1.0950     2.0692   25 C    0 0 1
   1 H    1     2.1707     4.1021   38 C    0 0 1
   1 H    1     2.1834     4.1260   17 C    0 0 1
   1 H    1     2.5186     4.7595    9 CL   0 0 1
   1 H    1     2.5548     4.8279   54 N    0-1 0
   1 H    1     2.7928     5.2776   21 C    0 0 1

   5 CL   1     1.0945     2.0684   33 C    0 0 0
   5 CL   1     2.0667     3.9055   57 N    0 0 0
   5 CL   1     2.1759     4.1119   17 C    0 0 0
   5 CL   1     2.5126     4.7480   46 N    0 0 0
   5 CL   1     2.5429     4.8053   42 N    0 0 0
   5 CL   1     2.6801     5.0646   21 C    0 0 0

   9 CL   1     1.0933     2.0660   38 C    0 0 0
   9 CL   1     2.1620     4.0855   29 C    0 0 0
   9 CL   1     2.1723     4.1051   25 C    0 0 0
   9 CL   1     2.1857     4.1305   10 CL   0-1-1
   9 CL   1     2.5186     4.7595    1 H    0 0-1
   9 CL   1     2.5285     4.7782   13 CL   0 0 0

  13 CL   1     1.0959     2.0709   29 C    0 0 0
  13 CL   1     2.0715     3.9145   57 N    0 0 0
  13 CL   1     2.1965     4.1508   38 C    0 0 0
  13 CL   1     2.5285     4.7782    9 CL   0 0 0
  13 CL   1     2.5654     4.8479   58 N    0 0 0
  13 CL   1     2.9124     5.5037   45 N    0 0 0

  17 C    1     1.4070     2.6588   25 C    0 0 0
  17 C    1     1.4077     2.6602   33 C    0 0 0
  17 C    1     1.4594     2.7579   21 C    0 0 0
  17 C    1     2.1759     4.1119    5 CL   0 0 0
  17 C    1     2.1834     4.1260    1 H    0 0-1
  17 C    1     2.4067     4.5479   38 C    0 0 0

  21 C    1     1.3492     2.5496   49 N    0 0-1
  21 C    1     1.3553     2.5611   41 N   -1 0-1
  21 C    1     1.4594     2.7579   17 C    0 0 0
  21 C    1     2.2025     4.1620   53 N   -1 0-1
  21 C    1     2.2049     4.1667   45 N   -1 0-1
  21 C    1     2.4633     4.6549   33 C    0 0 0

  25 C    1     1.0950     2.0692    1 H    0 0-1
  25 C    1     1.3970     2.6400   38 C    0 0 0
  25 C    1     1.4070     2.6588   17 C    0 0 0
  25 C    1     2.1723     4.1051    9 CL   0 0 0
  25 C    1     2.4118     4.5577   33 C    0 0 0
  25 C    1     2.4219     4.5767   29 C    0 0 0

  29 C    1     1.0959     2.0709   13 CL   0 0 0
  29 C    1     1.3493     2.5497   57 N    0 0 0
  29 C    1     1.4046     2.6543   38 C    0 0 0
  29 C    1     2.1620     4.0855    9 CL   0 0 0
  29 C    1     2.3056     4.3570   33 C    0 0 0
  29 C    1     2.4219     4.5767   25 C    0 0 0

  33 C    1     1.0945     2.0684    5 CL   0 0 0
  33 C    1     1.3387     2.5298   57 N    0 0 0
  33 C    1     1.4077     2.6602   17 C    0 0 0
  33 C    1     2.3056     4.3570   29 C    0 0 0
  33 C    1     2.4118     4.5577   25 C    0 0 0
  33 C    1     2.4633     4.6549   21 C    0 0 0

  37 C    1     1.0933     2.0660   10 CL   0 0 0
  37 C    1     1.3970     2.6400   26 C    0 0 0
  37 C    1     1.4046     2.6543   30 C    0 0 0
  37 C    1     2.1707     4.1021    2 H    1 1 1
  37 C    1     2.1965     4.1508   14 CL   0 0 0
  37 C    1     2.4067     4.5479   18 C    0 0 0

  41 N    1     1.3553     2.5611   21 C    1 0 1
  41 N    1     1.3781     2.6042   45 N    0 0 0
  41 N    1     1.9919     3.7642   61 ZN   1 1 0
  41 N    1     2.1855     4.1299   53 N    0 0 0
  41 N    1     2.1874     4.1336   49 N    1 0 0
  41 N    1     2.4882     4.7020   17 C    1 0 1

  45 N    1     1.3160     2.4870   53 N    0 0 0
  45 N    1     1.3781     2.6042   41 N    0 0 0
  45 N    1     2.1869     4.1326   49 N    1 0 0
  45 N    1     2.2049     4.1667   21 C    1 0 1
  45 N    1     2.5126     4.7480    6 CL   0 0 0
  45 N    1     2.9124     5.5037   13 CL   0 0 0

  49 N    1     1.3492     2.5496   21 C    0 0 1
  49 N    1     1.3792     2.6063   53 N   -1 0 0
  49 N    1     1.9667     3.7164   62 ZN  -1-1 0
  49 N    1     2.1869     4.1326   45 N   -1 0 0
  49 N    1     2.1874     4.1336   41 N   -1 0 0
  49 N    1     2.5229     4.7676   17 C    0 0 1

  53 N    1     1.3160     2.4870   45 N    0 0 0
  53 N    1     1.3792     2.6063   49 N    1 0 0
  53 N    1     2.1855     4.1299   41 N    0 0 0
  53 N    1     2.2025     4.1620   21 C    1 0 1
  53 N    1     2.5548     4.8279    2 H    1 0 0
  53 N    1     2.8762     5.4352   62 ZN   0-1 0

  57 N    1     1.3387     2.5298   33 C    0 0 0
  57 N    1     1.3493     2.5497   29 C    0 0 0
  57 N    1     2.0667     3.9055    5 CL   0 0 0
  57 N    1     2.0715     3.9145   13 CL   0 0 0
  57 N    1     2.4105     4.5552   38 C    0 0 0
  57 N    1     2.4226     4.5781   17 C    0 0 0

  61 ZN   4     1.9919     3.7642   41 N   -1-1 0   42 N    0-1 1   43 N    0-1 0
                                    44 N    0 0 1
  61 ZN   4     2.7756     5.2452    5 CL   0-1 1    6 CL  -1-1 0    7 CL   0 0 1
                                     8 CL   0-1 0
  61 ZN   4     2.9319     5.5406   45 N   -1-1 0   46 N    0-1 1   47 N    0-1 0
                                    48 N    0 0 1
  61 ZN   4     3.0692     5.7999   21 C    0-1 1   22 C   -1-1 0   23 C    0 0 1
                                    24 C    0-1 0
  61 ZN   4     3.2996     6.2354   33 C    0-1 1   34 C   -1-1 0   35 C    0 0 1
                                    36 C    0-1 0
  61 ZN   4     3.5259     6.6629   17 C    0-1 1   18 C   -1-1 0   19 C    0 0 1
                                    20 C    0-1 0

  62 ZN   4     1.9667     3.7164   49 N    1 1 0   50 N    1 1 0   51 N    0 0 0
                                    52 N    0 0 0
  62 ZN   4     2.8762     5.4352   53 N    0 1 0   54 N    1 0 0   55 N    0 0-1
                                    56 N    1 1 1
  62 ZN   4     3.0639     5.7900   21 C    1 1 1   22 C    0 0-1   23 C    0 1 0
                                    24 C    1 0 0
  62 ZN   4     3.0753     5.8115    1 H    1 1 0    2 H    1 1 0    3 H    0 0 0
                                     4 H    0 0 0
  62 ZN   4     3.6307     6.8610   25 C    1 1 1   26 C    0 0-1   27 C    0 1 0
                                    28 C    1 0 0
  62 ZN   4     3.6327     6.8649   17 C    1 1 1   18 C    0 0-1   19 C    0 1 0
                                    20 C    1 0 0


 SYMMETRY ALLOWED ELASTIC DISTORTION 1
  0.5773503  0.0000000  0.0000000
  0.0000000  0.5773503  0.0000000
  0.0000000  0.0000000  0.5773503

 SYMMETRY ALLOWED ELASTIC DISTORTION 2
  0.4082483  0.0000000  0.0000000
  0.0000000  0.4082483  0.0000000
  0.0000000  0.0000000 -0.8164966

 SYMMETRY ALLOWED INTERNAL DEGREE(S) OF FREEDOM:  45
 TTTTTTTTTTTTTTTTTTTTTTTTTTTTTT SYMM        TELAPSE        1.41 TCPU        0.12
 TTTTTTTTTTTTTTTTTTTTTTTTTTTTTT INT_SCREEN  TELAPSE        1.41 TCPU        0.13

 *******************************************************************************
 *                             OPTIMIZATION STARTS                             *
 *******************************************************************************
 RECLASIFICATION OF INDICES FOR INTEGRAL CALC ACCORDING TO DIFFERENT CRITERIA:
           FIXDELTE                  FIXDELTX              FIXDELTN
          0.10000000               0.80000000                 47
 DEFAULT MAX NUM OF POINTS  100
 *******************************************************************************

 *******************************************************************************
 COORDINATE AND CELL OPTIMIZATION - POINT    1
 INFORMATION **** EXCBUF **** EXCH. BIPO BUFFER: WORDS USED =           0

 DFT PARAMETERS

     ATOM       ELECTRONS   NET CHARGE   R(ANGSTROM)
   1   1  H       1.0000      0.0000     1.11000000
   5  17  CL     17.0000      0.0000     0.99000000
  17   6  C       6.0000      0.0000     0.77000000
  41   7  N       7.0000      0.0000     0.74000000
  61  30  ZN     30.0000      0.0000     1.37000000

 SIZE OF GRID=     457915
 TTTTTTTTTTTTTTTTTTTTTTTTTTTTTT MAKE_GRID2  TELAPSE        2.82 TCPU        1.53
 BECKE WEIGHT FUNCTION
 RADSAFE =     2.00
 TOLERANCES - DENSITY:10**- 6; POTENTIAL:10**- 9; GRID WGT:10**-14

 RADIAL INTEGRATION  - INTERVALS (POINTS,UPPER LIMIT):            1( 75,  4.0*R)

 ANGULAR INTEGRATION - INTERVALS (ACCURACY LEVEL [N. POINTS] UPPER LIMIT):
  1(  4[  86]   0.2)  2(  8[ 194]   0.5)  3( 12[ 350]   0.9)  4( 16[ 974]   3.5)
  5( 12[ 350]9999.0)
 TTTTTTTTTTTTTTTTTTTTTTTTTTTTTT INT_CALC    TELAPSE        2.88 TCPU        1.59

 *******************************************************************************
 C:\Users\wilso\AppData\Local\Temp\tmp_p\newconn.mol                             
 CRYSTAL - SCF - TYPE OF CALCULATION :  RESTRICTED CLOSED SHELL
 *******************************************************************************

 CAPPA:IS1  3;IS2  3;IS3  3; K PTS MONK NET   6; SYMMOPS:K SPACE   8;G SPACE   4

 TTTTTTTTTTTTTTTTTTTTTTTTTTTTTT SDIK        TELAPSE        3.11 TCPU        1.82

 AAAAAAAAAAAAAAAAAAAAAAAAAAAAAAAAAAAAAAAAAAAAAAAAAAAAAAAAAAAAAAAAAAAAAAAAAAAAAAA
         ATOMIC WAVEFUNCTION(S)


 NUCLEAR CHARGE  1.0  SYMMETRY SPECIES            S
 N. ELECTRONS    1.0  NUMBER OF PRIMITIVE GTOS    4
                      NUMBER OF CONTRACTED GTOS   2
                      NUMBER OF CLOSED SHELLS     0
                      OPEN SHELL OCCUPATION       1

  ZNUC SCFIT  TOTAL HF ENERGY   KINETIC ENERGY   VIRIAL THEOREM ACCURACY
   1.0   1   -4.946643675E-01  4.917913167E-01 -2.005842012E+00  9.4E-17

 NUCLEAR CHARGE 17.0  SYMMETRY SPECIES            S    P
 N. ELECTRONS   17.0  NUMBER OF PRIMITIVE GTOS   10    7
                      NUMBER OF CONTRACTED GTOS   4    3
                      NUMBER OF CLOSED SHELLS     3    1
                      OPEN SHELL OCCUPATION       0    5

  ZNUC SCFIT  TOTAL HF ENERGY   KINETIC ENERGY   VIRIAL THEOREM ACCURACY
  17.0   9   -4.593005957E+02  4.593991532E+02 -1.999785464E+00  2.3E-06

 NUCLEAR CHARGE  6.0  SYMMETRY SPECIES            S    P
 N. ELECTRONS    6.0  NUMBER OF PRIMITIVE GTOS    7    4
                      NUMBER OF CONTRACTED GTOS   3    2
                      NUMBER OF CLOSED SHELLS     2    0
                      OPEN SHELL OCCUPATION       0    2

  ZNUC SCFIT  TOTAL HF ENERGY   KINETIC ENERGY   VIRIAL THEOREM ACCURACY
   6.0   6   -3.750912652E+01  3.905246519E+01 -1.960480378E+00  3.7E-06

 NUCLEAR CHARGE  7.0  SYMMETRY SPECIES            S    P
 N. ELECTRONS    7.0  NUMBER OF PRIMITIVE GTOS    7    4
                      NUMBER OF CONTRACTED GTOS   3    2
                      NUMBER OF CLOSED SHELLS     2    0
                      OPEN SHELL OCCUPATION       0    3

  ZNUC SCFIT  TOTAL HF ENERGY   KINETIC ENERGY   VIRIAL THEOREM ACCURACY
   7.0   9   -5.432196661E+01  5.425066284E+01 -2.001314339E+00  1.2E-06

 NUCLEAR CHARGE 30.0  SYMMETRY SPECIES            S    P    D
 N. ELECTRONS   30.0  NUMBER OF PRIMITIVE GTOS   14    9    5
                      NUMBER OF CONTRACTED GTOS   5    3    2
                      NUMBER OF CLOSED SHELLS     4    2    1
                      OPEN SHELL OCCUPATION       0    0    0

  ZNUC SCFIT  TOTAL HF ENERGY   KINETIC ENERGY   VIRIAL THEOREM ACCURACY
  30.0  10   -1.777404290E+03  1.777325716E+03 -2.000044209E+00  2.5E-06

 AAAAAAAAAAAAAAAAAAAAAAAAAAAAAAAAAAAAAAAAAAAAAAAAAAAAAAAAAAAAAAAAAAAAAAAAAAAAAAA

 CHARGE NORMALIZATION FACTOR   1.00000000
 TOTAL ATOMIC CHARGES:
   1.0000000   1.0000000   1.0000000   1.0000000  17.0000000  17.0000000
  17.0000000  17.0000000  17.0000000  17.0000000  17.0000000  17.0000000
  17.0000000  17.0000000  17.0000000  17.0000000   6.0000000   6.0000000
   6.0000000   6.0000000   6.0000000   6.0000000   6.0000000   6.0000000
   6.0000000   6.0000000   6.0000000   6.0000000   6.0000000   6.0000000
   6.0000000   6.0000000   6.0000000   6.0000000   6.0000000   6.0000000
   6.0000000   6.0000000   6.0000000   6.0000000   7.0000000   7.0000000
   7.0000000   7.0000000   7.0000000   7.0000000   7.0000000   7.0000000
   7.0000000   7.0000000   7.0000000   7.0000000   7.0000000   7.0000000
   7.0000000   7.0000000   7.0000000   7.0000000   7.0000000   7.0000000
  30.0000000  30.0000000
 TTTTTTTTTTTTTTTTTTTTTTTTTTTTTT MOQGAD      TELAPSE        5.19 TCPU        3.89
 TTTTTTTTTTTTTTTTTTTTTTTTTTTTTT SHELLXN     TELAPSE       96.03 TCPU       90.39
 TTTTTTTTTTTTTTTTTTTTTTTTTTTTTT MONMO3      TELAPSE      101.01 TCPU       95.36
 NUMERICALLY INTEGRATED DENSITY    551.9999606251
 TTTTTTTTTTTTTTTTTTTTTTTTTTTTTT NUMDFT      TELAPSE      103.70 TCPU       98.04
 CYC   0 ETOT(AU) -1.110396281758E+04 DETOT -1.11E+04 tst  0.00E+00 PX  1.00E+00
 TTTTTTTTTTTTTTTTTTTTTTTTTTTTTT DIIS        TELAPSE      103.80 TCPU       98.14
 TTTTTTTTTTTTTTTTTTTTTTTTTTTTTT FDIK        TELAPSE      156.33 TCPU      144.71
 INSULATING STATE
 TOP OF VALENCE BANDS -    BAND    276; K    1; EIG -1.2897882E-01 AU
 BOTTOM OF VIRTUAL BANDS - BAND    277; K    5; EIG -1.1262976E-01 AU
 INDIRECT ENERGY BAND GAP:   0.4449 eV
 BOTTOM OF VIRTUAL BANDS - BAND    277; K    1; EIG -1.0895869E-01 AU
 TTTTTTTTTTTTTTTTTTTTTTTTTTTTTT PDIG        TELAPSE      157.26 TCPU      145.64
 CHARGE NORMALIZATION FACTOR   1.00000000
 TOTAL ATOMIC CHARGES:
   1.2220667   1.2220667   1.2220667   1.2220667  16.7131197  16.7131197
  16.7131197  16.7131197  16.9035317  16.9035317  16.9035317  16.9035317
  16.5662077  16.5662077  16.5662077  16.5662077   6.1723664   6.1723664
   6.1723664   6.1723664   5.5278049   5.5278049   5.5278049   5.5278049
   6.2536144   6.2536144   6.2536144   6.2536144   5.9720934   5.9720934
   5.9720934   5.9720934   6.0669866   6.0669866   6.0669866   6.0669866
   6.0980628   6.0980628   6.0980628   6.0980628   7.3760473   7.3760473
   7.3760473   7.3760473   7.1676288   7.1676288   7.1676288   7.1676288
   7.3808021   7.3808021   7.3808021   7.3808021   7.1776732   7.1776732
   7.1776732   7.1776732   7.5648353   7.5648353   7.5648353   7.5648353
  27.5500944  27.7985423
 TTTTTTTTTTTTTTTTTTTTTTTTTTTTTT MOQGAD      TELAPSE      157.32 TCPU      145.70
 TTTTTTTTTTTTTTTTTTTTTTTTTTTTTT SHELLXN     TELAPSE      260.83 TCPU      246.76
 TTTTTTTTTTTTTTTTTTTTTTTTTTTTTT MONMO3      TELAPSE      267.13 TCPU      253.04
 NUMERICALLY INTEGRATED DENSITY    551.9999733432
 TTTTTTTTTTTTTTTTTTTTTTTTTTTTTT NUMDFT      TELAPSE      274.76 TCPU      260.65
 CYC   1 ETOT(AU) -1.107396759893E+04 DETOT  3.00E+01 tst  0.00E+00 PX  1.00E+00
 TTTTTTTTTTTTTTTTTTTTTTTTTTTTTT DIIS        TELAPSE      274.98 TCPU      260.87
 DIIS TEST: 0.17507E+02 AT SCF   CYCLE   1 - MIX   30 %
 TTTTTTTTTTTTTTTTTTTTTTTTTTTTTT FDIK        TELAPSE      292.03 TCPU      275.23
 POSSIBLY CONDUCTING STATE - EFERMI(AU) -7.5683310E-02 (RES. CHARGE  1.21E-10;IT. 12)
 TTTTTTTTTTTTTTTTTTTTTTTTTTTTTT PDIG        TELAPSE      292.96 TCPU      276.16
 CHARGE NORMALIZATION FACTOR   1.00000000
 TOTAL ATOMIC CHARGES:
   1.3662547   1.3662547   1.3662547   1.3662547  17.5380256  17.5380256
  17.5380256  17.5380256  17.0968501  17.0968501  17.0968501  17.0968501
  16.8506429  16.8506429  16.8506429  16.8506429   6.2562466   6.2562466
   6.2562466   6.2562466   6.5697054   6.5697054   6.5697054   6.5697054
   6.3124744   6.3124744   6.3124744   6.3124744   5.8031411   5.8031411
   5.8031411   5.8031411   5.9297460   5.9297460   5.9297460   5.9297460
   5.5023040   5.5023040   5.5023040   5.5023040   7.5886004   7.5886004
   7.5886004   7.5886004   7.0536036   7.0536036   7.0536036   7.0536036
   7.1042424   7.1042424   7.1042424   7.1042424   6.8264737   6.8264737
   6.8264737   6.8264737   4.8343403   4.8343403   4.8343403   4.8343403
  31.5924863  29.8769089
 TTTTTTTTTTTTTTTTTTTTTTTTTTTTTT MOQGAD      TELAPSE      293.02 TCPU      276.22
 TTTTTTTTTTTTTTTTTTTTTTTTTTTTTT SHELLXN     TELAPSE      394.67 TCPU      377.54
 TTTTTTTTTTTTTTTTTTTTTTTTTTTTTT MONMO3      TELAPSE      401.12 TCPU      383.98
 NUMERICALLY INTEGRATED DENSITY    551.9999485831
 TTTTTTTTTTTTTTTTTTTTTTTTTTTTTT NUMDFT      TELAPSE      408.73 TCPU      391.55
 CYC   2 ETOT(AU) -1.106188643733E+04 DETOT  1.21E+01 tst  1.02E-01 PX  3.83E+00
 TTTTTTTTTTTTTTTTTTTTTTTTTTTTTT DIIS        TELAPSE      408.96 TCPU      391.77
 DIIS TEST: 0.96143E+02 AT SCF   CYCLE   2 - DIIS ACTIVE - HISTORY:     2 CYCLES
 TTTTTTTTTTTTTTTTTTTTTTTTTTTTTT FDIK        TELAPSE      426.31 TCPU      407.92
 INSULATING STATE
 TOP OF VALENCE BANDS -    BAND    276; K    5; EIG -1.3256810E-01 AU
 TOP OF VALENCE BANDS -    BAND    276; K    1; EIG -1.3680230E-01 AU
 BOTTOM OF VIRTUAL BANDS - BAND    277; K    1; EIG -9.5570228E-02 AU
 INDIRECT ENERGY BAND GAP:   1.0068 eV
 TTTTTTTTTTTTTTTTTTTTTTTTTTTTTT PDIG        TELAPSE      427.24 TCPU      408.85
 CHARGE NORMALIZATION FACTOR   1.00000000
 TOTAL ATOMIC CHARGES:
   1.3218134   1.3218134   1.3218134   1.3218134  16.8659536  16.8659536
  16.8659536  16.8659536  17.0503549  17.0503549  17.0503549  17.0503549
  17.5558691  17.5558691  17.5558691  17.5558691   5.8859728   5.8859728
   5.8859728   5.8859728   6.1108819   6.1108819   6.1108819   6.1108819
   6.0181882   6.0181882   6.0181882   6.0181882   6.1579164   6.1579164
   6.1579164   6.1579164   5.6272953   5.6272953   5.6272953   5.6272953
   5.4784937   5.4784937   5.4784937   5.4784937   6.3524436   6.3524436
   6.3524436   6.3524436   6.9946710   6.9946710   6.9946710   6.9946710
   6.7744492   6.7744492   6.7744492   6.7744492   7.1232994   7.1232994
   7.1232994   7.1232994   7.7473099   7.7473099   7.7473099   7.7473099
  29.8853385  29.8550120
 TTTTTTTTTTTTTTTTTTTTTTTTTTTTTT MOQGAD      TELAPSE      427.30 TCPU      408.91
 TTTTTTTTTTTTTTTTTTTTTTTTTTTTTT SHELLXN     TELAPSE      530.77 TCPU      509.89
 TTTTTTTTTTTTTTTTTTTTTTTTTTTTTT MONMO3      TELAPSE      536.98 TCPU      516.08
 NUMERICALLY INTEGRATED DENSITY    551.9999525929
 TTTTTTTTTTTTTTTTTTTTTTTTTTTTTT NUMDFT      TELAPSE      544.55 TCPU      523.62
 CYC   3 ETOT(AU) -1.107260795228E+04 DETOT -1.07E+01 tst  8.21E-01 PX  3.12E+00
 TTTTTTTTTTTTTTTTTTTTTTTTTTTTTT DIIS        TELAPSE      544.75 TCPU      523.82
 DIIS TEST: 0.23446E+02 AT SCF   CYCLE   3 - DIIS ACTIVE - HISTORY:     3 CYCLES
 TTTTTTTTTTTTTTTTTTTTTTTTTTTTTT FDIK        TELAPSE      563.04 TCPU      539.90
 INSULATING STATE
 TOP OF VALENCE BANDS -    BAND    276; K    3; EIG -1.3842136E-01 AU
 TOP OF VALENCE BANDS -    BAND    276; K    1; EIG -1.4443702E-01 AU
 BOTTOM OF VIRTUAL BANDS - BAND    277; K    5; EIG -9.4264384E-02 AU
 INDIRECT ENERGY BAND GAP:   1.2016 eV
 BOTTOM OF VIRTUAL BANDS - BAND    277; K    1; EIG -9.0790500E-02 AU
 TTTTTTTTTTTTTTTTTTTTTTTTTTTTTT PDIG        TELAPSE      563.96 TCPU      540.81
 CHARGE NORMALIZATION FACTOR   1.00000000
 TOTAL ATOMIC CHARGES:
   1.2195815   1.2195815   1.2195815   1.2195815  17.0582435  17.0582435
  17.0582435  17.0582435  17.3008217  17.3008217  17.3008217  17.3008217
  16.6448211  16.6448211  16.6448211  16.6448211   6.3290844   6.3290844
   6.3290844   6.3290844   5.7623065   5.7623065   5.7623065   5.7623065
   6.3205690   6.3205690   6.3205690   6.3205690   5.6299934   5.6299934
   5.6299934   5.6299934   5.8692910   5.8692910   5.8692910   5.8692910
   5.8157074   5.8157074   5.8157074   5.8157074   7.3513762   7.3513762
   7.3513762   7.3513762   7.0442460   7.0442460   7.0442460   7.0442460
   7.1117876   7.1117876   7.1117876   7.1117876   6.9832614   6.9832614
   6.9832614   6.9832614   7.1202853   7.1202853   7.1202853   7.1202853
  28.8590983  28.8953980
 TTTTTTTTTTTTTTTTTTTTTTTTTTTTTT MOQGAD      TELAPSE      564.02 TCPU      540.87
 TTTTTTTTTTTTTTTTTTTTTTTTTTTTTT SHELLXN     TELAPSE      667.45 TCPU      641.84
 TTTTTTTTTTTTTTTTTTTTTTTTTTTTTT MONMO3      TELAPSE      671.92 TCPU      646.30
 NUMERICALLY INTEGRATED DENSITY    551.9999683366
 TTTTTTTTTTTTTTTTTTTTTTTTTTTTTT NUMDFT      TELAPSE      679.53 TCPU      653.88
 CYC   4 ETOT(AU) -1.107638819423E+04 DETOT -3.78E+00 tst  2.68E-01 PX  6.48E-01
 TTTTTTTTTTTTTTTTTTTTTTTTTTTTTT DIIS        TELAPSE      679.74 TCPU      654.08
 DIIS TEST: 0.30460E+01 AT SCF   CYCLE   4 - DIIS ACTIVE - HISTORY:     4 CYCLES
 TTTTTTTTTTTTTTTTTTTTTTTTTTTTTT FDIK        TELAPSE      694.20 TCPU      668.40
 INSULATING STATE
 TOP OF VALENCE BANDS -    BAND    276; K    4; EIG -1.2085342E-01 AU
 TOP OF VALENCE BANDS -    BAND    276; K    1; EIG -1.2758845E-01 AU
 BOTTOM OF VIRTUAL BANDS - BAND    277; K    3; EIG -8.9599347E-02 AU
 INDIRECT ENERGY BAND GAP:   0.8505 eV
 BOTTOM OF VIRTUAL BANDS - BAND    277; K    1; EIG -8.6783554E-02 AU
 TTTTTTTTTTTTTTTTTTTTTTTTTTTTTT PDIG        TELAPSE      695.14 TCPU      669.34
 CHARGE NORMALIZATION FACTOR   1.00000000
 TOTAL ATOMIC CHARGES:
   1.2428631   1.2428631   1.2428631   1.2428631  17.0742104  17.0742104
  17.0742104  17.0742104  16.8824517  16.8824517  16.8824517  16.8824517
  16.9590306  16.9590306  16.9590306  16.9590306   6.0910249   6.0910249
   6.0910249   6.0910249   5.8268962   5.8268962   5.8268962   5.8268962
   6.2089178   6.2089178   6.2089178   6.2089178   6.0105613   6.0105613
   6.0105613   6.0105613   5.8885612   5.8885612   5.8885612   5.8885612
   5.7095147   5.7095147   5.7095147   5.7095147   7.2528630   7.2528630
   7.2528630   7.2528630   7.0594582   7.0594582   7.0594582   7.0594582
   7.2444024   7.2444024   7.2444024   7.2444024   7.0957962   7.0957962
   7.0957962   7.0957962   7.0197001   7.0197001   7.0197001   7.0197001
  28.9186722  28.8163207
 TTTTTTTTTTTTTTTTTTTTTTTTTTTTTT MOQGAD      TELAPSE      695.20 TCPU      669.39
 TTTTTTTTTTTTTTTTTTTTTTTTTTTTTT SHELLXN     TELAPSE      796.78 TCPU      770.47
 TTTTTTTTTTTTTTTTTTTTTTTTTTTTTT MONMO3      TELAPSE      803.21 TCPU      776.88
 NUMERICALLY INTEGRATED DENSITY    551.9999711001
 TTTTTTTTTTTTTTTTTTTTTTTTTTTTTT NUMDFT      TELAPSE      810.85 TCPU      784.49
 CYC   5 ETOT(AU) -1.107661080710E+04 DETOT -2.23E-01 tst  7.30E-03 PX  1.65E-01
 TTTTTTTTTTTTTTTTTTTTTTTTTTTTTT DIIS        TELAPSE      811.10 TCPU      784.74
 DIIS TEST: 0.13033E+01 AT SCF   CYCLE   5 - DIIS ACTIVE - HISTORY:     5 CYCLES
 TTTTTTTTTTTTTTTTTTTTTTTTTTTTTT FDIK        TELAPSE      827.51 TCPU      798.26
 INSULATING STATE
 TOP OF VALENCE BANDS -    BAND    276; K    4; EIG -1.2919917E-01 AU
 TOP OF VALENCE BANDS -    BAND    276; K    1; EIG -1.3618334E-01 AU
 BOTTOM OF VIRTUAL BANDS - BAND    277; K    5; EIG -8.9294584E-02 AU
 INDIRECT ENERGY BAND GAP:   1.0859 eV
 BOTTOM OF VIRTUAL BANDS - BAND    277; K    1; EIG -8.5300217E-02 AU
 TTTTTTTTTTTTTTTTTTTTTTTTTTTTTT PDIG        TELAPSE      828.43 TCPU      799.18
 CHARGE NORMALIZATION FACTOR   1.00000000
 TOTAL ATOMIC CHARGES:
   1.2379645   1.2379645   1.2379645   1.2379645  16.9661573  16.9661573
  16.9661573  16.9661573  17.1977653  17.1977653  17.1977653  17.1977653
  16.8250262  16.8250262  16.8250262  16.8250262   6.1693002   6.1693002
   6.1693002   6.1693002   5.8847731   5.8847731   5.8847731   5.8847731
   6.2561819   6.2561819   6.2561819   6.2561819   5.8356823   5.8356823
   5.8356823   5.8356823   5.8256011   5.8256011   5.8256011   5.8256011
   5.7916660   5.7916660   5.7916660   5.7916660   7.1309425   7.1309425
   7.1309425   7.1309425   7.0798965   7.0798965   7.0798965   7.0798965
   7.0952240   7.0952240   7.0952240   7.0952240   7.0820542   7.0820542
   7.0820542   7.0820542   7.1543598   7.1543598   7.1543598   7.1543598
  28.9475549  28.9220648
 TTTTTTTTTTTTTTTTTTTTTTTTTTTTTT MOQGAD      TELAPSE      828.49 TCPU      799.23
 TTTTTTTTTTTTTTTTTTTTTTTTTTTTTT SHELLXN     TELAPSE      929.75 TCPU      900.13
 TTTTTTTTTTTTTTTTTTTTTTTTTTTTTT MONMO3      TELAPSE      936.49 TCPU      906.84
 NUMERICALLY INTEGRATED DENSITY    551.9999681770
 TTTTTTTTTTTTTTTTTTTTTTTTTTTTTT NUMDFT      TELAPSE      944.16 TCPU      914.48
 CYC   6 ETOT(AU) -1.107680842313E+04 DETOT -1.98E-01 tst  3.95E-03 PX  1.21E-01
 TTTTTTTTTTTTTTTTTTTTTTTTTTTTTT DIIS        TELAPSE      944.38 TCPU      914.70
 DIIS TEST: 0.22665E+00 AT SCF   CYCLE   6 - DIIS ACTIVE - HISTORY:     6 CYCLES
 TTTTTTTTTTTTTTTTTTTTTTTTTTTTTT FDIK        TELAPSE      962.19 TCPU      930.03
 INSULATING STATE
 TOP OF VALENCE BANDS -    BAND    276; K    3; EIG -1.2709368E-01 AU
 TOP OF VALENCE BANDS -    BAND    276; K    1; EIG -1.3408650E-01 AU
 BOTTOM OF VIRTUAL BANDS - BAND    277; K    5; EIG -8.8638893E-02 AU
 INDIRECT ENERGY BAND GAP:   1.0464 eV
 BOTTOM OF VIRTUAL BANDS - BAND    277; K    1; EIG -8.5782263E-02 AU
 TTTTTTTTTTTTTTTTTTTTTTTTTTTTTT PDIG        TELAPSE      963.13 TCPU      930.97
 CHARGE NORMALIZATION FACTOR   1.00000000
 TOTAL ATOMIC CHARGES:
   1.2342240   1.2342240   1.2342240   1.2342240  17.0379545  17.0379545
  17.0379545  17.0379545  17.0847231  17.0847231  17.0847231  17.0847231
  16.8576987  16.8576987  16.8576987  16.8576987   6.2013525   6.2013525
   6.2013525   6.2013525   5.8454384   5.8454384   5.8454384   5.8454384
   6.2494658   6.2494658   6.2494658   6.2494658   5.8254328   5.8254328
   5.8254328   5.8254328   5.8705150   5.8705150   5.8705150   5.8705150
   5.7325092   5.7325092   5.7325092   5.7325092   7.2180789   7.2180789
   7.2180789   7.2180789   7.0691664   7.0691664   7.0691664   7.0691664
   7.0927406   7.0927406   7.0927406   7.0927406   7.0126016   7.0126016
   7.0126016   7.0126016   7.2030175   7.2030175   7.2030175   7.2030175
  28.9506402  28.9096838
 TTTTTTTTTTTTTTTTTTTTTTTTTTTTTT MOQGAD      TELAPSE      963.19 TCPU      931.02
 TTTTTTTTTTTTTTTTTTTTTTTTTTTTTT SHELLXN     TELAPSE     1065.87 TCPU     1031.34
[...]
  57 N    1     2.4043     4.5434   17 C    0 0 0
  57 N    1     2.6079     4.9283    5 CL   0 0 0
  57 N    1     2.6264     4.9632   13 CL   0 0 0

  61 ZN   4     2.2139     4.1837   41 N   -1-1 0   42 N    0-1 1   43 N    0-1 0
                                    44 N    0 0 1
  61 ZN   4     3.0825     5.8252   45 N   -1-1 0   46 N    0-1 1   47 N    0-1 0
                                    48 N    0 0 1
  61 ZN   4     3.1666     5.9840    5 CL   0-1 1    6 CL  -1-1 0    7 CL   0 0 1
                                     8 CL   0-1 0
  61 ZN   4     3.3504     6.3313   21 C    0-1 1   22 C   -1-1 0   23 C    0 0 1
                                    24 C    0-1 0
  61 ZN   4     3.6066     6.8155   33 C    0-1 1   34 C   -1-1 0   35 C    0 0 1
                                    36 C    0-1 0
  61 ZN   4     3.7408     7.0691   17 C    0-1 1   18 C   -1-1 0   19 C    0 0 1
                                    20 C    0-1 0

  62 ZN   4     2.1629     4.0873   49 N    1 1 0   50 N    1 1 0   51 N    0 0 0
                                    52 N    0 0 0
  62 ZN   4     2.8933     5.4676   53 N    0 1 0   54 N    1 0 0   55 N    0 0-1
                                    56 N    1 1 1
  62 ZN   4     3.3956     6.4167   21 C    1 1 1   22 C    0 0-1   23 C    0 1 0
                                    24 C    1 0 0
  62 ZN   4     3.7896     7.1614    1 H    1 1 0    2 H    1 1 0    3 H    0 0 0
                                     4 H    0 0 0
  62 ZN   4     4.1259     7.7969   17 C    1 1 1   18 C    0 0-1   19 C    0 1 0
                                    20 C    1 0 0
  62 ZN   4     4.1286     7.8020   45 N    0 1 0   46 N    1 0 0   47 N    0 0-1
                                    48 N    1 1 1


 FINAL OPTIMIZED GEOMETRY - DIMENSIONALITY OF THE SYSTEM      3
 (NON PERIODIC DIRECTION: LATTICE PARAMETER FORMALLY SET TO 500)
 *******************************************************************************
 LATTICE PARAMETERS (ANGSTROMS AND DEGREES) - BOHR = 0.5291772083 ANGSTROM
 PRIMITIVE CELL - CENTRING CODE 6/0 VOLUME=   811.812637 - DENSITY  2.290 g/cm^3
         A              B              C           ALPHA      BETA       GAMMA 
    10.18133009    10.18133009    10.18133009   108.561011 108.561011 111.307392
 *******************************************************************************
 ATOMS IN THE ASYMMETRIC UNIT   17 - ATOMS IN THE UNIT CELL:   62
     ATOM                 X/A                 Y/B                 Z/C    
 *******************************************************************************
      1 T   1 H    -7.942843115832E-02 -1.751324852262E-01  3.455596537293E-01
      2 F   1 H     4.793078610445E-01 -4.249880848876E-01 -3.455596537293E-01
      3 F   1 H     1.751324852262E-01 -4.793078610445E-01  9.570405406788E-02
      4 F   1 H     4.249880848876E-01  7.942843115832E-02 -9.570405406788E-02
      5 T  17 CL   -3.462867300806E-01  1.464357299915E-03 -3.749593179211E-01
      6 F  17 CL    3.764236752210E-01  2.867258784045E-02  3.749593179211E-01
      7 F  17 CL   -1.464357299915E-03 -3.764236752210E-01 -3.477510873806E-01
      8 F  17 CL   -2.867258784045E-02  3.462867300806E-01  3.477510873806E-01
      9 T  17 CL    2.333664235177E-01 -3.838677747779E-02 -3.955211540296E-01
     10 F  17 CL    3.571343765518E-01 -3.711124224527E-01  3.955211540296E-01
     11 F  17 CL    3.838677747779E-02 -3.571343765518E-01  2.717532009955E-01
     12 F  17 CL    3.711124224527E-01 -2.333664235177E-01 -2.717532009955E-01
     13 T  17 CL    1.998684264859E-01  3.956658131376E-02 -8.378880130336E-02
     14 F  17 CL    1.233553826171E-01  2.836572277892E-01  8.378880130336E-02
     15 F  17 CL   -3.956658131376E-02 -1.233553826171E-01  1.603018451721E-01
     16 F  17 CL   -2.836572277892E-01 -1.998684264859E-01 -1.603018451721E-01
     17 T   6 C    -2.117013641993E-01 -1.113412362730E-01  4.561461950433E-01
     18 F   6 C     4.325125686838E-01  3.321524407574E-01 -4.561461950433E-01
     19 F   6 C     1.113412362730E-01 -4.325125686838E-01 -1.003601279264E-01
     20 F   6 C    -3.321524407574E-01  2.117013641993E-01  1.003601279264E-01
     21 T   6 C    -3.297580344021E-01 -1.290204577029E-01  3.144041701896E-01
     22 F   6 C    -4.434246278925E-01  3.558377954083E-01 -3.144041701896E-01
     23 F   6 C     1.290204577029E-01  4.434246278925E-01 -2.007375766992E-01
     24 F   6 C    -3.558377954083E-01  3.297580344021E-01  2.007375766992E-01
     25 T   6 C    -8.174926350537E-02 -1.289795536019E-01  4.560108652271E-01
     26 F   6 C     4.150095811709E-01  4.622398712675E-01 -4.560108652271E-01
     27 F   6 C     1.289795536019E-01 -4.150095811709E-01  4.723029009656E-02
     28 F   6 C    -4.622398712675E-01  8.174926350537E-02 -4.723029009656E-02
     29 T   6 C     4.529781018608E-02 -1.350820125211E-02 -2.610918439572E-01
     30 F   6 C     2.475836427051E-01  3.063896541433E-01  2.610918439572E-01
     31 F   6 C     1.350820125211E-02 -2.475836427051E-01  5.880601143819E-02
     32 F   6 C    -3.063896541433E-01 -4.529781018608E-02 -5.880601143819E-02
     33 T   6 C    -2.005237636429E-01 -4.169548886479E-02 -3.943273630109E-01
     34 F   6 C     3.526318741461E-01  1.938035993679E-01  3.943273630109E-01
     35 F   6 C     4.169548886479E-02 -3.526318741461E-01 -1.588282747782E-01
     36 F   6 C    -1.938035993679E-01  2.005237636429E-01  1.588282747782E-01
     37 T   6 C     3.331806483148E-01  4.553450984339E-01  4.015389809578E-01
     38 F   6 C     5.380611747611E-02 -6.835833264301E-02 -4.015389809578E-01
     39 F   6 C    -4.553450984339E-01 -5.380611747611E-02 -1.221644501191E-01
     40 F   6 C     6.835833264301E-02 -3.331806483148E-01  1.221644501191E-01
     41 T   7 N    -3.521853419357E-01 -3.212703841539E-03  3.210802480950E-01
     42 F   7 N    -3.242929519365E-01  3.267344099694E-01 -3.210802480950E-01
     43 F   7 N     3.212703841539E-03  3.242929519365E-01 -3.489726380941E-01
     44 F   7 N    -3.267344099694E-01  3.521853419357E-01  3.489726380941E-01
     45 T   7 N    -4.679529131911E-01 -5.702069169397E-02  1.702390867458E-01
     46 F   7 N    -2.272597784397E-01  3.618080000632E-01 -1.702390867458E-01
     47 F   7 N     5.702069169397E-02  2.272597784397E-01 -4.109322214971E-01
     48 F   7 N    -3.618080000632E-01  4.679529131911E-01  4.109322214971E-01
     49 T   7 N    -4.243733222544E-01 -2.560745697984E-01  1.622526959378E-01
     50 F   7 N    -4.183272657362E-01  4.133739818078E-01 -1.622526959378E-01
     51 F   7 N     2.560745697984E-01  4.183272657362E-01 -1.682987524560E-01
     52 F   7 N    -4.133739818078E-01  4.243733222544E-01  1.682987524560E-01
     53 T   7 N     4.899215346937E-01 -2.059433810495E-01  7.612268796751E-02
     54 F   7 N    -2.820660690170E-01  4.137988467261E-01 -7.612268796751E-02
     55 F   7 N     2.059433810495E-01  2.820660690170E-01 -3.041350842568E-01
     56 F   7 N    -4.137988467261E-01 -4.899215346937E-01  3.041350842568E-01
     57 T   7 N    -7.922619282814E-02 -8.515559520850E-04 -2.600552486988E-01
     58 F   7 N     2.592036927468E-01  1.808290558707E-01  2.600552486988E-01
     59 F   7 N     8.515559520849E-04 -2.592036927468E-01 -7.837463687605E-02
     60 F   7 N    -1.808290558707E-01  7.922619282814E-02  7.837463687605E-02
     61 T  30 ZN   -2.500000000000E-01  2.500000000000E-01 -5.000000000000E-01
     62 T  30 ZN   -5.000000000000E-01 -5.000000000000E-01  6.291564258021E-20

 TRANSFORMATION MATRIX PRIMITIVE-CRYSTALLOGRAPHIC CELL
  0.0000  1.0000  1.0000  1.0000  0.0000  1.0000  1.0000  1.0000  0.0000

 *******************************************************************************
 CRYSTALLOGRAPHIC CELL (VOLUME=       1623.62527380)
         A              B              C           ALPHA      BETA       GAMMA 
    11.88807708    11.88807708    11.48848016    90.000000  90.000000  90.000000

 COORDINATES IN THE CRYSTALLOGRAPHIC CELL
     ATOM                 X/A                 Y/B                 Z/C    
 *******************************************************************************
      1 T   1 H     1.249277998307E-01  2.206318538986E-01 -3.000602850569E-01
      2 F   1 H    -1.249277998307E-01 -2.206318538986E-01 -3.000602850569E-01
      3 F   1 H     2.206318538986E-01 -1.249277998307E-01  3.000602850569E-01
      4 F   1 H    -2.206318538986E-01  1.249277998307E-01  3.000602850569E-01
      5 T  17 CL   -1.360411527027E-02 -3.613552026508E-01  1.506847257018E-02
      6 F  17 CL    1.360411527027E-02  3.613552026508E-01  1.506847257018E-02
      7 F  17 CL   -3.613552026508E-01  1.360411527027E-02 -1.506847257018E-02
      8 F  17 CL    3.613552026508E-01 -1.360411527027E-02 -1.506847257018E-02
      9 T  17 CL   -3.336371775126E-01 -6.188397651707E-02  2.952504000348E-01
     10 F  17 CL    3.336371775126E-01  6.188397651707E-02  2.952504000348E-01
     11 F  17 CL   -6.188397651707E-02  3.336371775126E-01 -2.952504000348E-01
     12 F  17 CL    6.188397651707E-02 -3.336371775126E-01 -2.952504000348E-01
     13 T  17 CL   -1.220453232377E-01  3.825652193438E-02  1.616119045515E-01
     14 F  17 CL    1.220453232377E-01 -3.825652193438E-02  1.616119045515E-01
     15 F  17 CL    3.825652193438E-02  1.220453232377E-01 -1.616119045515E-01
     16 F  17 CL   -3.825652193438E-02 -1.220453232377E-01 -1.616119045515E-01
     17 T   6 C    -2.217468385152E-01 -3.221069664416E-01  1.104056022422E-01
     18 F   6 C     2.217468385152E-01  3.221069664416E-01  1.104056022422E-01
     19 F   6 C    -3.221069664416E-01  2.217468385152E-01 -1.104056022422E-01
     20 F   6 C     3.221069664416E-01 -2.217468385152E-01 -1.104056022422E-01
     21 T   6 C    -2.424291265556E-01 -4.431667032548E-01  1.134086688527E-01
     22 F   6 C     2.424291265556E-01  4.431667032548E-01  1.134086688527E-01
     23 F   6 C    -4.431667032548E-01  2.424291265556E-01 -1.134086688527E-01
     24 F   6 C     4.431667032548E-01 -2.424291265556E-01 -1.134086688527E-01
     25 T   6 C    -2.956097124347E-01 -2.483794223381E-01  1.666301588328E-01
     26 F   6 C     2.956097124347E-01  2.483794223381E-01  1.666301588328E-01
     27 F   6 C    -2.483794223381E-01  2.956097124347E-01 -1.666301588328E-01
     28 F   6 C     2.483794223381E-01 -2.956097124347E-01 -1.666301588328E-01
     29 T   6 C    -1.599489276977E-01 -1.011429162595E-01  1.464407264456E-01
     30 F   6 C     1.599489276977E-01  1.011429162595E-01  1.464407264456E-01
     31 F   6 C    -1.011429162595E-01  1.599489276977E-01 -1.464407264456E-01
     32 F   6 C     1.011429162595E-01 -1.599489276977E-01 -1.464407264456E-01
     33 T   6 C    -1.177495441164E-01 -2.765778188945E-01  7.605405525157E-02
     34 F   6 C     1.177495441164E-01  2.765778188945E-01  7.605405525157E-02
     35 F   6 C    -2.765778188945E-01  1.177495441164E-01 -7.605405525157E-02
     36 F   6 C     2.765778188945E-01 -1.177495441164E-01 -7.605405525157E-02
     37 T   6 C     2.618517155385E-01  1.396872654193E-01  1.934933828954E-01
     38 F   6 C    -2.618517155385E-01 -1.396872654193E-01  1.934933828954E-01
     39 F   6 C     1.396872654193E-01 -2.618517155385E-01 -1.934933828954E-01
     40 F   6 C    -1.396872654193E-01  2.618517155385E-01 -1.934933828954E-01
     41 T   7 N    -1.649735569054E-01  4.860538050004E-01  1.617608530639E-01
     42 F   7 N     1.649735569054E-01 -4.860538050004E-01  1.617608530639E-01
     43 F   7 N     4.860538050004E-01  1.649735569054E-01 -1.617608530639E-01
     44 F   7 N    -4.860538050004E-01 -1.649735569054E-01 -1.617608530639E-01
     45 T   7 N    -2.094143458786E-01  3.796534326243E-01  1.523936541846E-01
     46 F   7 N     2.094143458786E-01 -3.796534326243E-01  1.523936541846E-01
     47 F   7 N     3.796534326243E-01  2.094143458786E-01 -1.523936541846E-01
     48 F   7 N    -3.796534326243E-01 -2.094143458786E-01 -1.523936541846E-01
     49 T   7 N     1.652757241969E-01 -3.023028259104E-03 -4.213502939953E-01
     50 F   7 N    -1.652757241969E-01  3.023028259104E-03 -4.213502939953E-01
     51 F   7 N    -3.023028259104E-03 -1.652757241969E-01  4.213502939953E-01
     52 F   7 N     3.023028259104E-03  1.652757241969E-01  4.213502939953E-01
     53 T   7 N    -3.098711138878E-01  3.859938018553E-01  1.039277328383E-01
     54 F   7 N     3.098711138878E-01 -3.859938018553E-01  1.039277328383E-01
     55 F   7 N     3.859938018553E-01  3.098711138878E-01 -1.039277328383E-01
     56 F   7 N    -3.859938018553E-01 -3.098711138878E-01 -1.039277328383E-01
     57 T   7 N    -9.084030591140E-02 -1.692149427874E-01  8.998874995931E-02
     58 F   7 N     9.084030591140E-02  1.692149427874E-01  8.998874995931E-02
     59 F   7 N    -1.692149427874E-01  9.084030591140E-02 -8.998874995931E-02
     60 F   7 N     1.692149427874E-01 -9.084030591140E-02 -8.998874995931E-02
     61 T  30 ZN    4.626932236752E-17 -5.000000000000E-01  2.500000000000E-01
     62 T  30 ZN    0.000000000000E+00  6.291564258021E-20 -5.000000000000E-01

 T = ATOM BELONGING TO THE ASYMMETRIC UNIT
 INFORMATION **** fort.34 **** GEOMETRY OUTPUT FILE

 DIRECT LATTICE VECTORS CARTESIAN COMPONENTS (ANGSTROM)
          X                    Y                    Z
  -0.594403853881E+01   0.594403853881E+01   0.574424008036E+01
   0.594403853881E+01  -0.594403853881E+01   0.574424008036E+01
   0.594403853881E+01   0.594403853881E+01  -0.574424008036E+01


 CARTESIAN COORDINATES - PRIMITIVE CELL
 *******************************************************************************
 *      ATOM          X(ANGSTROM)         Y(ANGSTROM)         Z(ANGSTROM)
 *******************************************************************************
    1     1 H     1.485151313526E+00  2.622888484926E+00 -3.447236631899E+00
    2     1 H    -1.485151313526E+00 -2.622888484926E+00 -3.447236631899E+00
    3     1 H     2.622888484926E+00 -1.485151313526E+00  3.447236631899E+00
    4     1 H    -2.622888484926E+00  1.485151313526E+00  3.447236631899E+00
    5    17 CL   -1.617267709059E-01 -4.295818501514E+00  1.731138481750E-01
    6    17 CL    1.617267709059E-01  4.295818501514E+00  1.731138481750E-01
    7    17 CL   -4.295818501514E+00  1.617267709059E-01 -1.731138481750E-01
    8    17 CL    4.295818501514E+00 -1.617267709059E-01 -1.731138481750E-01
    9    17 CL   -3.966304482231E+00 -7.356814827050E-01  3.391978363246E+00
   10    17 CL    3.966304482231E+00  7.356814827050E-01  3.391978363246E+00
   11    17 CL   -7.356814827050E-01  3.966304482231E+00 -3.391978363246E+00
   12    17 CL    7.356814827050E-01 -3.966304482231E+00 -3.391978363246E+00
   13    17 CL   -1.450884209614E+00  4.547964814779E-01  1.856675159177E+00
   14    17 CL    1.450884209614E+00 -4.547964814779E-01  1.856675159177E+00
   15    17 CL    4.547964814779E-01  1.450884209614E+00 -1.856675159177E+00
   16    17 CL   -4.547964814779E-01 -1.450884209614E+00 -1.856675159177E+00
   17     6 C    -2.636143507988E+00 -3.829232444298E+00  1.268392570993E+00
   18     6 C     2.636143507988E+00  3.829232444298E+00  1.268392570993E+00
   19     6 C    -3.829232444298E+00  2.636143507988E+00 -1.268392570993E+00
   20     6 C     3.829232444298E+00 -2.636143507988E+00 -1.268392570993E+00
   21     6 C    -2.882016142355E+00 -5.268399926530E+00  1.302893242169E+00
   22     6 C     2.882016142355E+00  5.268399926530E+00  1.302893242169E+00
   23     6 C    -5.268399926530E+00  2.882016142355E+00 -1.302893242169E+00
   24     6 C     5.268399926530E+00 -2.882016142355E+00 -1.302893242169E+00
   25     6 C    -3.514231046319E+00 -2.952753717252E+00  1.914327273929E+00
   26     6 C     3.514231046319E+00  2.952753717252E+00  1.914327273929E+00
   27     6 C    -2.952753717252E+00  3.514231046319E+00 -1.914327273929E+00
   28     6 C     2.952753717252E+00 -3.514231046319E+00 -1.914327273929E+00
   29     6 C    -1.901485180954E+00 -1.202394784349E+00  1.682381380493E+00
   30     6 C     1.901485180954E+00  1.202394784349E+00  1.682381380493E+00
   31     6 C    -1.202394784349E+00  1.901485180954E+00 -1.682381380493E+00
   32     6 C     1.202394784349E+00 -1.901485180954E+00 -1.682381380493E+00
   33     6 C    -1.399815656311E+00 -3.287978428980E+00  8.737455049006E-01
   34     6 C     1.399815656311E+00  3.287978428980E+00  8.737455049006E-01
   35     6 C    -3.287978428980E+00  1.399815656311E+00 -8.737455049006E-01
   36     6 C     3.287978428980E+00 -1.399815656311E+00 -8.737455049006E-01
   37     6 C     3.112913377230E+00  1.660612978068E+00  2.222944890626E+00
   38     6 C    -3.112913377230E+00 -1.660612978068E+00  2.222944890626E+00
   39     6 C     1.660612978068E+00 -3.112913377230E+00 -2.222944890626E+00
   40     6 C    -1.660612978068E+00  3.112913377230E+00 -2.222944890626E+00
   41     7 N    -1.961218360262E+00  5.778245097719E+00  1.858386351207E+00
   42     7 N     1.961218360262E+00 -5.778245097719E+00  1.858386351207E+00
   43     7 N     5.778245097719E+00  1.961218360262E+00 -1.858386351207E+00
   44     7 N    -5.778245097719E+00 -1.961218360262E+00 -1.858386351207E+00
   45     7 N    -2.489533884965E+00  4.513349269823E+00  1.750771472721E+00
   46     7 N     2.489533884965E+00 -4.513349269823E+00  1.750771472721E+00
   47     7 N     4.513349269823E+00  2.489533884965E+00 -1.750771472721E+00
   48     7 N    -4.513349269823E+00 -2.489533884965E+00 -1.750771472721E+00
   49     7 N     1.964810548313E+00 -3.593799295207E-02 -4.840674493282E+00
   50     7 N    -1.964810548313E+00  3.593799295207E-02 -4.840674493282E+00
   51     7 N    -3.593799295207E-02 -1.964810548313E+00  4.840674493282E+00
   52     7 N     3.593799295207E-02  1.964810548313E+00  4.840674493282E+00
   53     7 N    -3.683771686028E+00  4.588724067942E+00  1.193971696862E+00
   54     7 N     3.683771686028E+00 -4.588724067942E+00  1.193971696862E+00
   55     7 N     4.588724067942E+00  3.683771686028E+00 -1.193971696862E+00
   56     7 N    -4.588724067942E+00 -3.683771686028E+00 -1.193971696862E+00
   57     7 N    -1.079916558430E+00 -2.011640282543E+00  1.033833968596E+00
   58     7 N     1.079916558430E+00  2.011640282543E+00  1.033833968596E+00
   59     7 N    -2.011640282543E+00  1.079916558430E+00 -1.033833968596E+00
   60     7 N     2.011640282543E+00 -1.079916558430E+00 -1.033833968596E+00
   61    30 ZN    5.500532706346E-16  5.944038538813E+00 -8.616360120546E+00
   62    30 ZN    0.000000000000E+00  7.479460083819E-19  5.744240080364E+00

 ****    4 SYMMOPS - TRANSLATORS IN FRACTIONAL UNITS
 **** MATRICES AND TRANSLATORS IN THE CRYSTALLOGRAPHIC REFERENCE FRAME
   V INV                    ROTATION MATRICES                   TRANSLATORS
   1   1  1.00  0.00  0.00  0.00  1.00  0.00  0.00  0.00  1.00  0.00  0.00  0.00
   2   2  0.00  1.00 -1.00  1.00  0.00 -1.00 -0.00  0.00 -1.00  0.00  0.00  0.00
   3   4 -0.00 -1.00  0.00  0.00 -1.00  1.00  1.00 -1.00  0.00  0.00  0.00  0.00
   4   3 -1.00 -0.00  1.00 -1.00  0.00  0.00 -1.00  1.00 -0.00  0.00  0.00  0.00
 ERROR **** f90main **** GEOMETRY OPTIMIZATION FAILED
 TTTTTTTTTTTTTTTTTTTTTTTTTTTTTT ERR         TELAPSE   151881.15 TCPU   147674.91
--------------------------------------------------------------------------
MPI_ABORT was invoked on rank 17 in communicator MPI_COMM_WORLD
with errorcode 1.

NOTE: invoking MPI_ABORT causes Open MPI to kill all MPI processes.
You may or may not see output from other processes, depending on
exactly when Open MPI kills them.
--------------------------------------------------------------------------
[d12chas401.crc.nd.edu:1846454] 22 more processes have sent help message help-mpi-api.txt / mpi-abort
[d12chas401.crc.nd.edu:1846454] Set MCA parameter "orte_base_help_aggregate" to 0 to see all help / error messages
trying normal rsh (/usr/bin/rsh)
exec: No such file or directory
trying normal rsh (/usr/bin/rsh)
exec: No such file or directory
trying normal rsh (/usr/bin/rsh)
exec: No such file or directory
trying normal rsh (/usr/bin/rsh)
exec: No such file or directory
