Loading crystal17/1.0.2/intel/19.0
  Loading requirement: intel/19.0 ompi/4.0.1/intel/19.0
 PROCESS           15  OF           24  WORKING
 PROCESS           19  OF           24  WORKING
 PROCESS            1  OF           24  WORKING
 PROCESS           23  OF           24  WORKING
 PROCESS            5  OF           24  WORKING
 PROCESS           10  OF           24  WORKING
 PROCESS           11  OF           24  WORKING
 PROCESS           12  OF           24  WORKING
 PROCESS           18  OF           24  WORKING
 PROCESS           21  OF           24  WORKING
 PROCESS           22  OF           24  WORKING
 PROCESS            0  OF           24  WORKING
 PROCESS            2  OF           24  WORKING
 PROCESS            3  OF           24  WORKING
 PROCESS            4  OF           24  WORKING
 PROCESS            6  OF           24  WORKING
 PROCESS            7  OF           24  WORKING
 PROCESS            8  OF           24  WORKING
 PROCESS            9  OF           24  WORKING
 PROCESS           13  OF           24  WORKING
 PROCESS           14  OF           24  WORKING
 PROCESS           16  OF           24  WORKING
 PROCESS           17  OF           24  WORKING
 PROCESS           20  OF           24  WORKING

         
 *******************************************************************************
 *                                                                             *
 *                               CRYSTAL17                                     *
 *                      public : 1.0.2 - March 1st, 2018                       *
 *                       HTTP://WWW.CRYSTAL.UNITO.IT                           *
 *                                                                             *
 *                              MAIN AUTHORS                                   *
 *                                                                             *
 *  R. DOVESI(1,11), V.R. SAUNDERS(2), C. ROETTI(1,11), R. ORLANDO(1,11),      *
 *  C.M. ZICOVICH-WILSON(1,3), F. PASCALE(4), B. CIVALLERI(1,11),              *
 *  K. DOLL(5), N.M. HARRISON(2,6), I.J. BUSH(7), Ph. D'ARCO(8),               *
 *  M. LLUNELL(9), M. CAUSA'(10), Y. NOEL(8), L. MASCHIO(1,11), A. ERBA(1,11)  *
 *  M. RE'RAT(14), S. CASASSA(1,11)                                            *
 *                                                                             *
 *        CONTRIBUTIONS TO THE CODE HAVE ALSO BEEN GIVEN BY                    *
 *                                                                             *
 *  M. FERRABONE(1,11), M. DE LA PIERRE(1,11), M. FERRERO(1,11),               *
 *  J. BAIMA(1,11), E. ALBANESE(1,11), M.F. PEINTINGER(12), R. BAST(13),       *
 *  B. KIRTMAN(15), V. LACIVITA(1,11), R. DEMICHELIS(1,16)                     *
 *  G. BRANDEBURG(17), S. SALUSTRO(1,11), G. SANSONE(1,11)                     *
 *  M.T. RUGGIERO(18)                                                          *
 *                                                                             *
 * (1) THEORETICAL CHEMISTRY GROUP - UNIVERSITA' DI TORINO - TORINO (ITALY)    *
 * (2) COMPUTATIONAL SCIENCE & ENGINEERING DEPARTMENT - STFC DARESBURY (UK)    *
 * (3) UNIVERSIDAD AUTONOMA DEL ESTADO DE MORELOS - CUERNAVACA (MEXICO)        *
 * (4) UNIVERSITE' DE LORRAINE - NANCY (FRANCE)                                *
 * (5) UNIVERSITAET STUTTGART- STUTTGART (GERMANY)                             *
 * (6) IMPERIAL COLLEGE - LONDON (UK)                                          *
 * (7) OXFORD E-RESEARCH CENTRE - OXFORD (UK)                                  *
 * (8) UPMC - SORBONNE UNIVERSITES - PARIS (FRANCE)                            *
 * (9) UNIVERSIDAD DE BARCELONA - BARCELONA (SPAIN)                            *
 *(10) UNIVERSITA' DI NAPOLI "FEDERICO II" - NAPOLI (ITALY)                    *
 *(11) NIS - NANOSTRUCTURED INTERFACES AND SURFACES - TORINO (ITALY)           *
 *(12) MPI FUER CHEMISCHE ENERGIEKONVERSION - MUELHEIM AN DER RUHR (GERMANY)   *
 *(13) UNIVERSITY OF TROMSO - TROMSO (NORWAY)                                  *
 *(14) UNIVERSITE' DE PAU ET DES PAYS DE L'ADOUR - PAU (FRANCE)                *
 *(15) UNIVERSITY OF CALIFORNIA SANTA BARBARA - SANTA BARBARA (USA)            *
 *(16) CURTIN UNIVERSITY - PERTH (AUSTRALIA)                                   *
 *(17) UNIVERSITY COLLEGE LONDON - LONDON (UK)                                 *
 *(18) CAMBRIDGE UNIVERSITY - CAMBRIDGE (UK)                                   *
 *                                                                             *
 *******************************************************************************
 EEEEEEEEEE STARTING  DATE 19 11 2023 TIME 13:24:05.9
 C:\Users\wilso\AppData\Local\Temp\tmp_p\newconn.mol                             

 CRYSTAL CALCULATION
 (INPUT ACCORDING TO THE INTERNATIONAL TABLES FOR X-RAY CRYSTALLOGRAPHY)
 CRYSTAL FAMILY                       :  TETRAGONAL  
 CRYSTAL CLASS  (GROTH - 1921)        :  TETRAGONAL DISPHENOIDAL              

 SPACE GROUP (NONCENTROSYMMETRIC)     :  I -4            

 LATTICE PARAMETERS  (ANGSTROMS AND DEGREES) - CONVENTIONAL CELL
        A           B           C        ALPHA        BETA       GAMMA
    10.15800    10.15800    13.29400    90.00000    90.00000    90.00000


 NUMBER OF IRREDUCIBLE ATOMS IN THE CONVENTIONAL CELL:  124

 INPUT COORDINATES

 ATOM AT. N.              COORDINATES
   1   1     5.576100000000E-01  7.373700000000E-01  1.366700000000E-01
   2   1     4.423900000000E-01  2.626300000000E-01  1.366700000000E-01
   3   1     7.373700000000E-01  4.423900000000E-01  8.633300000000E-01
   4   1     2.626300000000E-01  5.576100000000E-01  8.633300000000E-01
   5   1     5.761000000000E-02  2.373700000000E-01  6.366700000000E-01
   6   1     9.423900000000E-01  7.626300000000E-01  6.366700000000E-01
   7   1     2.373700000000E-01  9.423900000000E-01  3.633300000000E-01
   8   1     7.626300000000E-01  5.761000000000E-02  3.633300000000E-01
   9   1     9.759200000000E-01  6.751900000000E-01  9.083000000000E-02
  10   1     2.408000000000E-02  3.248100000000E-01  9.083000000000E-02
  11   1     6.751900000000E-01  2.408000000000E-02  9.091700000000E-01
  12   1     3.248100000000E-01  9.759200000000E-01  9.091700000000E-01
  13   1     4.759200000000E-01  1.751900000000E-01  5.908300000000E-01
  14   1     5.240800000000E-01  8.248100000000E-01  5.908300000000E-01
  15   1     1.751900000000E-01  5.240800000000E-01  4.091700000000E-01
  16   1     8.248100000000E-01  4.759200000000E-01  4.091700000000E-01
  17  17     6.058200000000E-01  9.805800000000E-01  1.369900000000E-01
  18  17     3.941800000000E-01  1.942000000000E-02  1.369900000000E-01
  19  17     9.805800000000E-01  3.941800000000E-01  8.630100000000E-01
  20  17     1.942000000000E-02  6.058200000000E-01  8.630100000000E-01
  21  17     1.058200000000E-01  4.805800000000E-01  6.369900000000E-01
  22  17     8.941800000000E-01  5.194200000000E-01  6.369900000000E-01
  23  17     4.805800000000E-01  8.941800000000E-01  3.630100000000E-01
  24  17     5.194200000000E-01  1.058200000000E-01  3.630100000000E-01
  25  17     8.420800000000E-01  5.709000000000E-02  1.240200000000E-01
  26  17     1.579200000000E-01  9.429100000000E-01  1.240200000000E-01
  27  17     5.709000000000E-02  1.579200000000E-01  8.759800000000E-01
  28  17     9.429100000000E-01  8.420800000000E-01  8.759800000000E-01
  29  17     3.420800000000E-01  5.570900000000E-01  6.240200000000E-01
  30  17     6.579200000000E-01  4.429100000000E-01  6.240200000000E-01
  31  17     5.570900000000E-01  6.579200000000E-01  3.759800000000E-01
  32  17     4.429100000000E-01  3.420800000000E-01  3.759800000000E-01
  33   6     2.646500000000E-01  1.859800000000E-01  6.165500000000E-01
  34   6     7.353500000000E-01  8.140200000000E-01  6.165500000000E-01
  35   6     1.859800000000E-01  7.353500000000E-01  3.834500000000E-01
  36   6     8.140200000000E-01  2.646500000000E-01  3.834500000000E-01
  37   6     7.646500000000E-01  6.859800000000E-01  1.165500000000E-01
  38   6     2.353500000000E-01  3.140200000000E-01  1.165500000000E-01
  39   6     6.859800000000E-01  2.353500000000E-01  8.834500000000E-01
  40   6     3.140200000000E-01  7.646500000000E-01  8.834500000000E-01
  41   6     2.514000000000E-01  4.317000000000E-02  6.230000000000E-01
  42   6     7.486000000000E-01  9.568300000000E-01  6.230000000000E-01
  43   6     4.317000000000E-02  7.486000000000E-01  3.770000000000E-01
  44   6     9.568300000000E-01  2.514000000000E-01  3.770000000000E-01
  45   6     7.514000000000E-01  5.431700000000E-01  1.230000000000E-01
  46   6     2.486000000000E-01  4.568300000000E-01  1.230000000000E-01
  47   6     5.431700000000E-01  2.486000000000E-01  8.770000000000E-01
  48   6     4.568300000000E-01  7.514000000000E-01  8.770000000000E-01
  49   6     6.583700000000E-01  7.736700000000E-01  1.273400000000E-01
  50   6     3.416300000000E-01  2.263300000000E-01  1.273400000000E-01
  51   6     7.736700000000E-01  3.416300000000E-01  8.726600000000E-01
  52   6     2.263300000000E-01  6.583700000000E-01  8.726600000000E-01
  53   6     1.583700000000E-01  2.736700000000E-01  6.273400000000E-01
  54   6     8.416300000000E-01  7.263300000000E-01  6.273400000000E-01
  55   6     2.736700000000E-01  8.416300000000E-01  3.726600000000E-01
  56   6     7.263300000000E-01  1.583700000000E-01  3.726600000000E-01
  57   6     8.156900000000E-01  9.525900000000E-01  1.204300000000E-01
  58   6     1.843100000000E-01  4.741000000000E-02  1.204300000000E-01
  59   6     9.525900000000E-01  1.843100000000E-01  8.795700000000E-01
  60   6     4.741000000000E-02  8.156900000000E-01  8.795700000000E-01
  61   6     3.156900000000E-01  4.525900000000E-01  6.204300000000E-01
  62   6     6.843100000000E-01  5.474100000000E-01  6.204300000000E-01
  63   6     4.525900000000E-01  6.843100000000E-01  3.795700000000E-01
  64   6     5.474100000000E-01  3.156900000000E-01  3.795700000000E-01
  65   6     3.914300000000E-01  2.396500000000E-01  6.044300000000E-01
  66   6     6.085700000000E-01  7.603500000000E-01  6.044300000000E-01
  67   6     2.396500000000E-01  6.085700000000E-01  3.955700000000E-01
  68   6     7.603500000000E-01  3.914300000000E-01  3.955700000000E-01
  69   6     8.914300000000E-01  7.396500000000E-01  1.044300000000E-01
  70   6     1.085700000000E-01  2.603500000000E-01  1.044300000000E-01
  71   6     7.396500000000E-01  1.085700000000E-01  8.955700000000E-01
  72   6     2.603500000000E-01  8.914300000000E-01  8.955700000000E-01
  73   6     3.150000000000E-01  9.141000000000E-02  1.282200000000E-01
  74   6     6.850000000000E-01  9.085900000000E-01  1.282200000000E-01
  75   6     9.141000000000E-02  6.850000000000E-01  8.717800000000E-01
  76   6     9.085900000000E-01  3.150000000000E-01  8.717800000000E-01
  77   6     8.150000000000E-01  5.914100000000E-01  6.282200000000E-01
  78   6     1.850000000000E-01  4.085900000000E-01  6.282200000000E-01
  79   6     5.914100000000E-01  1.850000000000E-01  3.717800000000E-01
  80   6     4.085900000000E-01  8.150000000000E-01  3.717800000000E-01
  81   7     8.407700000000E-01  4.628300000000E-01  1.672900000000E-01
  82   7     1.592300000000E-01  5.371700000000E-01  1.672900000000E-01
  83   7     4.628300000000E-01  1.592300000000E-01  8.327100000000E-01
  84   7     5.371700000000E-01  8.407700000000E-01  8.327100000000E-01
  85   7     3.407700000000E-01  9.628300000000E-01  6.672900000000E-01
  86   7     6.592300000000E-01  3.717000000000E-02  6.672900000000E-01
  87   7     9.628300000000E-01  6.592300000000E-01  3.327100000000E-01
  88   7     3.717000000000E-02  3.407700000000E-01  3.327100000000E-01
  89   7     2.940400000000E-01  8.358500000000E-01  6.597700000000E-01
  90   7     7.059600000000E-01  1.641500000000E-01  6.597700000000E-01
  91   7     8.358500000000E-01  7.059600000000E-01  3.402300000000E-01
  92   7     1.641500000000E-01  2.940400000000E-01  3.402300000000E-01
  93   7     7.940400000000E-01  3.358500000000E-01  1.597700000000E-01
  94   7     2.059600000000E-01  6.641500000000E-01  1.597700000000E-01
  95   7     3.358500000000E-01  2.059600000000E-01  8.402300000000E-01
  96   7     6.641500000000E-01  7.940400000000E-01  8.402300000000E-01
  97   7     1.518600000000E-01  9.677900000000E-01  5.884000000000E-01
  98   7     8.481400000000E-01  3.221000000000E-02  5.884000000000E-01
  99   7     9.677900000000E-01  8.481400000000E-01  4.116000000000E-01
 100   7     3.221000000000E-02  1.518600000000E-01  4.116000000000E-01
 101   7     6.518600000000E-01  4.677900000000E-01  8.840000000000E-02
 102   7     3.481400000000E-01  5.322100000000E-01  8.840000000000E-02
 103   7     4.677900000000E-01  3.481400000000E-01  9.116000000000E-01
 104   7     5.322100000000E-01  6.518600000000E-01  9.116000000000E-01
 105   7     1.800200000000E-01  8.388700000000E-01  6.128200000000E-01
 106   7     8.199800000000E-01  1.611300000000E-01  6.128200000000E-01
 107   7     8.388700000000E-01  8.199800000000E-01  3.871800000000E-01
 108   7     1.611300000000E-01  1.800200000000E-01  3.871800000000E-01
 109   7     6.800200000000E-01  3.388700000000E-01  1.128200000000E-01
 110   7     3.199800000000E-01  6.611300000000E-01  1.128200000000E-01
 111   7     3.388700000000E-01  3.199800000000E-01  8.871800000000E-01
 112   7     6.611300000000E-01  6.800200000000E-01  8.871800000000E-01
 113   7     9.174200000000E-01  8.687700000000E-01  1.079100000000E-01
 114   7     8.258000000000E-02  1.312300000000E-01  1.079100000000E-01
 115   7     8.687700000000E-01  8.258000000000E-02  8.920900000000E-01
 116   7     1.312300000000E-01  9.174200000000E-01  8.920900000000E-01
 117   7     4.174200000000E-01  3.687700000000E-01  6.079100000000E-01
 118   7     5.825800000000E-01  6.312300000000E-01  6.079100000000E-01
 119   7     3.687700000000E-01  5.825800000000E-01  3.920900000000E-01
 120   7     6.312300000000E-01  4.174200000000E-01  3.920900000000E-01
 121  30     0.000000000000E+00  5.000000000000E-01  2.500000000000E-01
 122  30     5.000000000000E-01  0.000000000000E+00  7.500000000000E-01
 123  30     0.000000000000E+00  0.000000000000E+00  5.000000000000E-01
 124  30     5.000000000000E-01  5.000000000000E-01  0.000000000000E+00

 *******************************************************************************

 << INFORMATION >>: FROM NOW ON, ALL COORDINATES REFER TO THE PRIMITIVE CELL

 *******************************************************************************

 LATTICE PARAMETERS  (ANGSTROMS AND DEGREES) - PRIMITIVE CELL
       A          B          C        ALPHA      BETA     GAMMA        VOLUME
    9.78647    9.78647    9.78647   117.47208 117.47208  94.43726    685.870456

 INPUT LIST - ATOM N.   2 NOT IRREDUCIBLE

 INPUT LIST - ATOM N.   3 NOT IRREDUCIBLE

 INPUT LIST - ATOM N.   4 NOT IRREDUCIBLE

 INPUT LIST - ATOM N.   1 NOT IRREDUCIBLE

 INPUT LIST - ATOM N.   2 NOT IRREDUCIBLE

 INPUT LIST - ATOM N.   3 NOT IRREDUCIBLE

 INPUT LIST - ATOM N.   4 NOT IRREDUCIBLE

 INPUT LIST - ATOM N.   6 NOT IRREDUCIBLE

 INPUT LIST - ATOM N.   7 NOT IRREDUCIBLE

 INPUT LIST - ATOM N.   8 NOT IRREDUCIBLE

 INPUT LIST - ATOM N.   5 NOT IRREDUCIBLE

 INPUT LIST - ATOM N.   6 NOT IRREDUCIBLE

 INPUT LIST - ATOM N.   7 NOT IRREDUCIBLE

 INPUT LIST - ATOM N.   8 NOT IRREDUCIBLE

 INPUT LIST - ATOM N.  10 NOT IRREDUCIBLE

 INPUT LIST - ATOM N.  11 NOT IRREDUCIBLE

 INPUT LIST - ATOM N.  12 NOT IRREDUCIBLE

 INPUT LIST - ATOM N.   9 NOT IRREDUCIBLE

 INPUT LIST - ATOM N.  10 NOT IRREDUCIBLE

 INPUT LIST - ATOM N.  11 NOT IRREDUCIBLE

 INPUT LIST - ATOM N.  12 NOT IRREDUCIBLE

 INPUT LIST - ATOM N.  14 NOT IRREDUCIBLE

 INPUT LIST - ATOM N.  15 NOT IRREDUCIBLE

 INPUT LIST - ATOM N.  16 NOT IRREDUCIBLE

 INPUT LIST - ATOM N.  13 NOT IRREDUCIBLE

 INPUT LIST - ATOM N.  14 NOT IRREDUCIBLE

 INPUT LIST - ATOM N.  15 NOT IRREDUCIBLE

 INPUT LIST - ATOM N.  16 NOT IRREDUCIBLE

 INPUT LIST - ATOM N.  18 NOT IRREDUCIBLE

 INPUT LIST - ATOM N.  19 NOT IRREDUCIBLE

 INPUT LIST - ATOM N.  20 NOT IRREDUCIBLE

 INPUT LIST - ATOM N.  17 NOT IRREDUCIBLE

 INPUT LIST - ATOM N.  18 NOT IRREDUCIBLE

 INPUT LIST - ATOM N.  19 NOT IRREDUCIBLE

 INPUT LIST - ATOM N.  20 NOT IRREDUCIBLE

 INPUT LIST - ATOM N.  22 NOT IRREDUCIBLE

 INPUT LIST - ATOM N.  23 NOT IRREDUCIBLE

 INPUT LIST - ATOM N.  24 NOT IRREDUCIBLE

 INPUT LIST - ATOM N.  21 NOT IRREDUCIBLE

 INPUT LIST - ATOM N.  22 NOT IRREDUCIBLE

 INPUT LIST - ATOM N.  23 NOT IRREDUCIBLE

 INPUT LIST - ATOM N.  24 NOT IRREDUCIBLE

 INPUT LIST - ATOM N.  26 NOT IRREDUCIBLE

 INPUT LIST - ATOM N.  27 NOT IRREDUCIBLE

 INPUT LIST - ATOM N.  28 NOT IRREDUCIBLE

 INPUT LIST - ATOM N.  25 NOT IRREDUCIBLE

 INPUT LIST - ATOM N.  26 NOT IRREDUCIBLE

 INPUT LIST - ATOM N.  27 NOT IRREDUCIBLE

 INPUT LIST - ATOM N.  28 NOT IRREDUCIBLE

 INPUT LIST - ATOM N.  30 NOT IRREDUCIBLE

 INPUT LIST - ATOM N.  31 NOT IRREDUCIBLE

 INPUT LIST - ATOM N.  32 NOT IRREDUCIBLE

 INPUT LIST - ATOM N.  29 NOT IRREDUCIBLE

 INPUT LIST - ATOM N.  30 NOT IRREDUCIBLE

 INPUT LIST - ATOM N.  31 NOT IRREDUCIBLE

 INPUT LIST - ATOM N.  32 NOT IRREDUCIBLE

 INPUT LIST - ATOM N.  34 NOT IRREDUCIBLE

 INPUT LIST - ATOM N.  35 NOT IRREDUCIBLE

 INPUT LIST - ATOM N.  36 NOT IRREDUCIBLE

 INPUT LIST - ATOM N.  33 NOT IRREDUCIBLE

 INPUT LIST - ATOM N.  34 NOT IRREDUCIBLE

 INPUT LIST - ATOM N.  35 NOT IRREDUCIBLE

 INPUT LIST - ATOM N.  36 NOT IRREDUCIBLE

 INPUT LIST - ATOM N.  38 NOT IRREDUCIBLE

 INPUT LIST - ATOM N.  39 NOT IRREDUCIBLE

 INPUT LIST - ATOM N.  40 NOT IRREDUCIBLE

 INPUT LIST - ATOM N.  37 NOT IRREDUCIBLE

 INPUT LIST - ATOM N.  38 NOT IRREDUCIBLE

 INPUT LIST - ATOM N.  39 NOT IRREDUCIBLE

 INPUT LIST - ATOM N.  40 NOT IRREDUCIBLE

 INPUT LIST - ATOM N.  42 NOT IRREDUCIBLE

 INPUT LIST - ATOM N.  43 NOT IRREDUCIBLE

 INPUT LIST - ATOM N.  44 NOT IRREDUCIBLE

 INPUT LIST - ATOM N.  41 NOT IRREDUCIBLE

 INPUT LIST - ATOM N.  42 NOT IRREDUCIBLE

 INPUT LIST - ATOM N.  43 NOT IRREDUCIBLE

 INPUT LIST - ATOM N.  44 NOT IRREDUCIBLE

 INPUT LIST - ATOM N.  46 NOT IRREDUCIBLE

 INPUT LIST - ATOM N.  47 NOT IRREDUCIBLE

 INPUT LIST - ATOM N.  48 NOT IRREDUCIBLE

 INPUT LIST - ATOM N.  45 NOT IRREDUCIBLE

 INPUT LIST - ATOM N.  46 NOT IRREDUCIBLE

 INPUT LIST - ATOM N.  47 NOT IRREDUCIBLE

 INPUT LIST - ATOM N.  48 NOT IRREDUCIBLE

 INPUT LIST - ATOM N.  50 NOT IRREDUCIBLE

 INPUT LIST - ATOM N.  51 NOT IRREDUCIBLE

 INPUT LIST - ATOM N.  52 NOT IRREDUCIBLE

 INPUT LIST - ATOM N.  49 NOT IRREDUCIBLE

 INPUT LIST - ATOM N.  50 NOT IRREDUCIBLE

 INPUT LIST - ATOM N.  51 NOT IRREDUCIBLE

 INPUT LIST - ATOM N.  52 NOT IRREDUCIBLE

 INPUT LIST - ATOM N.  54 NOT IRREDUCIBLE

 INPUT LIST - ATOM N.  55 NOT IRREDUCIBLE

 INPUT LIST - ATOM N.  56 NOT IRREDUCIBLE

 INPUT LIST - ATOM N.  53 NOT IRREDUCIBLE

 INPUT LIST - ATOM N.  54 NOT IRREDUCIBLE

 INPUT LIST - ATOM N.  55 NOT IRREDUCIBLE

 INPUT LIST - ATOM N.  56 NOT IRREDUCIBLE

 INPUT LIST - ATOM N.  58 NOT IRREDUCIBLE

 INPUT LIST - ATOM N.  59 NOT IRREDUCIBLE

 INPUT LIST - ATOM N.  60 NOT IRREDUCIBLE

 INPUT LIST - ATOM N.  57 NOT IRREDUCIBLE

 INPUT LIST - ATOM N.  58 NOT IRREDUCIBLE

 INPUT LIST - ATOM N.  59 NOT IRREDUCIBLE

 INPUT LIST - ATOM N.  60 NOT IRREDUCIBLE

 INPUT LIST - ATOM N.  61 NOT IRREDUCIBLE

 INPUT LIST - ATOM N.  62 NOT IRREDUCIBLE

 COORDINATES OF THE EQUIVALENT ATOMS (FRACTIONAL UNITS)

 N. ATOM EQUIV AT. N.          X                  Y                  Z

   1   1   1    1 H    -1.25960000000E-01 -3.05720000000E-01  2.94980000000E-01
   2   1   2    1 H     3.99300000000E-01 -4.20940000000E-01 -2.94980000000E-01
   3   1   3    1 H     3.05720000000E-01 -3.99300000000E-01  1.79760000000E-01
   4   1   4    1 H     4.20940000000E-01  1.25960000000E-01 -1.79760000000E-01








   5   9   1    1 H    -2.33980000000E-01  6.67500000000E-02 -3.48890000000E-01
   6   9   2    1 H     4.15640000000E-01  1.14910000000E-01  3.48890000000E-01
   7   9   3    1 H    -6.67500000000E-02 -4.15640000000E-01 -3.00730000000E-01
   8   9   4    1 H    -1.14910000000E-01  2.33980000000E-01  3.00730000000E-01








   9  17   1   17 CL    1.17570000000E-01 -2.57190000000E-01 -4.13600000000E-01
  10  17   2   17 CL    1.56410000000E-01 -4.68830000000E-01  4.13600000000E-01
  11  17   3   17 CL    2.57190000000E-01 -1.56410000000E-01  3.74760000000E-01
  12  17   4   17 CL    4.68830000000E-01 -1.17570000000E-01 -3.74760000000E-01

 NUMBER OF SYMMETRY OPERATORS         :    4
 *******************************************************************************
 * GEOMETRY EDITING - INPUT COORDINATES ARE GIVEN IN ANGSTROM         
 *******************************************************************************

 GEOMETRY NOW FULLY CONSISTENT WITH THE GROUP
 *******************************************************************************
 *  GEOMETRY EDITING
 *  THE SYMMETRY OF THE CRYSTAL IS KEPT AND APPLIED TO THE PERTURBATION
 *******************************************************************************
 INFORMATION **** NEW DEFAULT **** FINALRUN 4 FOR GEOMETRY OPTIMIZATIONS
 INFORMATION **** NEW DEFAULT **** OPTGEOM OPTIMIZES BOTH ATOMIC COORDINATES AND CELL PARAMETERS
 INFORMATION **** NEW DEFAULT **** TOL. ON ATOMIC DISP TO REDEFINE REF. GEOMETRY: 0.8 Angs
 INFORMATION **** NEW DEFAULT **** N POINTS TO REDEFINE REF. GEOMETRY: N OF OPT DEGS OF FREEDOM
 INFORMATION **** NEW DEFAULT **** TOL. ON ENERGY TO REDEFINE REF. GEOMETRY: 10**-3*(5*N. ATOMS)

 IMPORTANT INFORMATION:
 THE COORDINATE SYSTEM ADOPTED IN THE OPTIMIZATION IS NOT IN
 GENERAL HOMOGENEOUS UNITS. FOR THIS REASON THE GRADIENT AND 
 HESSIAN MATRIX IN TERMS OF THIS SYSTEM ARE GIVEN WITHOUT
 UNITS. FOR MORE DETAILS SEE THE MANUAL.

 *******************************************************************************
 COMBINED CELL/ATOM OPTIMIZATION CONTROL

 INITIAL TRUST RADIUS         0.50000 MAXIMUM TRUST RADIUS               4.00000
 MAXIMUM GRADIENT COMPONENT   0.00045 MAXIMUM DISPLACEMENT COMPONENT     0.00180
 R.M.S. OF GRADIENT COMPONENT 0.00030 R.M.S. OF DISPLACEMENT COMPONENTS  0.00120
 THRESHOLD ON ENERGY CHANGE 0.100E-06 EXTRAPOLATING POLYNOMIAL ORDER           2
 MAXIMUM ALLOWED NUMBER OF STEPS   -1 SORTING OF ENERGY POINTS:               NO
 ANALYTICAL  GRADIENT                 HESSIAN UPDATING                      BFGS
 STEP SIZE NUMERICAL GRADIENT 0.00100
 INITIAL HESSIAN MATRIX: SCHLEGEL MODEL 2
 *******************************************************************************


 GCALCO - MAX INDICES DIRECT LATTICE VECTOR    14    14    16
 NO.OF VECTORS CREATED 6999 STARS  481 RMAX   197.96270 BOHR

 GEOMETRY FOR WAVE FUNCTION - DIMENSIONALITY OF THE SYSTEM    3
 (NON PERIODIC DIRECTION: LATTICE PARAMETER FORMALLY SET TO 500)
 *******************************************************************************
 LATTICE PARAMETERS (ANGSTROMS AND DEGREES) - BOHR = 0.5291772083 ANGSTROM
 PRIMITIVE CELL - CENTRING CODE 6/0 VOLUME=   685.870456 - DENSITY  2.382 g/cm^3
         A              B              C           ALPHA      BETA       GAMMA 
     9.78647490     9.78647490     9.78647490   117.472078 117.472078  94.437262
 *******************************************************************************
 ATOMS IN THE ASYMMETRIC UNIT   17 - ATOMS IN THE UNIT CELL:   62
     ATOM                 X/A                 Y/B                 Z/C    
 *******************************************************************************
      1 T   1 H    -1.259600000000E-01 -3.057200000000E-01  2.949800000000E-01
      2 F   1 H     3.993000000000E-01 -4.209400000000E-01 -2.949800000000E-01
      3 F   1 H     3.057200000000E-01 -3.993000000000E-01  1.797600000000E-01
      4 F   1 H     4.209400000000E-01  1.259600000000E-01 -1.797600000000E-01
      5 T   1 H    -2.339800000000E-01  6.675000000000E-02 -3.488900000000E-01
      6 F   1 H     4.156400000000E-01  1.149100000000E-01  3.488900000000E-01
      7 F   1 H    -6.675000000000E-02 -4.156400000000E-01 -3.007300000000E-01
      8 F   1 H    -1.149100000000E-01  2.339800000000E-01  3.007300000000E-01
      9 T  17 CL    1.175700000000E-01 -2.571900000000E-01 -4.136000000000E-01
     10 F  17 CL    1.564100000000E-01 -4.688300000000E-01  4.136000000000E-01
     11 F  17 CL    2.571900000000E-01 -1.564100000000E-01  3.747600000000E-01
     12 F  17 CL    4.688300000000E-01 -1.175700000000E-01 -3.747600000000E-01
     13 T  17 CL    1.811100000000E-01 -3.390000000000E-02 -1.008300000000E-01
     14 F  17 CL    6.693000000000E-02  2.819400000000E-01  1.008300000000E-01
     15 F  17 CL    3.390000000000E-02 -6.693000000000E-02  2.150100000000E-01
     16 F  17 CL   -2.819400000000E-01 -1.811100000000E-01 -2.150100000000E-01
     17 T   6 C    -1.974700000000E-01 -1.188000000000E-01  4.506300000000E-01
     18 F   6 C     4.305700000000E-01  3.519000000000E-01 -4.506300000000E-01
     19 F   6 C     1.188000000000E-01 -4.305700000000E-01 -7.867000000000E-02
     20 F   6 C    -3.519000000000E-01  1.974700000000E-01  7.867000000000E-02
     21 T   6 C    -3.338300000000E-01 -1.256000000000E-01  2.945700000000E-01
     22 F   6 C    -4.201700000000E-01  3.716000000000E-01 -2.945700000000E-01
     23 F   6 C     1.256000000000E-01  4.201700000000E-01 -2.082300000000E-01
     24 F   6 C    -3.716000000000E-01  3.338300000000E-01  2.082300000000E-01
     25 T   6 C    -9.899000000000E-02 -2.142900000000E-01  4.320400000000E-01
     26 F   6 C     3.536700000000E-01  4.689700000000E-01 -4.320400000000E-01
     27 F   6 C     2.142900000000E-01 -3.536700000000E-01  1.153000000000E-01
     28 F   6 C    -4.689700000000E-01  9.899000000000E-02 -1.153000000000E-01
     29 T   6 C     7.302000000000E-02 -6.388000000000E-02 -2.317200000000E-01
     30 F   6 C     1.678400000000E-01  3.047400000000E-01  2.317200000000E-01
     31 F   6 C     6.388000000000E-02 -1.678400000000E-01  1.369000000000E-01
     32 F   6 C    -3.047400000000E-01 -7.302000000000E-02 -1.369000000000E-01
     33 T   6 C    -1.559200000000E-01 -4.140000000000E-03 -3.689200000000E-01
     34 F   6 C     3.647800000000E-01  2.130000000000E-01  3.689200000000E-01
     35 F   6 C     4.140000000000E-03 -3.647800000000E-01 -1.517800000000E-01
     36 F   6 C    -2.130000000000E-01  1.559200000000E-01  1.517800000000E-01
     37 T   6 C     2.196300000000E-01  4.432200000000E-01  4.064100000000E-01
     38 F   6 C     3.681000000000E-02 -1.867800000000E-01 -4.064100000000E-01
     39 F   6 C    -4.432200000000E-01 -3.681000000000E-02 -2.235900000000E-01
     40 F   6 C     1.867800000000E-01 -2.196300000000E-01  2.235900000000E-01
     41 T   7 N    -3.698800000000E-01  8.060000000000E-03  3.036000000000E-01
     42 F   7 N    -2.955400000000E-01  3.265200000000E-01 -3.036000000000E-01
     43 F   7 N    -8.060000000000E-03  2.955400000000E-01 -3.779400000000E-01
     44 F   7 N    -3.265200000000E-01  3.698800000000E-01  3.779400000000E-01
     45 T   7 N     4.956200000000E-01 -4.619000000000E-02  1.298900000000E-01
     46 F   7 N    -1.760800000000E-01  3.657300000000E-01 -1.298900000000E-01
     47 F   7 N     4.619000000000E-02  1.760800000000E-01 -4.581900000000E-01
     48 F   7 N    -3.657300000000E-01 -4.956200000000E-01  4.581900000000E-01
     49 T   7 N    -4.438100000000E-01 -2.597400000000E-01  1.196500000000E-01
     50 F   7 N    -3.793900000000E-01  4.365400000000E-01 -1.196500000000E-01
     51 F   7 N     2.597400000000E-01  3.793900000000E-01 -1.840700000000E-01
     52 F   7 N    -4.365400000000E-01  4.438100000000E-01  1.840700000000E-01
     53 T   7 N     4.516900000000E-01 -2.071600000000E-01  1.889000000000E-02
     54 F   7 N    -2.260500000000E-01  4.328000000000E-01 -1.889000000000E-02
     55 F   7 N     2.071600000000E-01  2.260500000000E-01 -3.411500000000E-01
     56 F   7 N    -4.328000000000E-01 -4.516900000000E-01  3.411500000000E-01
     57 T   7 N    -2.332000000000E-02  2.533000000000E-02 -2.138100000000E-01
     58 F   7 N     2.391400000000E-01  1.904900000000E-01  2.138100000000E-01
     59 F   7 N    -2.533000000000E-02 -2.391400000000E-01 -4.865000000000E-02
     60 F   7 N    -1.904900000000E-01  2.332000000000E-02  4.865000000000E-02
     61 T  30 ZN   -2.500000000000E-01  2.500000000000E-01  5.000000000000E-01
     62 T  30 ZN   -5.000000000000E-01  5.000000000000E-01  0.000000000000E+00

 TRANSFORMATION MATRIX PRIMITIVE-CRYSTALLOGRAPHIC CELL
  0.0000  1.0000  1.0000  1.0000  0.0000  1.0000  1.0000  1.0000  0.0000

 *******************************************************************************
 CRYSTALLOGRAPHIC CELL (VOLUME=       1371.74091142)
         A              B              C           ALPHA      BETA       GAMMA 
    10.15800000    10.15800000    13.29400000    90.000000  90.000000  90.000000

 COORDINATES IN THE CRYSTALLOGRAPHIC CELL
     ATOM                 X/A                 Y/B                 Z/C    
 *******************************************************************************
      1 T   1 H     5.761000000000E-02  2.373700000000E-01 -3.633300000000E-01
      2 F   1 H    -5.761000000000E-02 -2.373700000000E-01 -3.633300000000E-01
      3 F   1 H     2.373700000000E-01 -5.761000000000E-02  3.633300000000E-01
      4 F   1 H    -2.373700000000E-01  5.761000000000E-02  3.633300000000E-01
      5 T   1 H    -2.408000000000E-02 -3.248100000000E-01  9.083000000000E-02
      6 F   1 H     2.408000000000E-02  3.248100000000E-01  9.083000000000E-02
      7 F   1 H    -3.248100000000E-01  2.408000000000E-02 -9.083000000000E-02
      8 F   1 H     3.248100000000E-01 -2.408000000000E-02 -9.083000000000E-02
      9 T  17 CL   -3.941800000000E-01 -1.942000000000E-02  1.369900000000E-01
     10 F  17 CL    3.941800000000E-01  1.942000000000E-02  1.369900000000E-01
     11 F  17 CL   -1.942000000000E-02  3.941800000000E-01 -1.369900000000E-01
     12 F  17 CL    1.942000000000E-02 -3.941800000000E-01 -1.369900000000E-01
     13 T  17 CL   -1.579200000000E-01  5.709000000000E-02  1.240200000000E-01
     14 F  17 CL    1.579200000000E-01 -5.709000000000E-02  1.240200000000E-01
     15 F  17 CL    5.709000000000E-02  1.579200000000E-01 -1.240200000000E-01
     16 F  17 CL   -5.709000000000E-02 -1.579200000000E-01 -1.240200000000E-01
     17 T   6 C    -2.353500000000E-01 -3.140200000000E-01  1.165500000000E-01
     18 F   6 C     2.353500000000E-01  3.140200000000E-01  1.165500000000E-01
     19 F   6 C    -3.140200000000E-01  2.353500000000E-01 -1.165500000000E-01
     20 F   6 C     3.140200000000E-01 -2.353500000000E-01 -1.165500000000E-01
     21 T   6 C    -2.486000000000E-01 -4.568300000000E-01  1.230000000000E-01
     22 F   6 C     2.486000000000E-01  4.568300000000E-01  1.230000000000E-01
     23 F   6 C    -4.568300000000E-01  2.486000000000E-01 -1.230000000000E-01
     24 F   6 C     4.568300000000E-01 -2.486000000000E-01 -1.230000000000E-01
     25 T   6 C    -3.416300000000E-01 -2.263300000000E-01  1.273400000000E-01
     26 F   6 C     3.416300000000E-01  2.263300000000E-01  1.273400000000E-01
     27 F   6 C    -2.263300000000E-01  3.416300000000E-01 -1.273400000000E-01
     28 F   6 C     2.263300000000E-01 -3.416300000000E-01 -1.273400000000E-01
     29 T   6 C    -1.843100000000E-01 -4.741000000000E-02  1.204300000000E-01
     30 F   6 C     1.843100000000E-01  4.741000000000E-02  1.204300000000E-01
     31 F   6 C    -4.741000000000E-02  1.843100000000E-01 -1.204300000000E-01
     32 F   6 C     4.741000000000E-02 -1.843100000000E-01 -1.204300000000E-01
     33 T   6 C    -1.085700000000E-01 -2.603500000000E-01  1.044300000000E-01
     34 F   6 C     1.085700000000E-01  2.603500000000E-01  1.044300000000E-01
     35 F   6 C    -2.603500000000E-01  1.085700000000E-01 -1.044300000000E-01
     36 F   6 C     2.603500000000E-01 -1.085700000000E-01 -1.044300000000E-01
     37 T   6 C     3.150000000000E-01  9.141000000000E-02  1.282200000000E-01
     38 F   6 C    -3.150000000000E-01 -9.141000000000E-02  1.282200000000E-01
     39 F   6 C     9.141000000000E-02 -3.150000000000E-01 -1.282200000000E-01
     40 F   6 C    -9.141000000000E-02  3.150000000000E-01 -1.282200000000E-01
     41 T   7 N    -1.592300000000E-01  4.628300000000E-01  1.672900000000E-01
     42 F   7 N     1.592300000000E-01 -4.628300000000E-01  1.672900000000E-01
     43 F   7 N     4.628300000000E-01  1.592300000000E-01 -1.672900000000E-01
     44 F   7 N    -4.628300000000E-01 -1.592300000000E-01 -1.672900000000E-01
     45 T   7 N    -2.059600000000E-01  3.358500000000E-01  1.597700000000E-01
     46 F   7 N     2.059600000000E-01 -3.358500000000E-01  1.597700000000E-01
     47 F   7 N     3.358500000000E-01  2.059600000000E-01 -1.597700000000E-01
     48 F   7 N    -3.358500000000E-01 -2.059600000000E-01 -1.597700000000E-01
     49 T   7 N     1.518600000000E-01 -3.221000000000E-02 -4.116000000000E-01
     50 F   7 N    -1.518600000000E-01  3.221000000000E-02 -4.116000000000E-01
     51 F   7 N    -3.221000000000E-02 -1.518600000000E-01  4.116000000000E-01
     52 F   7 N     3.221000000000E-02  1.518600000000E-01  4.116000000000E-01
     53 T   7 N    -3.199800000000E-01  3.388700000000E-01  1.128200000000E-01
     54 F   7 N     3.199800000000E-01 -3.388700000000E-01  1.128200000000E-01
     55 F   7 N     3.388700000000E-01  3.199800000000E-01 -1.128200000000E-01
     56 F   7 N    -3.388700000000E-01 -3.199800000000E-01 -1.128200000000E-01
     57 T   7 N    -8.258000000000E-02 -1.312300000000E-01  1.079100000000E-01
     58 F   7 N     8.258000000000E-02  1.312300000000E-01  1.079100000000E-01
     59 F   7 N    -1.312300000000E-01  8.258000000000E-02 -1.079100000000E-01
     60 F   7 N     1.312300000000E-01 -8.258000000000E-02 -1.079100000000E-01
     61 T  30 ZN    4.626932236752E-17  5.000000000000E-01  2.500000000000E-01
     62 T  30 ZN    0.000000000000E+00  0.000000000000E+00  5.000000000000E-01

 T = ATOM BELONGING TO THE ASYMMETRIC UNIT

 ****    4 SYMMOPS - TRANSLATORS IN FRACTIONAL UNITS
 **** MATRICES AND TRANSLATORS IN THE CRYSTALLOGRAPHIC REFERENCE FRAME
   V INV                    ROTATION MATRICES                   TRANSLATORS
   1   1  1.00  0.00  0.00  0.00  1.00  0.00  0.00  0.00  1.00  0.00  0.00  0.00
   2   2  0.00  1.00 -1.00  1.00 -0.00 -1.00 -0.00  0.00 -1.00  0.00  0.00  0.00
   3   4 -0.00 -1.00  0.00  0.00 -1.00  1.00  1.00 -1.00  0.00  0.00  0.00  0.00
   4   3 -1.00 -0.00  1.00 -1.00  0.00 -0.00 -1.00  1.00 -0.00  0.00  0.00  0.00

 DIRECT LATTICE VECTORS CARTESIAN COMPONENTS (ANGSTROM)
          X                    Y                    Z
  -0.507900000000E+01   0.507900000000E+01   0.664700000000E+01
   0.507900000000E+01  -0.507900000000E+01   0.664700000000E+01
   0.507900000000E+01   0.507900000000E+01  -0.664700000000E+01


 CARTESIAN COORDINATES - PRIMITIVE CELL
 *******************************************************************************
 *      ATOM          X(ANGSTROM)         Y(ANGSTROM)         Z(ANGSTROM)
 *******************************************************************************
    1     1 H     5.852023800000E-01  2.411204460000E+00 -4.830109020000E+00
    2     1 H    -5.852023800000E-01 -2.411204460000E+00 -4.830109020000E+00
    3     1 H     2.411204460000E+00 -5.852023800000E-01  4.830109020000E+00
    4     1 H    -2.411204460000E+00  5.852023800000E-01  4.830109020000E+00
    5     1 H    -2.446046400000E-01 -3.299419980000E+00  1.207494020000E+00
    6     1 H     2.446046400000E-01  3.299419980000E+00  1.207494020000E+00
    7     1 H    -3.299419980000E+00  2.446046400000E-01 -1.207494020000E+00
    8     1 H     3.299419980000E+00 -2.446046400000E-01 -1.207494020000E+00
    9    17 CL   -4.004080440000E+00 -1.972683600000E-01  1.821145060000E+00
   10    17 CL    4.004080440000E+00  1.972683600000E-01  1.821145060000E+00
   11    17 CL   -1.972683600000E-01  4.004080440000E+00 -1.821145060000E+00
   12    17 CL    1.972683600000E-01 -4.004080440000E+00 -1.821145060000E+00
   13    17 CL   -1.604151360000E+00  5.799202200000E-01  1.648721880000E+00
   14    17 CL    1.604151360000E+00 -5.799202200000E-01  1.648721880000E+00
   15    17 CL    5.799202200000E-01  1.604151360000E+00 -1.648721880000E+00
   16    17 CL   -5.799202200000E-01 -1.604151360000E+00 -1.648721880000E+00
   17     6 C    -2.390685300000E+00 -3.189815160000E+00  1.549415700000E+00
   18     6 C     2.390685300000E+00  3.189815160000E+00  1.549415700000E+00
   19     6 C    -3.189815160000E+00  2.390685300000E+00 -1.549415700000E+00
   20     6 C     3.189815160000E+00 -2.390685300000E+00 -1.549415700000E+00
   21     6 C    -2.525278800000E+00 -4.640479140000E+00  1.635162000000E+00
   22     6 C     2.525278800000E+00  4.640479140000E+00  1.635162000000E+00
   23     6 C    -4.640479140000E+00  2.525278800000E+00 -1.635162000000E+00
   24     6 C     4.640479140000E+00 -2.525278800000E+00 -1.635162000000E+00
   25     6 C    -3.470277540000E+00 -2.299060140000E+00  1.692857960000E+00
   26     6 C     3.470277540000E+00  2.299060140000E+00  1.692857960000E+00
   27     6 C    -2.299060140000E+00  3.470277540000E+00 -1.692857960000E+00
   28     6 C     2.299060140000E+00 -3.470277540000E+00 -1.692857960000E+00
   29     6 C    -1.872220980000E+00 -4.815907800000E-01  1.600996420000E+00
   30     6 C     1.872220980000E+00  4.815907800000E-01  1.600996420000E+00
   31     6 C    -4.815907800000E-01  1.872220980000E+00 -1.600996420000E+00
   32     6 C     4.815907800000E-01 -1.872220980000E+00 -1.600996420000E+00
   33     6 C    -1.102854060000E+00 -2.644635300000E+00  1.388292420000E+00
   34     6 C     1.102854060000E+00  2.644635300000E+00  1.388292420000E+00
   35     6 C    -2.644635300000E+00  1.102854060000E+00 -1.388292420000E+00
   36     6 C     2.644635300000E+00 -1.102854060000E+00 -1.388292420000E+00
   37     6 C     3.199770000000E+00  9.285427800000E-01  1.704556680000E+00
   38     6 C    -3.199770000000E+00 -9.285427800000E-01  1.704556680000E+00
   39     6 C     9.285427800000E-01 -3.199770000000E+00 -1.704556680000E+00
   40     6 C    -9.285427800000E-01  3.199770000000E+00 -1.704556680000E+00
   41     7 N    -1.617458340000E+00  4.701427140000E+00  2.223953260000E+00
   42     7 N     1.617458340000E+00 -4.701427140000E+00  2.223953260000E+00
   43     7 N     4.701427140000E+00  1.617458340000E+00 -2.223953260000E+00
   44     7 N    -4.701427140000E+00 -1.617458340000E+00 -2.223953260000E+00
   45     7 N    -2.092141680000E+00  3.411564300000E+00  2.123982380000E+00
   46     7 N     2.092141680000E+00 -3.411564300000E+00  2.123982380000E+00
   47     7 N     3.411564300000E+00  2.092141680000E+00 -2.123982380000E+00
   48     7 N    -3.411564300000E+00 -2.092141680000E+00 -2.123982380000E+00
   49     7 N     1.542593880000E+00 -3.271891800000E-01 -5.471810400000E+00
   50     7 N    -1.542593880000E+00  3.271891800000E-01 -5.471810400000E+00
   51     7 N    -3.271891800000E-01 -1.542593880000E+00  5.471810400000E+00
   52     7 N     3.271891800000E-01  1.542593880000E+00  5.471810400000E+00
   53     7 N    -3.250356840000E+00  3.442241460000E+00  1.499829080000E+00
   54     7 N     3.250356840000E+00 -3.442241460000E+00  1.499829080000E+00
   55     7 N     3.442241460000E+00  3.250356840000E+00 -1.499829080000E+00
   56     7 N    -3.442241460000E+00 -3.250356840000E+00 -1.499829080000E+00
   57     7 N    -8.388476400000E-01 -1.333034340000E+00  1.434555540000E+00
   58     7 N     8.388476400000E-01  1.333034340000E+00  1.434555540000E+00
   59     7 N    -1.333034340000E+00  8.388476400000E-01 -1.434555540000E+00
   60     7 N     1.333034340000E+00 -8.388476400000E-01 -1.434555540000E+00
   61    30 ZN    4.700037766092E-16  5.079000000000E+00 -9.970500000000E+00
   62    30 ZN    0.000000000000E+00  0.000000000000E+00  6.647000000000E+00

 *******************************************************************************
 STARTING BASIS SET HANDLING 
 *******************************************************************************

 Loading internal basis set: POB-DZVPP           

 Please cite in your publication:
 Peintinger, M. F., Oliveira, D. V. and Bredow, T. (2013), Generally applicable 
 solid-state Gaussian basis sets, in preparation                                
                                                                                
                    

 *******************************************************************************
 LOCAL ATOMIC FUNCTIONS BASIS SET
 *******************************************************************************
   ATOM   X(AU)   Y(AU)   Z(AU)  N. TYPE  EXPONENT  S COEF   P COEF   D/F/G COEF
 *******************************************************************************
   1 H    1.106   4.557  -9.128
                                  1 S  
                                         2.263E+01 1.441E-02 0.000E+00 0.000E+00
                                         3.236E+00 1.072E-01 0.000E+00 0.000E+00
                                         7.304E-01 3.846E-01 0.000E+00 0.000E+00
                                  2 S  
                                         1.417E-01 1.000E+00 0.000E+00 0.000E+00
                           3-     5 P  
                                         3.944E-01 0.000E+00 1.000E+00 0.000E+00
                           6-     8 P  
                                         1.006E-01 0.000E+00 1.000E+00 0.000E+00
   2 H   -1.106  -4.557  -9.128
   3 H    4.557  -1.106   9.128
   4 H   -4.557   1.106   9.128
   5 H   -0.462  -6.235   2.282
   6 H    0.462   6.235   2.282
   7 H   -6.235   0.462  -2.282
   8 H    6.235  -0.462  -2.282
   9 CL  -7.567  -0.373   3.441
                                 65 S  
                                         1.045E+04 1.971E-03 0.000E+00 0.000E+00
                                         1.572E+03 1.475E-02 0.000E+00 0.000E+00
                                         3.571E+02 6.668E-02 0.000E+00 0.000E+00
                                         1.003E+02 1.723E-01 0.000E+00 0.000E+00
                                         3.081E+01 1.588E-01 0.000E+00 0.000E+00
                                 66 S  
                                         5.192E+01-1.001E-01 0.000E+00 0.000E+00
                                         5.705E+00 6.084E-01 0.000E+00 0.000E+00
                                         2.351E+00 5.435E-01 0.000E+00 0.000E+00
                                 67 S  
                                         4.886E-01 1.000E+00 0.000E+00 0.000E+00
                                 68 S  
                                         1.984E-01 1.000E+00 0.000E+00 0.000E+00
                          69-    71 P  
                                         3.077E+02 0.000E+00-8.780E-03 0.000E+00
                                         7.210E+01 0.000E+00-6.356E-02 0.000E+00
                                         2.253E+01 0.000E+00-2.402E-01 0.000E+00
                                         7.899E+00 0.000E+00-4.780E-01 0.000E+00
                                         2.877E+00 0.000E+00-3.852E-01 0.000E+00
                          72-    74 P  
                                         9.483E-01 0.000E+00 1.000E+00 0.000E+00
                          75-    77 P  
                                         2.521E-01 0.000E+00 1.000E+00 0.000E+00
                          78-    82 D  
                                         9.722E-01 0.000E+00 0.000E+00 1.000E+00
                          83-    87 D  
                                         2.060E-01 0.000E+00 0.000E+00 1.000E+00
  10 CL   7.567   0.373   3.441
  11 CL  -0.373   7.567  -3.441
  12 CL   0.373  -7.567  -3.441
  13 CL  -3.031   1.096   3.116
  14 CL   3.031  -1.096   3.116
  15 CL   1.096   3.031  -3.116
  16 CL  -1.096  -3.031  -3.116
  17 C   -4.518  -6.028   2.928
                                249 S  
                                         1.238E+03 5.457E-03 0.000E+00 0.000E+00
                                         1.863E+02 4.064E-02 0.000E+00 0.000E+00
                                         4.225E+01 1.803E-01 0.000E+00 0.000E+00
                                         1.168E+01 4.632E-01 0.000E+00 0.000E+00
                                         3.593E+00 4.409E-01 0.000E+00 0.000E+00
                                250 S  
                                         5.281E+00 1.000E+00 0.000E+00 0.000E+00
                                251 S  
                                         4.447E-01 1.000E+00 0.000E+00 0.000E+00
                         252-   254 P  
                                         9.468E+00 0.000E+00 3.839E-02 0.000E+00
                                         2.010E+00 0.000E+00 2.112E-01 0.000E+00
                                         5.477E-01 0.000E+00 5.133E-01 0.000E+00
                         255-   257 P  
                                         1.604E-01 0.000E+00 1.000E+00 0.000E+00
                         258-   262 D  
                                         6.070E-01 0.000E+00 0.000E+00 1.000E+00
                         263-   267 D  
                                         2.939E-01 0.000E+00 0.000E+00 1.000E+00
  18 C    4.518   6.028   2.928
  19 C   -6.028   4.518  -2.928
  20 C    6.028  -4.518  -2.928
  21 C   -4.772  -8.769   3.090
  22 C    4.772   8.769   3.090
  23 C   -8.769   4.772  -3.090
  24 C    8.769  -4.772  -3.090
  25 C   -6.558  -4.345   3.199
  26 C    6.558   4.345   3.199
  27 C   -4.345   6.558  -3.199
  28 C    4.345  -6.558  -3.199
  29 C   -3.538  -0.910   3.025
  30 C    3.538   0.910   3.025
  31 C   -0.910   3.538  -3.025
  32 C    0.910  -3.538  -3.025
  33 C   -2.084  -4.998   2.623
  34 C    2.084   4.998   2.623
  35 C   -4.998   2.084  -2.623
  36 C    4.998  -2.084  -2.623
  37 C    6.047   1.755   3.221
  38 C   -6.047  -1.755   3.221
  39 C    1.755  -6.047  -3.221
  40 C   -1.755   6.047  -3.221
  41 N   -3.057   8.884   4.203
                                705 S  
                                         1.713E+03-5.393E-03 0.000E+00 0.000E+00
                                         2.576E+02-4.022E-02 0.000E+00 0.000E+00
                                         5.846E+01-1.793E-01 0.000E+00 0.000E+00
                                         1.620E+01-4.638E-01 0.000E+00 0.000E+00
                                         5.005E+00-4.417E-01 0.000E+00 0.000E+00
                                706 S  
                                         6.217E-01 1.000E+00 0.000E+00 0.000E+00
                                707 S  
                                         2.921E-01 1.000E+00 0.000E+00 0.000E+00
                         708-   710 P  
                                         1.357E+01 0.000E+00-4.007E-02 0.000E+00
                                         2.926E+00 0.000E+00-2.181E-01 0.000E+00
                                         7.993E-01 0.000E+00-5.129E-01 0.000E+00
                         711-   713 P  
                                         2.244E-01 0.000E+00 1.000E+00 0.000E+00
                         714-   718 D  
                                         3.118E-01 0.000E+00 0.000E+00 1.000E+00
  42 N    3.057  -8.884   4.203
  43 N    8.884   3.057  -4.203
  44 N   -8.884  -3.057  -4.203
  45 N   -3.954   6.447   4.014
  46 N    3.954  -6.447   4.014
  47 N    6.447   3.954  -4.014
  48 N   -6.447  -3.954  -4.014
  49 N    2.915  -0.618 -10.340
  50 N   -2.915   0.618 -10.340
  51 N   -0.618  -2.915  10.340
  52 N    0.618   2.915  10.340
  53 N   -6.142   6.505   2.834
  54 N    6.142  -6.505   2.834
  55 N    6.505   6.142  -2.834
  56 N   -6.505  -6.142  -2.834
  57 N   -1.585  -2.519   2.711
  58 N    1.585   2.519   2.711
  59 N   -2.519   1.585  -2.711
  60 N    2.519  -1.585  -2.711
  61 ZN   0.000   9.598 -18.842
                                985 S  
                                         8.200E+04 1.421E-03 0.000E+00 0.000E+00
                                         1.231E+04 1.089E-02 0.000E+00 0.000E+00
                                         2.801E+03 5.406E-02 0.000E+00 0.000E+00
                                         7.910E+02 1.885E-01 0.000E+00 0.000E+00
                                         2.576E+02 3.835E-01 0.000E+00 0.000E+00
                                         8.881E+01 2.972E-01 0.000E+00 0.000E+00
                                986 S  
                                         1.719E+02-1.105E-01 0.000E+00 0.000E+00
                                         2.030E+01 6.461E-01 0.000E+00 0.000E+00
                                         8.346E+00 4.422E-01 0.000E+00 0.000E+00
                                987 S  
                                         1.485E+01-2.271E-01 0.000E+00 0.000E+00
                                         2.450E+00 7.243E-01 0.000E+00 0.000E+00
                                         9.985E-01 4.484E-01 0.000E+00 0.000E+00
                                988 S  
                                         1.493E+00 1.000E+00 0.000E+00 0.000E+00
                                989 S  
                                         1.830E-01 1.000E+00 0.000E+00 0.000E+00
                         990-   992 P  
                                         1.072E+03 0.000E+00 9.277E-03 0.000E+00
                                         2.527E+02 0.000E+00 6.954E-02 0.000E+00
                                         8.010E+01 0.000E+00 2.716E-01 0.000E+00
                                         2.890E+01 0.000E+00 5.340E-01 0.000E+00
                                         1.077E+01 0.000E+00 3.450E-01 0.000E+00
                         993-   995 P  
                                         5.645E+00 0.000E+00 3.413E-01 0.000E+00
                                         2.168E+00 0.000E+00 5.639E-01 0.000E+00
                                         8.054E-01 0.000E+00 2.368E-01 0.000E+00
                         996-   998 P  
                                         2.721E-01 0.000E+00 1.000E+00 0.000E+00
                         999-  1003 D  
                                         5.609E+01 0.000E+00 0.000E+00 2.959E-02
                                         1.575E+01 0.000E+00 0.000E+00 1.587E-01
                                         5.312E+00 0.000E+00 0.000E+00 3.798E-01
                                         1.774E+00 0.000E+00 0.000E+00 4.690E-01
                        1004-  1008 D  
                                         5.073E-01 0.000E+00 0.000E+00 1.000E+00
                        1009-  1015 F  
                                         2.814E+00 0.000E+00 0.000E+00 1.000E+00
                        1016-  1022 F  
                                         1.300E+00 0.000E+00 0.000E+00 1.000E+00
  62 ZN   0.000   0.000  12.561

 *******************************************************************************
 FINISHED BASIS SET HANDLING 
 *******************************************************************************

 INFORMATION **** SET_MPP **** PCRYSTAL CALCULATION
 INFORMATION **** READM2 **** NEW DEFAULT: FOCK/KS MATRIX MIXING SET TO 30 %
 INFORMATION **** READM2 **** NEW DEFAULT: FULL DIRECT SCF MODE
 INFORMATION **** READM2 **** NEW DEFAULT: COULOMB BIPOLAR BUFFER SET TO 32 Mb
 INFORMATION **** READM2 **** NEW DEFAULT: EXCHANGE BIPOLAR BUFFER SET TO 32 Mb

 *******************************************************************************
 NEW DEFAULT: DFT INTEGRATION GRID INCREASED TO XLGRID
 NEW DEFAULT: DIIS ACCELERATOR ACTIVE
 USE KEYWORD NODIIS TO TURN IT OFF
 *******************************************************************************

 INFORMATION **** DFTD3_INPUT **** PERFORM DISPERSION CORRECTION DFT-D3(BJ) IN THE BECKE-JOHNSON DAMPING SCHEME

 PLEASE CITE:
 (1) DFT-D3 Reference
  S. Grimme, J. Antony, S. Ehrlich, and H. Krieg, J. Chem. Phys. 132 (2010), 154104
 (2) BJ-Damping Reference
  S. Grimme, S. Ehrlich, and L. Goerigk, J. Comput. Chem. 32 (2011), 1456-1465
 (3) General DFT-D Review
  S. Grimme, A. Hansen, J. G. Brandenburg, and C. Bannwarth,
  Chem. Rev. 116 (2016), 5105-5154

 INFORMATION **** BIPOSIZE **** COULOMB BIPOLAR BUFFER SET TO    30000000
 INFORMATION **** EXCHSIZE **** EXCHANGE BIPOLAR BUFFER SIZE SET TO    30000000
 INFORMATION **** TOLINTEG **** COULOMB AND EXCHANGE SERIES TOLERANCES MODIFIED
 INFORMATION **** MAXCYCLE **** MAX NUMBER OF SCF CYCLES SET TO          50
 *******************************************************************************
 N. OF ATOMS PER CELL        62  COULOMB OVERLAP TOL         (T1) 10**  -12
 NUMBER OF SHELLS           416  COULOMB PENETRATION TOL     (T2) 10**  -12
 NUMBER OF AO              1060  EXCHANGE OVERLAP TOL        (T3) 10**   20
 N. OF ELECTRONS PER CELL   488  EXCHANGE PSEUDO OVP (F(G))  (T4) 10**   20
 CORE ELECTRONS PER CELL    204  EXCHANGE PSEUDO OVP (P(G))  (T5) 10**   20
 N. OF SYMMETRY OPERATORS     4  POLE ORDER IN MONO ZONE                  4
 *******************************************************************************
 TYPE OF CALCULATION :  RESTRICTED CLOSED SHELL
 KOHN-SHAM HAMILTONIAN

 (EXCHANGE)[CORRELATION] FUNCTIONAL:(PERDEW-BURKE-ERNZERHOF)[PERDEW-BURKE-ERNZERHOF]


 CAPPA:IS1  3;IS2  3;IS3  3; K PTS MONK NET   6; SYMMOPS:K SPACE   8;G SPACE   4

 *******************************************************************************
 MAX NUMBER OF SCF CYCLES      50  CONVERGENCE ON DELTAP        10**-16
 WEIGHT OF F(I) IN F(I+1)      30% CONVERGENCE ON ENERGY        10**- 7
 SHRINK. FACT.(MONKH.)    3  3  3  NUMBER OF K POINTS IN THE IBZ      6
 SHRINKING FACTOR(GILAT NET)    3  NUMBER OF K POINTS(GILAT NET)      6
 *******************************************************************************
 *** K POINTS COORDINATES (OBLIQUE COORDINATES IN UNITS OF IS =  3)
   1-R(  0  0  0)   2-C(  1  0  0)   3-C(  1  1  0)   4-C(  2  1  0)
   5-C(  2  1  1)   6-C(  2  2  1)

 DIRECT LATTICE VECTORS COMPON. (A.U.)     RECIP. LATTICE VECTORS COMPON. (A.U.) 
        X            Y            Z              X            Y            Z
   -9.5979190    9.5979190   12.5610096      0.0000000    0.3273202    0.2501067
    9.5979190   -9.5979190   12.5610096      0.3273202    0.0000000    0.2501067
    9.5979190    9.5979190  -12.5610096      0.3273202    0.3273202    0.0000000

 DISK SPACE FOR EIGENVECTORS (FTN 10)    12359600 REALS

 SYMMETRY ADAPTION OF THE BLOCH FUNCTIONS ENABLED
 TTTTTTTTTTTTTTTTTTTTTTTTTTTTTT gordsh1     TELAPSE        1.29 TCPU        0.04

 MATRIX SIZE: P(G) 2032912, F(G) 1017466, P(G) IRR  257116, F(G) IRR  257116
 MAX G-VECTOR INDEX FOR 1- AND 2-ELECTRON INTEGRALS  63

 TTTTTTTTTTTTTTTTTTTTTTTTTTTTTT INPUT       TELAPSE        1.34 TCPU        0.09

 NEIGHBORS OF THE NON-EQUIVALENT ATOMS

 N = NUMBER OF NEIGHBORS AT DISTANCE R
    ATOM  N     R/ANG      R/AU   NEIGHBORS (ATOM LABELS AND CELL INDICES)
   1 H    1     1.0950     2.0692   25 C    0 0 1
   1 H    1     2.1707     4.1021   38 C    0 0 1
   1 H    1     2.1834     4.1260   17 C    0 0 1
   1 H    1     2.5186     4.7595    9 CL   0 0 1
   1 H    1     2.5548     4.8279   54 N    0-1 0
   1 H    1     2.7928     5.2776   21 C    0 0 1

   5 H    1     1.0945     2.0684   33 C    0 0 0
   5 H    1     2.0667     3.9055   57 N    0 0 0
   5 H    1     2.1759     4.1119   17 C    0 0 0
   5 H    1     2.5126     4.7480   46 N    0 0 0
   5 H    1     2.5429     4.8053   42 N    0 0 0
   5 H    1     2.6801     5.0646   21 C    0 0 0

   9 CL   1     1.0933     2.0660   38 C    0 0 0
   9 CL   1     2.1620     4.0855   29 C    0 0 0
   9 CL   1     2.1723     4.1051   25 C    0 0 0
   9 CL   1     2.1857     4.1305   10 CL   0-1-1
   9 CL   1     2.5186     4.7595    1 H    0 0-1
   9 CL   1     2.5285     4.7782   13 CL   0 0 0

  13 CL   1     1.0959     2.0709   29 C    0 0 0
  13 CL   1     2.0715     3.9145   57 N    0 0 0
  13 CL   1     2.1965     4.1508   38 C    0 0 0
  13 CL   1     2.5285     4.7782    9 CL   0 0 0
  13 CL   1     2.5654     4.8479   58 N    0 0 0
  13 CL   1     2.9124     5.5037   45 N    0 0 0

  17 C    1     1.4070     2.6588   25 C    0 0 0
  17 C    1     1.4077     2.6602   33 C    0 0 0
  17 C    1     1.4594     2.7579   21 C    0 0 0
  17 C    1     2.1759     4.1119    5 H    0 0 0
  17 C    1     2.1834     4.1260    1 H    0 0-1
  17 C    1     2.4067     4.5479   38 C    0 0 0

  21 C    1     1.3492     2.5496   49 N    0 0-1
  21 C    1     1.3553     2.5611   41 N   -1 0-1
  21 C    1     1.4594     2.7579   17 C    0 0 0
  21 C    1     2.2025     4.1620   53 N   -1 0-1
  21 C    1     2.2049     4.1667   45 N   -1 0-1
  21 C    1     2.4633     4.6549   33 C    0 0 0

  25 C    1     1.0950     2.0692    1 H    0 0-1
  25 C    1     1.3970     2.6400   38 C    0 0 0
  25 C    1     1.4070     2.6588   17 C    0 0 0
  25 C    1     2.1723     4.1051    9 CL   0 0 0
  25 C    1     2.4118     4.5577   33 C    0 0 0
  25 C    1     2.4219     4.5767   29 C    0 0 0

  29 C    1     1.0959     2.0709   13 CL   0 0 0
  29 C    1     1.3493     2.5497   57 N    0 0 0
  29 C    1     1.4046     2.6543   38 C    0 0 0
  29 C    1     2.1620     4.0855    9 CL   0 0 0
  29 C    1     2.3056     4.3570   33 C    0 0 0
  29 C    1     2.4219     4.5767   25 C    0 0 0

  33 C    1     1.0945     2.0684    5 H    0 0 0
  33 C    1     1.3387     2.5298   57 N    0 0 0
  33 C    1     1.4077     2.6602   17 C    0 0 0
  33 C    1     2.3056     4.3570   29 C    0 0 0
  33 C    1     2.4118     4.5577   25 C    0 0 0
  33 C    1     2.4633     4.6549   21 C    0 0 0

  37 C    1     1.0933     2.0660   10 CL   0 0 0
  37 C    1     1.3970     2.6400   26 C    0 0 0
  37 C    1     1.4046     2.6543   30 C    0 0 0
  37 C    1     2.1707     4.1021    2 H    1 1 1
  37 C    1     2.1965     4.1508   14 CL   0 0 0
  37 C    1     2.4067     4.5479   18 C    0 0 0

  41 N    1     1.3553     2.5611   21 C    1 0 1
  41 N    1     1.3781     2.6042   45 N    0 0 0
  41 N    1     1.9919     3.7642   61 ZN   1 1 0
  41 N    1     2.1855     4.1299   53 N    0 0 0
  41 N    1     2.1874     4.1336   49 N    1 0 0
  41 N    1     2.4882     4.7020   17 C    1 0 1

  45 N    1     1.3160     2.4870   53 N    0 0 0
  45 N    1     1.3781     2.6042   41 N    0 0 0
  45 N    1     2.1869     4.1326   49 N    1 0 0
  45 N    1     2.2049     4.1667   21 C    1 0 1
  45 N    1     2.5126     4.7480    6 H    0 0 0
  45 N    1     2.9124     5.5037   13 CL   0 0 0

  49 N    1     1.3492     2.5496   21 C    0 0 1
  49 N    1     1.3792     2.6063   53 N   -1 0 0
  49 N    1     1.9667     3.7164   62 ZN  -1-1 0
  49 N    1     2.1869     4.1326   45 N   -1 0 0
  49 N    1     2.1874     4.1336   41 N   -1 0 0
  49 N    1     2.5229     4.7676   17 C    0 0 1

  53 N    1     1.3160     2.4870   45 N    0 0 0
  53 N    1     1.3792     2.6063   49 N    1 0 0
  53 N    1     2.1855     4.1299   41 N    0 0 0
  53 N    1     2.2025     4.1620   21 C    1 0 1
  53 N    1     2.5548     4.8279    2 H    1 0 0
  53 N    1     2.8762     5.4352   62 ZN   0-1 0

  57 N    1     1.3387     2.5298   33 C    0 0 0
  57 N    1     1.3493     2.5497   29 C    0 0 0
  57 N    1     2.0667     3.9055    5 H    0 0 0
  57 N    1     2.0715     3.9145   13 CL   0 0 0
  57 N    1     2.4105     4.5552   38 C    0 0 0
  57 N    1     2.4226     4.5781   17 C    0 0 0

  61 ZN   4     1.9919     3.7642   41 N   -1-1 0   42 N    0-1 1   43 N    0-1 0
                                    44 N    0 0 1
  61 ZN   4     2.7756     5.2452    5 H    0-1 1    6 H   -1-1 0    7 H    0 0 1
                                     8 H    0-1 0
  61 ZN   4     2.9319     5.5406   45 N   -1-1 0   46 N    0-1 1   47 N    0-1 0
                                    48 N    0 0 1
  61 ZN   4     3.0692     5.7999   21 C    0-1 1   22 C   -1-1 0   23 C    0 0 1
                                    24 C    0-1 0
  61 ZN   4     3.2996     6.2354   33 C    0-1 1   34 C   -1-1 0   35 C    0 0 1
                                    36 C    0-1 0
  61 ZN   4     3.5259     6.6629   17 C    0-1 1   18 C   -1-1 0   19 C    0 0 1
                                    20 C    0-1 0

  62 ZN   4     1.9667     3.7164   49 N    1 1 0   50 N    1 1 0   51 N    0 0 0
                                    52 N    0 0 0
  62 ZN   4     2.8762     5.4352   53 N    0 1 0   54 N    1 0 0   55 N    0 0-1
                                    56 N    1 1 1
  62 ZN   4     3.0639     5.7900   21 C    1 1 1   22 C    0 0-1   23 C    0 1 0
                                    24 C    1 0 0
  62 ZN   4     3.0753     5.8115    1 H    1 1 0    2 H    1 1 0    3 H    0 0 0
                                     4 H    0 0 0
  62 ZN   4     3.6307     6.8610   25 C    1 1 1   26 C    0 0-1   27 C    0 1 0
                                    28 C    1 0 0
  62 ZN   4     3.6327     6.8649   17 C    1 1 1   18 C    0 0-1   19 C    0 1 0
                                    20 C    1 0 0


 SYMMETRY ALLOWED ELASTIC DISTORTION 1
  0.5773503  0.0000000  0.0000000
  0.0000000  0.5773503  0.0000000
  0.0000000  0.0000000  0.5773503

 SYMMETRY ALLOWED ELASTIC DISTORTION 2
  0.4082483  0.0000000  0.0000000
  0.0000000  0.4082483  0.0000000
  0.0000000  0.0000000 -0.8164966

 SYMMETRY ALLOWED INTERNAL DEGREE(S) OF FREEDOM:  45
 TTTTTTTTTTTTTTTTTTTTTTTTTTTTTT SYMM        TELAPSE        1.36 TCPU        0.11
 TTTTTTTTTTTTTTTTTTTTTTTTTTTTTT INT_SCREEN  TELAPSE        1.37 TCPU        0.12

 *******************************************************************************
 *                             OPTIMIZATION STARTS                             *
 *******************************************************************************
 RECLASIFICATION OF INDICES FOR INTEGRAL CALC ACCORDING TO DIFFERENT CRITERIA:
           FIXDELTE                  FIXDELTX              FIXDELTN
          0.10000000               0.80000000                 47
 DEFAULT MAX NUM OF POINTS  100
 *******************************************************************************

 *******************************************************************************
 COORDINATE AND CELL OPTIMIZATION - POINT    1
 INFORMATION **** EXCBUF **** EXCH. BIPO BUFFER: WORDS USED =           0

 DFT PARAMETERS

     ATOM       ELECTRONS   NET CHARGE   R(ANGSTROM)
   1   1  H       1.0000      0.0000     1.11000000
   9  17  CL     17.0000      0.0000     0.99000000
  17   6  C       6.0000      0.0000     0.77000000
  41   7  N       7.0000      0.0000     0.74000000
  61  30  ZN     30.0000      0.0000     1.37000000

 SIZE OF GRID=     452593
 TTTTTTTTTTTTTTTTTTTTTTTTTTTTTT MAKE_GRID2  TELAPSE        2.84 TCPU        1.58
 BECKE WEIGHT FUNCTION
 RADSAFE =     2.00
 TOLERANCES - DENSITY:10**- 6; POTENTIAL:10**- 9; GRID WGT:10**-14

 RADIAL INTEGRATION  - INTERVALS (POINTS,UPPER LIMIT):            1( 75,  4.0*R)

 ANGULAR INTEGRATION - INTERVALS (ACCURACY LEVEL [N. POINTS] UPPER LIMIT):
  1(  4[  86]   0.2)  2(  8[ 194]   0.5)  3( 12[ 350]   0.9)  4( 16[ 974]   3.5)
  5( 12[ 350]9999.0)
 TTTTTTTTTTTTTTTTTTTTTTTTTTTTTT INT_CALC    TELAPSE        2.89 TCPU        1.64

 *******************************************************************************
 C:\Users\wilso\AppData\Local\Temp\tmp_p\newconn.mol                             
 CRYSTAL - SCF - TYPE OF CALCULATION :  RESTRICTED CLOSED SHELL
 *******************************************************************************

 CAPPA:IS1  3;IS2  3;IS3  3; K PTS MONK NET   6; SYMMOPS:K SPACE   8;G SPACE   4

 TTTTTTTTTTTTTTTTTTTTTTTTTTTTTT SDIK        TELAPSE        3.12 TCPU        1.86

 AAAAAAAAAAAAAAAAAAAAAAAAAAAAAAAAAAAAAAAAAAAAAAAAAAAAAAAAAAAAAAAAAAAAAAAAAAAAAAA
         ATOMIC WAVEFUNCTION(S)


 NUCLEAR CHARGE  1.0  SYMMETRY SPECIES            S
 N. ELECTRONS    1.0  NUMBER OF PRIMITIVE GTOS    4
                      NUMBER OF CONTRACTED GTOS   2
                      NUMBER OF CLOSED SHELLS     0
                      OPEN SHELL OCCUPATION       1

  ZNUC SCFIT  TOTAL HF ENERGY   KINETIC ENERGY   VIRIAL THEOREM ACCURACY
   1.0   1   -4.946643675E-01  4.917913167E-01 -2.005842012E+00  9.4E-17

 NUCLEAR CHARGE 17.0  SYMMETRY SPECIES            S    P
 N. ELECTRONS   17.0  NUMBER OF PRIMITIVE GTOS   10    7
                      NUMBER OF CONTRACTED GTOS   4    3
                      NUMBER OF CLOSED SHELLS     3    1
                      OPEN SHELL OCCUPATION       0    5

  ZNUC SCFIT  TOTAL HF ENERGY   KINETIC ENERGY   VIRIAL THEOREM ACCURACY
  17.0   9   -4.593005957E+02  4.593991532E+02 -1.999785464E+00  2.3E-06

 NUCLEAR CHARGE  6.0  SYMMETRY SPECIES            S    P
 N. ELECTRONS    6.0  NUMBER OF PRIMITIVE GTOS    7    4
                      NUMBER OF CONTRACTED GTOS   3    2
                      NUMBER OF CLOSED SHELLS     2    0
                      OPEN SHELL OCCUPATION       0    2

  ZNUC SCFIT  TOTAL HF ENERGY   KINETIC ENERGY   VIRIAL THEOREM ACCURACY
   6.0   6   -3.750912652E+01  3.905246519E+01 -1.960480378E+00  3.7E-06

 NUCLEAR CHARGE  7.0  SYMMETRY SPECIES            S    P
 N. ELECTRONS    7.0  NUMBER OF PRIMITIVE GTOS    7    4
                      NUMBER OF CONTRACTED GTOS   3    2
                      NUMBER OF CLOSED SHELLS     2    0
                      OPEN SHELL OCCUPATION       0    3

  ZNUC SCFIT  TOTAL HF ENERGY   KINETIC ENERGY   VIRIAL THEOREM ACCURACY
   7.0   9   -5.432196661E+01  5.425066284E+01 -2.001314339E+00  1.2E-06

 NUCLEAR CHARGE 30.0  SYMMETRY SPECIES            S    P    D
 N. ELECTRONS   30.0  NUMBER OF PRIMITIVE GTOS   14    9    5
                      NUMBER OF CONTRACTED GTOS   5    3    2
                      NUMBER OF CLOSED SHELLS     4    2    1
                      OPEN SHELL OCCUPATION       0    0    0

  ZNUC SCFIT  TOTAL HF ENERGY   KINETIC ENERGY   VIRIAL THEOREM ACCURACY
  30.0  10   -1.777404290E+03  1.777325716E+03 -2.000044209E+00  2.5E-06

 AAAAAAAAAAAAAAAAAAAAAAAAAAAAAAAAAAAAAAAAAAAAAAAAAAAAAAAAAAAAAAAAAAAAAAAAAAAAAAA

 CHARGE NORMALIZATION FACTOR   1.00000000
 TOTAL ATOMIC CHARGES:
   1.0000000   1.0000000   1.0000000   1.0000000   1.0000000   1.0000000
   1.0000000   1.0000000  17.0000000  17.0000000  17.0000000  17.0000000
  17.0000000  17.0000000  17.0000000  17.0000000   6.0000000   6.0000000
   6.0000000   6.0000000   6.0000000   6.0000000   6.0000000   6.0000000
   6.0000000   6.0000000   6.0000000   6.0000000   6.0000000   6.0000000
   6.0000000   6.0000000   6.0000000   6.0000000   6.0000000   6.0000000
   6.0000000   6.0000000   6.0000000   6.0000000   7.0000000   7.0000000
   7.0000000   7.0000000   7.0000000   7.0000000   7.0000000   7.0000000
   7.0000000   7.0000000   7.0000000   7.0000000   7.0000000   7.0000000
   7.0000000   7.0000000   7.0000000   7.0000000   7.0000000   7.0000000
  30.0000000  30.0000000
 TTTTTTTTTTTTTTTTTTTTTTTTTTTTTT MOQGAD      TELAPSE        4.89 TCPU        3.61
 TTTTTTTTTTTTTTTTTTTTTTTTTTTTTT SHELLXN     TELAPSE       96.19 TCPU       88.93
 TTTTTTTTTTTTTTTTTTTTTTTTTTTTTT MONMO3      TELAPSE      103.12 TCPU       95.84
 NUMERICALLY INTEGRATED DENSITY    488.0000549167
 TTTTTTTTTTTTTTTTTTTTTTTTTTTTTT NUMDFT      TELAPSE      105.78 TCPU       98.49
 CYC   0 ETOT(AU) -9.261332414431E+03 DETOT -9.26E+03 tst  0.00E+00 PX  1.00E+00
 TTTTTTTTTTTTTTTTTTTTTTTTTTTTTT DIIS        TELAPSE      105.87 TCPU       98.58
 TTTTTTTTTTTTTTTTTTTTTTTTTTTTTT FDIK        TELAPSE      146.77 TCPU      133.24
 INSULATING STATE
 TOP OF VALENCE BANDS -    BAND    244; K    3; EIG -1.3217790E-01 AU
 TOP OF VALENCE BANDS -    BAND    244; K    1; EIG -1.3287847E-01 AU
 BOTTOM OF VIRTUAL BANDS - BAND    245; K    1; EIG -1.2338322E-01 AU
 INDIRECT ENERGY BAND GAP:   0.2393 eV
 TTTTTTTTTTTTTTTTTTTTTTTTTTTTTT PDIG        TELAPSE      147.50 TCPU      133.96
 CHARGE NORMALIZATION FACTOR   1.00000000
 TOTAL ATOMIC CHARGES:
   1.1999528   1.1999528   1.1999528   1.1999528   1.3570232   1.3570232
   1.3570232   1.3570232  16.7731118  16.7731118  16.7731118  16.7731118
  16.5444179  16.5444179  16.5444179  16.5444179   6.0927017   6.0927017
   6.0927017   6.0927017   5.4789644   5.4789644   5.4789644   5.4789644
   6.2240289   6.2240289   6.2240289   6.2240289   5.9291205   5.9291205
   5.9291205   5.9291205   5.9034815   5.9034815   5.9034815   5.9034815
   6.0129015   6.0129015   6.0129015   6.0129015   7.3724733   7.3724733
   7.3724733   7.3724733   7.1826750   7.1826750   7.1826750   7.1826750
   7.3682163   7.3682163   7.3682163   7.3682163   7.1731448   7.1731448
   7.1731448   7.1731448   7.5440231   7.5440231   7.5440231   7.5440231
  27.6068267  27.7682270
 TTTTTTTTTTTTTTTTTTTTTTTTTTTTTT MOQGAD      TELAPSE      147.55 TCPU      134.02
 TTTTTTTTTTTTTTTTTTTTTTTTTTTTTT SHELLXN     TELAPSE      250.11 TCPU      234.21
 TTTTTTTTTTTTTTTTTTTTTTTTTTTTTT MONMO3      TELAPSE      256.36 TCPU      240.44
 NUMERICALLY INTEGRATED DENSITY    488.0000496195
 TTTTTTTTTTTTTTTTTTTTTTTTTTTTTT NUMDFT      TELAPSE      263.70 TCPU      247.76
 CYC   1 ETOT(AU) -9.240042435910E+03 DETOT  2.13E+01 tst  0.00E+00 PX  1.00E+00
 TTTTTTTTTTTTTTTTTTTTTTTTTTTTTT DIIS        TELAPSE      263.87 TCPU      247.93
 DIIS TEST: 0.14993E+02 AT SCF   CYCLE   1 - MIX   30 %
 TTTTTTTTTTTTTTTTTTTTTTTTTTTTTT FDIK        TELAPSE      277.55 TCPU      260.01
 POSSIBLY CONDUCTING STATE - EFERMI(AU) -8.0551434E-02 (RES. CHARGE  1.40E-11;IT. 16)
 TTTTTTTTTTTTTTTTTTTTTTTTTTTTTT PDIG        TELAPSE      278.27 TCPU      260.73
 CHARGE NORMALIZATION FACTOR   1.00000000
 TOTAL ATOMIC CHARGES:
   1.3315076   1.3315076   1.3315076   1.3315076   1.4703741   1.4703741
   1.4703741   1.4703741  17.3337465  17.3337465  17.3337465  17.3337465
  16.9032993  16.9032993  16.9032993  16.9032993   6.1435009   6.1435009
   6.1435009   6.1435009   6.3743953   6.3743953   6.3743953   6.3743953
   6.2392877   6.2392877   6.2392877   6.2392877   5.8276986   5.8276986
   5.8276986   5.8276986   6.2437285   6.2437285   6.2437285   6.2437285
   5.5494620   5.5494620   5.5494620   5.5494620   7.1329348   7.1329348
   7.1329348   7.1329348   6.8532063   6.8532063   6.8532063   6.8532063
   7.1062189   7.1062189   7.1062189   7.1062189   6.8724437   6.8724437
   6.8724437   6.8724437   5.5982404   5.5982404   5.5982404   5.5982404
  30.1477147  29.9321073
 TTTTTTTTTTTTTTTTTTTTTTTTTTTTTT MOQGAD      TELAPSE      278.33 TCPU      260.78
 TTTTTTTTTTTTTTTTTTTTTTTTTTTTTT SHELLXN     TELAPSE      381.07 TCPU      361.07
 TTTTTTTTTTTTTTTTTTTTTTTTTTTTTT MONMO3      TELAPSE      387.75 TCPU      367.73
 NUMERICALLY INTEGRATED DENSITY    488.0000638674
 TTTTTTTTTTTTTTTTTTTTTTTTTTTTTT NUMDFT      TELAPSE      395.05 TCPU      375.01
 CYC   2 ETOT(AU) -9.236463748526E+03 DETOT  3.58E+00 tst  1.26E-01 PX  1.03E+00
 TTTTTTTTTTTTTTTTTTTTTTTTTTTTTT DIIS        TELAPSE      395.23 TCPU      375.18
 DIIS TEST: 0.37614E+02 AT SCF   CYCLE   2 - DIIS ACTIVE - HISTORY:     2 CYCLES
 TTTTTTTTTTTTTTTTTTTTTTTTTTTTTT FDIK        TELAPSE      409.65 TCPU      387.43
 INSULATING STATE
 TOP OF VALENCE BANDS -    BAND    244; K    6; EIG -1.7586994E-01 AU
 TOP OF VALENCE BANDS -    BAND    244; K    1; EIG -1.7602959E-01 AU
 BOTTOM OF VIRTUAL BANDS - BAND    245; K    3; EIG -1.2276619E-01 AU
 INDIRECT ENERGY BAND GAP:   1.4450 eV
 BOTTOM OF VIRTUAL BANDS - BAND    245; K    1; EIG -1.2160236E-01 AU
 TTTTTTTTTTTTTTTTTTTTTTTTTTTTTT PDIG        TELAPSE      410.38 TCPU      388.15
 CHARGE NORMALIZATION FACTOR   1.00000000
 TOTAL ATOMIC CHARGES:
   1.2431059   1.2431059   1.2431059   1.2431059   1.3235758   1.3235758
   1.3235758   1.3235758  16.9325679  16.9325679  16.9325679  16.9325679
  17.2378665  17.2378665  17.2378665  17.2378665   5.7612125   5.7612125
   5.7612125   5.7612125   5.8533282   5.8533282   5.8533282   5.8533282
   5.8440291   5.8440291   5.8440291   5.8440291   6.0514005   6.0514005
   6.0514005   6.0514005   5.9337581   5.9337581   5.9337581   5.9337581
   5.5321626   5.5321626   5.5321626   5.5321626   6.7931848   6.7931848
   6.7931848   6.7931848   7.1430099   7.1430099   7.1430099   7.1430099
   6.7752463   6.7752463   6.7752463   6.7752463   7.0961869   7.0961869
   7.0961869   7.0961869   7.7398909   7.7398909   7.7398909   7.7398909
  29.5028625  29.4550338
 TTTTTTTTTTTTTTTTTTTTTTTTTTTTTT MOQGAD      TELAPSE      410.43 TCPU      388.20
 TTTTTTTTTTTTTTTTTTTTTTTTTTTTTT SHELLXN     TELAPSE      512.90 TCPU      488.30
 TTTTTTTTTTTTTTTTTTTTTTTTTTTTTT MONMO3      TELAPSE      519.52 TCPU      494.88
 NUMERICALLY INTEGRATED DENSITY    488.0000650404
 TTTTTTTTTTTTTTTTTTTTTTTTTTTTTT NUMDFT      TELAPSE      526.83 TCPU      502.16
 CYC   3 ETOT(AU) -9.240119338257E+03 DETOT -3.66E+00 tst  1.19E+00 PX  5.66E-01
 TTTTTTTTTTTTTTTTTTTTTTTTTTTTTT DIIS        TELAPSE      527.02 TCPU      502.35
 DIIS TEST: 0.15755E+02 AT SCF   CYCLE   3 - DIIS ACTIVE - HISTORY:     3 CYCLES
 TTTTTTTTTTTTTTTTTTTTTTTTTTTTTT FDIK        TELAPSE      542.73 TCPU      516.59
 INSULATING STATE
 TOP OF VALENCE BANDS -    BAND    244; K    4; EIG -1.6480284E-01 AU
 TOP OF VALENCE BANDS -    BAND    244; K    1; EIG -1.6730344E-01 AU
 BOTTOM OF VIRTUAL BANDS - BAND    245; K    1; EIG -1.1407086E-01 AU
 INDIRECT ENERGY BAND GAP:   1.3805 eV
 TTTTTTTTTTTTTTTTTTTTTTTTTTTTTT PDIG        TELAPSE      543.45 TCPU      517.31
 CHARGE NORMALIZATION FACTOR   1.00000000
 TOTAL ATOMIC CHARGES:
   1.1891526   1.1891526   1.1891526   1.1891526   1.3194687   1.3194687
   1.3194687   1.3194687  17.1869958  17.1869958  17.1869958  17.1869958
  16.6807284  16.6807284  16.6807284  16.6807284   6.1285446   6.1285446
   6.1285446   6.1285446   5.7378421   5.7378421   5.7378421   5.7378421
   6.3673589   6.3673589   6.3673589   6.3673589   5.7023150   5.7023150
   5.7023150   5.7023150   5.9444368   5.9444368   5.9444368   5.9444368
   5.7893339   5.7893339   5.7893339   5.7893339   7.1427803   7.1427803
   7.1427803   7.1427803   6.9900957   6.9900957   6.9900957   6.9900957
   7.1997357   7.1997357   7.1997357   7.1997357   7.0845202   7.0845202
   7.0845202   7.0845202   7.1158317   7.1158317   7.1158317   7.1158317
  28.8137688  28.8696695
 TTTTTTTTTTTTTTTTTTTTTTTTTTTTTT MOQGAD      TELAPSE      543.50 TCPU      517.36
 TTTTTTTTTTTTTTTTTTTTTTTTTTTTTT SHELLXN     TELAPSE      645.55 TCPU      617.07
 TTTTTTTTTTTTTTTTTTTTTTTTTTTTTT MONMO3      TELAPSE      652.91 TCPU      624.41
 NUMERICALLY INTEGRATED DENSITY    488.0000588767
 TTTTTTTTTTTTTTTTTTTTTTTTTTTTTT NUMDFT      TELAPSE      660.30 TCPU      631.78
 CYC   4 ETOT(AU) -9.242261720533E+03 DETOT -2.14E+00 tst  2.96E-02 PX  3.79E-01
 TTTTTTTTTTTTTTTTTTTTTTTTTTTTTT DIIS        TELAPSE      660.47 TCPU      631.95
 DIIS TEST: 0.16823E+01 AT SCF   CYCLE   4 - DIIS ACTIVE - HISTORY:     4 CYCLES
 TTTTTTTTTTTTTTTTTTTTTTTTTTTTTT FDIK        TELAPSE      674.72 TCPU      644.04
 INSULATING STATE
 TOP OF VALENCE BANDS -    BAND    244; K    4; EIG -1.5800359E-01 AU
 TOP OF VALENCE BANDS -    BAND    244; K    1; EIG -1.5941925E-01 AU
 BOTTOM OF VIRTUAL BANDS - BAND    245; K    1; EIG -9.9595947E-02 AU
 INDIRECT ENERGY BAND GAP:   1.5894 eV
 TTTTTTTTTTTTTTTTTTTTTTTTTTTTTT PDIG        TELAPSE      675.45 TCPU      644.76
 CHARGE NORMALIZATION FACTOR   1.00000000
 TOTAL ATOMIC CHARGES:
   1.2073101   1.2073101   1.2073101   1.2073101   1.3315996   1.3315996
   1.3315996   1.3315996  16.9435050  16.9435050  16.9435050  16.9435050
  16.8928917  16.8928917  16.8928917  16.8928917   6.0727618   6.0727618
   6.0727618   6.0727618   5.7911975   5.7911975   5.7911975   5.7911975
   6.1101916   6.1101916   6.1101916   6.1101916   5.9122410   5.9122410
   5.9122410   5.9122410   6.1275595   6.1275595   6.1275595   6.1275595
   5.6828929   5.6828929   5.6828929   5.6828929   7.2905474   7.2905474
   7.2905474   7.2905474   7.1338572   7.1338572   7.1338572   7.1338572
   7.0970094   7.0970094   7.0970094   7.0970094   6.9535367   6.9535367
   6.9535367   6.9535367   7.0375683   7.0375683   7.0375683   7.0375683
  28.8325421  28.8287792
 TTTTTTTTTTTTTTTTTTTTTTTTTTTTTT MOQGAD      TELAPSE      675.50 TCPU      644.82
 TTTTTTTTTTTTTTTTTTTTTTTTTTTTTT SHELLXN     TELAPSE      777.38 TCPU      744.22
 TTTTTTTTTTTTTTTTTTTTTTTTTTTTTT MONMO3      TELAPSE      784.60 TCPU      751.42
 NUMERICALLY INTEGRATED DENSITY    488.0000585429
 TTTTTTTTTTTTTTTTTTTTTTTTTTTTTT NUMDFT      TELAPSE      791.86 TCPU      758.66
 CYC   5 ETOT(AU) -9.242350756199E+03 DETOT -8.90E-02 tst  2.25E-03 PX  1.14E-01
 TTTTTTTTTTTTTTTTTTTTTTTTTTTTTT DIIS        TELAPSE      792.04 TCPU      758.84
 DIIS TEST: 0.11430E+01 AT SCF   CYCLE   5 - DIIS ACTIVE - HISTORY:     5 CYCLES
 TTTTTTTTTTTTTTTTTTTTTTTTTTTTTT FDIK        TELAPSE      804.69 TCPU      771.38
 INSULATING STATE
 TOP OF VALENCE BANDS -    BAND    244; K    4; EIG -1.6048423E-01 AU
 TOP OF VALENCE BANDS -    BAND    244; K    1; EIG -1.6270358E-01 AU
 BOTTOM OF VIRTUAL BANDS - BAND    245; K    1; EIG -1.0356994E-01 AU
 INDIRECT ENERGY BAND GAP:   1.5487 eV
 TTTTTTTTTTTTTTTTTTTTTTTTTTTTTT PDIG        TELAPSE      805.41 TCPU      772.10
 CHARGE NORMALIZATION FACTOR   1.00000000
 TOTAL ATOMIC CHARGES:
   1.2100177   1.2100177   1.2100177   1.2100177   1.3318566   1.3318566
   1.3318566   1.3318566  17.0946226  17.0946226  17.0946226  17.0946226
  16.8398070  16.8398070  16.8398070  16.8398070   6.0386679   6.0386679
   6.0386679   6.0386679   5.8116019   5.8116019   5.8116019   5.8116019
   6.1765422   6.1765422   6.1765422   6.1765422   5.8680097   5.8680097
   5.8680097   5.8680097   5.9661149   5.9661149   5.9661149   5.9661149
   5.7236410   5.7236410   5.7236410   5.7236410   7.0536456   7.0536456
   7.0536456   7.0536456   7.0164170   7.0164170   7.0164170   7.0164170
   7.1643286   7.1643286   7.1643286   7.1643286   7.1427798   7.1427798
   7.1427798   7.1427798   7.1145815   7.1145815   7.1145815   7.1145815
  28.8746521  28.9148119
 TTTTTTTTTTTTTTTTTTTTTTTTTTTTTT MOQGAD      TELAPSE      805.46 TCPU      772.15
 TTTTTTTTTTTTTTTTTTTTTTTTTTTTTT SHELLXN     TELAPSE      907.63 TCPU      871.72
 TTTTTTTTTTTTTTTTTTTTTTTTTTTTTT MONMO3      TELAPSE      914.53 TCPU      878.60
 NUMERICALLY INTEGRATED DENSITY    488.0000586978
 TTTTTTTTTTTTTTTTTTTTTTTTTTTTTT NUMDFT      TELAPSE      921.89 TCPU      885.94
 CYC   6 ETOT(AU) -9.242479232810E+03 DETOT -1.28E-01 tst  6.56E-04 PX  6.58E-02
 TTTTTTTTTTTTTTTTTTTTTTTTTTTTTT DIIS        TELAPSE      922.08 TCPU      886.13
 DIIS TEST: 0.24905E+00 AT SCF   CYCLE   6 - DIIS ACTIVE - HISTORY:     6 CYCLES
 TTTTTTTTTTTTTTTTTTTTTTTTTTTTTT FDIK        TELAPSE      933.41 TCPU      897.28
 INSULATING STATE
 TOP OF VALENCE BANDS -    BAND    244; K    4; EIG -1.6147197E-01 AU
 TOP OF VALENCE BANDS -    BAND    244; K    1; EIG -1.6419431E-01 AU
 BOTTOM OF VIRTUAL BANDS - BAND    245; K    1; EIG -1.0651264E-01 AU
 INDIRECT ENERGY BAND GAP:   1.4955 eV
 TTTTTTTTTTTTTTTTTTTTTTTTTTTTTT PDIG        TELAPSE      934.13 TCPU      898.00
 CHARGE NORMALIZATION FACTOR   1.00000000
 TOTAL ATOMIC CHARGES:
   1.2028481   1.2028481   1.2028481   1.2028481   1.3258266   1.3258266
   1.3258266   1.3258266  17.0831774  17.0831774  17.0831774  17.0831774
  16.8084412  16.8084412  16.8084412  16.8084412   6.0657047   6.0657047
   6.0657047   6.0657047   5.8066864   5.8066864   5.8066864   5.8066864
   6.2242715   6.2242715   6.2242715   6.2242715   5.8188067   5.8188067
   5.8188067   5.8188067   6.0056779   6.0056779   6.0056779   6.0056779
   5.7110244   5.7110244   5.7110244   5.7110244   7.1551271   7.1551271
   7.1551271   7.1551271   7.0759465   7.0759465   7.0759465   7.0759465
   7.0850148   7.0850148   7.0850148   7.0850148   7.0297178   7.0297178
   7.0297178   7.0297178   7.1476374   7.1476374   7.1476374   7.1476374
  28.8985579  28.9178077
 TTTTTTTTTTTTTTTTTTTTTTTTTTTTTT MOQGAD      TELAPSE      934.19 TCPU      898.06
 TTTTTTTTTTTTTTTTTTTTTTTTTTTTTT SHELLXN     TELAPSE     1034.23 TCPU      997.75
 TTTTTTTTTTTTTTTTTTTTTTTTTTTTTT MONMO3      TELAPSE     1041.44 TCPU     1004.95
 NUMERICALLY INTEGRATED DENSITY    488.0000575649
 TTTTTTTTTTTTTTTTTTTTTTTTTTTTTT NUMDFT      TELAPSE     1048.78 TCPU     1012.27
[...]
  61 ZN   4     2.6201     4.9513    5 H    0-1 1    6 H   -1-1 0    7 H    0 0 1
                                     8 H    0-1 0
  61 ZN   4     3.1106     5.8783   45 N   -1-1 0   46 N    0-1 1   47 N    0-1 0
                                    48 N    0 0 1
  61 ZN   4     3.1725     5.9952   33 C    0-1 1   34 C   -1-1 0   35 C    0 0 1
                                    36 C    0-1 0
  61 ZN   4     3.2005     6.0480   21 C    0-1 1   22 C   -1-1 0   23 C    0 0 1
                                    24 C    0-1 0
  61 ZN   4     3.5407     6.6910   17 C    0-1 1   18 C   -1-1 0   19 C    0 0 1
                                    20 C    0-1 0

  62 ZN   4     2.1309     4.0269   49 N    1 1 0   50 N    1 1 0   51 N    0 0 0
                                    52 N    0 0 0
  62 ZN   4     2.9754     5.6226   53 N    0 1 0   54 N    1 0 0   55 N    0 0-1
                                    56 N    1 1 1
  62 ZN   4     3.1063     5.8700    1 H    1 1 0    2 H    1 1 0    3 H    0 0 0
                                     4 H    0 0 0
  62 ZN   4     3.2937     6.2242   21 C    1 1 1   22 C    0 0-1   23 C    0 1 0
                                    24 C    1 0 0
  62 ZN   4     3.7995     7.1801   25 C    1 1 1   26 C    0 0-1   27 C    0 1 0
                                    28 C    1 0 0
  62 ZN   4     3.9162     7.4005   17 C    1 1 1   18 C    0 0-1   19 C    0 1 0
                                    20 C    1 0 0


 FINAL OPTIMIZED GEOMETRY - DIMENSIONALITY OF THE SYSTEM      3
 (NON PERIODIC DIRECTION: LATTICE PARAMETER FORMALLY SET TO 500)
 *******************************************************************************
 LATTICE PARAMETERS (ANGSTROMS AND DEGREES) - BOHR = 0.5291772083 ANGSTROM
 PRIMITIVE CELL - CENTRING CODE 6/0 VOLUME=   768.200010 - DENSITY  2.126 g/cm^3
         A              B              C           ALPHA      BETA       GAMMA 
     9.99460010     9.99460010     9.99460010   110.186861 110.186861 108.049230
 *******************************************************************************
 ATOMS IN THE ASYMMETRIC UNIT   17 - ATOMS IN THE UNIT CELL:   62
     ATOM                 X/A                 Y/B                 Z/C    
 *******************************************************************************
      1 T   1 H    -1.555405073172E-01 -2.731110817119E-01  3.144867644981E-01
      2 F   1 H     4.124021537901E-01 -4.700272718153E-01 -3.144867644981E-01
      3 F   1 H     2.731110817119E-01 -4.124021537901E-01  1.175705743947E-01
      4 F   1 H     4.700272718153E-01  1.555405073172E-01 -1.175705743947E-01
      5 T   1 H    -2.731570942193E-01  4.886934299901E-02 -3.860545140375E-01
      6 F   1 H     4.349238570365E-01  1.128974198182E-01  3.860545140375E-01
      7 F   1 H    -4.886934299901E-02 -4.349238570365E-01 -3.220264372184E-01
      8 F   1 H    -1.128974198182E-01  2.731570942193E-01  3.220264372184E-01
      9 T  17 CL    9.884455223599E-02 -2.539994268202E-01 -4.219942161664E-01
     10 F  17 CL    1.679947893461E-01 -4.791612315976E-01  4.219942161664E-01
     11 F  17 CL    2.539994268202E-01 -1.679947893461E-01  3.528439790562E-01
     12 F  17 CL    4.791612315976E-01 -9.884455223599E-02 -3.528439790562E-01
     13 T  17 CL    1.939135338978E-01  2.342672328437E-02 -9.155154453995E-02
     14 F  17 CL    1.149782678243E-01  2.854650784378E-01  9.155154453995E-02
     15 F  17 CL   -2.342672328437E-02 -1.149782678243E-01  1.704868106135E-01
     16 F  17 CL   -2.854650784378E-01 -1.939135338978E-01 -1.704868106135E-01
     17 T   6 C    -2.293927853192E-01 -1.115015893872E-01  4.425041340436E-01
     18 F   6 C     4.459942765692E-01  3.281030806373E-01 -4.425041340436E-01
     19 F   6 C     1.115015893872E-01 -4.459942765692E-01 -1.178911959319E-01
     20 F   6 C    -3.281030806373E-01  2.293927853192E-01  1.178911959319E-01
     21 T   6 C    -3.474276363556E-01 -1.251823885316E-01  2.977309992860E-01
     22 F   6 C    -4.229133878177E-01  3.548413643584E-01 -2.977309992860E-01
     23 F   6 C     1.251823885316E-01  4.229133878177E-01 -2.222452478240E-01
     24 F   6 C    -3.548413643584E-01  3.474276363556E-01  2.222452478240E-01
     25 T   6 C    -1.363454888686E-01 -1.901671468185E-01  4.326909168819E-01
     26 F   6 C     3.771419362995E-01  4.309635942494E-01 -4.326909168819E-01
     27 F   6 C     1.901671468185E-01 -3.771419362995E-01  5.382165794988E-02
     28 F   6 C    -4.309635942494E-01  1.363454888686E-01 -5.382165794988E-02
     29 T   6 C     2.222709500085E-02 -3.521902934286E-02 -2.691535899507E-01
     30 F   6 C     2.339345606078E-01  2.913806849516E-01  2.691535899507E-01
     31 F   6 C     3.521902934286E-02 -2.339345606078E-01  5.744612434371E-02
     32 F   6 C    -2.913806849516E-01 -2.222709500085E-02 -5.744612434371E-02
     33 T   6 C    -1.962580028783E-01 -5.895998158349E-03 -4.002594566085E-01
     34 F   6 C     3.943634584501E-01  2.040014537301E-01  4.002594566085E-01
     35 F   6 C     5.895998158349E-03 -3.943634584501E-01 -1.903620047200E-01
     36 F   6 C    -2.040014537301E-01  1.962580028783E-01  1.903620047200E-01
     37 T   6 C     2.654713189547E-01  4.073027288823E-01  4.207795312848E-01
     38 F   6 C    -1.347680240249E-02 -1.553082123300E-01 -4.207795312848E-01
     39 F   6 C    -4.073027288823E-01  1.347680240249E-02 -1.418314099276E-01
     40 F   6 C     1.553082123300E-01 -2.654713189547E-01  1.418314099276E-01
     41 T   7 N    -3.798843042582E-01 -7.375257532109E-04  3.065425132695E-01
     42 F   7 N    -3.072800390227E-01  3.135731824723E-01 -3.065425132695E-01
     43 F   7 N     7.375257532108E-04  3.072800390227E-01 -3.791467785050E-01
     44 F   7 N    -3.135731824723E-01  3.798843042582E-01  3.791467785050E-01
     45 T   7 N    -4.939123443535E-01 -5.301318737996E-02  1.470259382241E-01
     46 F   7 N    -2.000391256041E-01  3.590617174224E-01 -1.470259382241E-01
     47 F   7 N     5.301318737996E-02  2.000391256041E-01 -4.408991569736E-01
     48 F   7 N    -3.590617174224E-01  4.939123443535E-01  4.408991569736E-01
     49 T   7 N    -4.352418819845E-01 -2.507700280255E-01  1.381883003710E-01
     50 F   7 N    -3.889583283965E-01  4.265698176445E-01 -1.381883003710E-01
     51 F   7 N     2.507700280255E-01  3.889583283965E-01 -1.844718539590E-01
     52 F   7 N    -4.265698176445E-01  4.352418819845E-01  1.844718539590E-01
     53 T   7 N     4.750789827371E-01 -1.998307944416E-01  4.714807311296E-02
     54 F   7 N    -2.469788675546E-01  4.279309096241E-01 -4.714807311296E-02
     55 F   7 N     1.998307944416E-01  2.469788675546E-01 -3.250902228213E-01
     56 F   7 N    -4.279309096241E-01 -4.750789827371E-01  3.250902228213E-01
     57 T   7 N    -7.029073492760E-02  3.429475041389E-02 -2.600735913082E-01
     58 F   7 N     2.943683417221E-01  1.897828563806E-01  2.600735913082E-01
     59 F   7 N    -3.429475041389E-02 -2.943683417221E-01 -1.045854853415E-01
     60 F   7 N    -1.897828563806E-01  7.029073492760E-02  1.045854853415E-01
     61 T  30 ZN   -2.500000000000E-01  2.500000000000E-01  5.000000000000E-01
     62 T  30 ZN   -5.000000000000E-01  5.000000000000E-01 -6.403582737939E-19

 TRANSFORMATION MATRIX PRIMITIVE-CRYSTALLOGRAPHIC CELL
  0.0000  1.0000  1.0000  1.0000  0.0000  1.0000  1.0000  1.0000  0.0000

 *******************************************************************************
 CRYSTALLOGRAPHIC CELL (VOLUME=       1536.40001901)
         A              B              C           ALPHA      BETA       GAMMA 
    11.43861808    11.43861808    11.74240850    90.000000  90.000000  90.000000

 COORDINATES IN THE CRYSTALLOGRAPHIC CELL
     ATOM                 X/A                 Y/B                 Z/C    
 *******************************************************************************
      1 T   1 H     9.845809505170E-02  2.160286694464E-01 -3.715691767636E-01
      2 F   1 H    -9.845809505170E-02 -2.160286694464E-01 -3.715691767636E-01
      3 F   1 H     2.160286694464E-01 -9.845809505170E-02  3.715691767636E-01
      4 F   1 H    -2.160286694464E-01  9.845809505170E-02  3.715691767636E-01
      5 T   1 H    -3.201403840959E-02 -3.540404756279E-01  8.088338140860E-02
      6 F   1 H     3.201403840959E-02  3.540404756279E-01  8.088338140860E-02
      7 F   1 H    -3.540404756279E-01  3.201403840959E-02 -8.088338140860E-02
      8 F   1 H     3.540404756279E-01 -3.201403840959E-02 -8.088338140860E-02
      9 T  17 CL   -3.874190976113E-01 -3.457511855507E-02  1.334196707911E-01
     10 F  17 CL    3.874190976113E-01  3.457511855507E-02  1.334196707911E-01
     11 F  17 CL   -3.457511855507E-02  3.874190976113E-01 -1.334196707911E-01
     12 F  17 CL    3.457511855507E-02 -3.874190976113E-01 -1.334196707911E-01
     13 T  17 CL   -1.310191775767E-01  3.946763303676E-02  1.544459008611E-01
     14 F  17 CL    1.310191775767E-01 -3.946763303676E-02  1.544459008611E-01
     15 F  17 CL    3.946763303676E-02  1.310191775767E-01 -1.544459008611E-01
     16 F  17 CL   -3.946763303676E-02 -1.310191775767E-01 -1.544459008611E-01
     17 T   6 C    -2.198023350122E-01 -3.376935309442E-01  1.083007456250E-01
     18 F   6 C     2.198023350122E-01  3.376935309442E-01  1.083007456250E-01
     19 F   6 C    -3.376935309442E-01  2.198023350122E-01 -1.083007456250E-01
     20 F   6 C     3.376935309442E-01 -2.198023350122E-01 -1.083007456250E-01
     21 T   6 C    -2.400118764450E-01 -4.622571242690E-01  1.148294879134E-01
     22 F   6 C     2.400118764450E-01  4.622571242690E-01  1.148294879134E-01
     23 F   6 C    -4.622571242690E-01  2.400118764450E-01 -1.148294879134E-01
     24 F   6 C     4.622571242690E-01 -2.400118764450E-01 -1.148294879134E-01
     25 T   6 C    -3.105653705340E-01 -2.567437125841E-01  1.203982237155E-01
     26 F   6 C     3.105653705340E-01  2.567437125841E-01  1.203982237155E-01
     27 F   6 C    -2.567437125841E-01  3.105653705340E-01 -1.203982237155E-01
     28 F   6 C     2.567437125841E-01 -3.105653705340E-01 -1.203982237155E-01
     29 T   6 C    -1.632998571472E-01 -1.058537328035E-01  1.280808278043E-01
     30 F   6 C     1.632998571472E-01  1.058537328035E-01  1.280808278043E-01
     31 F   6 C    -1.058537328035E-01  1.632998571472E-01 -1.280808278043E-01
     32 F   6 C     1.058537328035E-01 -1.632998571472E-01 -1.280808278043E-01
     33 T   6 C    -1.049487259442E-01 -2.953107306642E-01  9.905272778589E-02
     34 F   6 C     1.049487259442E-01  2.953107306642E-01  9.905272778589E-02
     35 F   6 C    -2.953107306642E-01  1.049487259442E-01 -9.905272778589E-02
     36 F   6 C     2.953107306642E-01 -1.049487259442E-01 -9.905272778589E-02
     37 T   6 C     2.813054706062E-01  1.394740606786E-01  1.259972582761E-01
     38 F   6 C    -2.813054706062E-01 -1.394740606786E-01  1.259972582761E-01
     39 F   6 C     1.394740606786E-01 -2.813054706062E-01 -1.259972582761E-01
     40 F   6 C    -1.394740606786E-01  2.813054706062E-01 -1.259972582761E-01
     41 T   7 N    -1.571553541127E-01  4.636978673822E-01  1.564178283595E-01
     42 F   7 N     1.571553541127E-01 -4.636978673822E-01  1.564178283595E-01
     43 F   7 N     4.636978673822E-01  1.571553541127E-01 -1.564178283595E-01
     44 F   7 N    -4.636978673822E-01 -1.571553541127E-01 -1.564178283595E-01
     45 T   7 N    -2.060374524012E-01  3.530633906253E-01  1.530242650212E-01
     46 F   7 N     2.060374524012E-01 -3.530633906253E-01  1.530242650212E-01
     47 F   7 N     3.530633906253E-01  2.060374524012E-01 -1.530242650212E-01
     48 F   7 N    -3.530633906253E-01 -2.060374524012E-01 -1.530242650212E-01
     49 T   7 N     1.613300771650E-01 -2.314177679399E-02 -4.121001051905E-01
     50 F   7 N    -1.613300771650E-01  2.314177679399E-02 -4.121001051905E-01
     51 F   7 N    -2.314177679399E-02 -1.613300771650E-01  4.121001051905E-01
     52 F   7 N     2.314177679399E-02  1.613300771650E-01  4.121001051905E-01
     53 T   7 N    -3.138808520329E-01  3.610289251458E-01  1.140500575913E-01
     54 F   7 N     3.138808520329E-01 -3.610289251458E-01  1.140500575913E-01
     55 F   7 N     3.610289251458E-01  3.138808520329E-01 -1.140500575913E-01
     56 F   7 N    -3.610289251458E-01 -3.138808520329E-01 -1.140500575913E-01
     57 T   7 N    -7.774405298334E-02 -1.823295383248E-01  1.120388033972E-01
     58 F   7 N     7.774405298334E-02  1.823295383248E-01  1.120388033972E-01
     59 F   7 N    -1.823295383248E-01  7.774405298334E-02 -1.120388033972E-01
     60 F   7 N     1.823295383248E-01 -7.774405298334E-02 -1.120388033972E-01
     61 T  30 ZN    4.626932236752E-17  5.000000000000E-01  2.500000000000E-01
     62 T  30 ZN    0.000000000000E+00 -6.403582737939E-19  5.000000000000E-01

 T = ATOM BELONGING TO THE ASYMMETRIC UNIT
 INFORMATION **** fort.34 **** GEOMETRY OUTPUT FILE

 DIRECT LATTICE VECTORS CARTESIAN COMPONENTS (ANGSTROM)
          X                    Y                    Z
  -0.571930903850E+01   0.571930903850E+01   0.587120424875E+01
   0.571930903850E+01  -0.571930903850E+01   0.587120424875E+01
   0.571930903850E+01   0.571930903850E+01  -0.587120424875E+01


 CARTESIAN COORDINATES - PRIMITIVE CELL
 *******************************************************************************
 *      ATOM          X(ANGSTROM)         Y(ANGSTROM)         Z(ANGSTROM)
 *******************************************************************************
    1     1 H     1.126224545885E+00  2.471069443479E+00 -4.363117058635E+00
    2     1 H    -1.126224545885E+00 -2.471069443479E+00 -4.363117058635E+00
    3     1 H     2.471069443479E+00 -1.126224545885E+00  4.363117058635E+00
    4     1 H    -2.471069443479E+00  1.126224545885E+00  4.363117058635E+00
    5     1 H    -3.661963584697E-01 -4.049733784508E+00  9.497657051582E-01
    6     1 H     3.661963584697E-01  4.049733784508E+00  9.497657051582E-01
    7     1 H    -4.049733784508E+00  3.661963584697E-01 -9.497657051582E-01
    8     1 H     4.049733784508E+00 -3.661963584697E-01 -9.497657051582E-01
    9    17 CL   -4.431539093312E+00 -3.954915761184E-01  1.566668276029E+00
   10    17 CL    4.431539093312E+00  3.954915761184E-01  1.566668276029E+00
   11    17 CL   -3.954915761184E-01  4.431539093312E+00 -1.566668276029E+00
   12    17 CL    3.954915761184E-01 -4.431539093312E+00 -1.566668276029E+00
   13    17 CL   -1.498678333063E+00  4.514551807107E-01  1.813566858674E+00
   14    17 CL    1.498678333063E+00 -4.514551807107E-01  1.813566858674E+00
   15    17 CL    4.514551807107E-01  1.498678333063E+00 -1.813566858674E+00
   16    17 CL   -4.514551807107E-01 -1.498678333063E+00 -1.813566858674E+00
   17     6 C    -2.514234962638E+00 -3.862747327544E+00  1.271711595712E+00
   18     6 C     2.514234962638E+00  3.862747327544E+00  1.271711595712E+00
   19     6 C    -3.862747327544E+00  2.514234962638E+00 -1.271711595712E+00
   20     6 C     3.862747327544E+00 -2.514234962638E+00 -1.271711595712E+00
   21     6 C    -2.745404188599E+00 -5.287582697886E+00  1.348374754637E+00
   22     6 C     2.745404188599E+00  5.287582697886E+00  1.348374754637E+00
   23     6 C    -5.287582697886E+00  2.745404188599E+00 -1.348374754637E+00
   24     6 C     5.287582697886E+00 -2.745404188599E+00 -1.348374754637E+00
   25     6 C    -3.552438661480E+00 -2.936793271921E+00  1.413765125239E+00
   26     6 C     3.552438661480E+00  2.936793271921E+00  1.413765125239E+00
   27     6 C    -2.936793271921E+00  3.552438661480E+00 -1.413765125239E+00
   28     6 C     2.936793271921E+00 -3.552438661480E+00 -1.413765125239E+00
   29     6 C    -1.867924697936E+00 -1.210820421564E+00  1.503977400776E+00
   30     6 C     1.867924697936E+00  1.210820421564E+00  1.503977400776E+00
   31     6 C    -1.210820421564E+00  1.867924697936E+00 -1.503977400776E+00
   32     6 C     1.210820421564E+00 -1.867924697936E+00 -1.503977400776E+00
   33     6 C    -1.200468393744E+00 -3.377946662108E+00  1.163117592453E+00
   34     6 C     1.200468393744E+00  3.377946662108E+00  1.163117592453E+00
   35     6 C    -3.377946662108E+00  1.200468393744E+00 -1.163117592453E+00
   36     6 C     3.377946662108E+00 -1.200468393744E+00 -1.163117592453E+00
   37     6 C     3.217745841235E+00  1.595390511751E+00  1.479511276242E+00
   38     6 C    -3.217745841235E+00 -1.595390511751E+00  1.479511276242E+00
   39     6 C     1.595390511751E+00 -3.217745841235E+00 -1.479511276242E+00
   40     6 C    -1.595390511751E+00  3.217745841235E+00 -1.479511276242E+00
   41     7 N    -1.797640074451E+00  5.304062808105E+00  1.836722036888E+00
   42     7 N     1.797640074451E+00 -5.304062808105E+00  1.836722036888E+00
   43     7 N     5.304062808105E+00  1.797640074451E+00 -1.836722036888E+00
   44     7 N    -5.304062808105E+00 -1.797640074451E+00 -1.836722036888E+00
   45     7 N    -2.356783727575E+00  4.038557282334E+00  1.796873429907E+00
   46     7 N     2.356783727575E+00 -4.038557282334E+00  1.796873429907E+00
   47     7 N     4.038557282334E+00  2.356783727575E+00 -1.796873429907E+00
   48     7 N    -4.038557282334E+00 -2.356783727575E+00 -1.796873429907E+00
   49     7 N     1.845393137023E+00 -2.647099463696E-01 -4.839047777006E+00
   50     7 N    -1.845393137023E+00  2.647099463696E-01 -4.839047777006E+00
   51     7 N    -2.647099463696E-01 -1.845393137023E+00  4.839047777006E+00
   52     7 N     2.647099463696E-01  1.845393137023E+00  4.839047777006E+00
   53     7 N    -3.590363188088E+00  4.129671989493E+00  1.339222365399E+00
   54     7 N     3.590363188088E+00 -4.129671989493E+00  1.339222365399E+00
   55     7 N     4.129671989493E+00  3.590363188088E+00 -1.339222365399E+00
   56     7 N    -4.129671989493E+00 -3.590363188088E+00 -1.339222365399E+00
   57     7 N    -8.892845298346E-01 -2.085597953054E+00  1.315605397061E+00
   58     7 N     8.892845298346E-01  2.085597953054E+00  1.315605397061E+00
   59     7 N    -2.085597953054E+00  8.892845298346E-01 -1.315605397061E+00
   60     7 N     2.085597953054E+00 -8.892845298346E-01 -1.315605397061E+00
   61    30 ZN    5.292571072436E-16  5.719309038500E+00 -8.806806373119E+00
   62    30 ZN    0.000000000000E+00 -7.324813726375E-18  5.871204248746E+00

 ****    4 SYMMOPS - TRANSLATORS IN FRACTIONAL UNITS
 **** MATRICES AND TRANSLATORS IN THE CRYSTALLOGRAPHIC REFERENCE FRAME
   V INV                    ROTATION MATRICES                   TRANSLATORS
   1   1  1.00  0.00  0.00  0.00  1.00  0.00  0.00  0.00  1.00  0.00  0.00  0.00
   2   2 -0.00  1.00 -1.00  1.00 -0.00 -1.00 -0.00  0.00 -1.00  0.00  0.00  0.00
   3   4  0.00 -1.00  0.00  0.00 -1.00  1.00  1.00 -1.00  0.00  0.00  0.00  0.00
   4   3 -1.00  0.00  1.00 -1.00  0.00 -0.00 -1.00  1.00 -0.00  0.00  0.00  0.00
 TTTTTTTTTTTTTTTTTTTTTTTTTTTTTT END         TELAPSE   132921.90 TCPU   128991.25
 EEEEEEEEEE TERMINATION  DATE 21 11 2023 TIME 02:19:27.8
NODE    0 CPU TIME =    128991.252
NODE    1 CPU TIME =    129952.934
NODE    2 CPU TIME =    130117.488
NODE    3 CPU TIME =    129533.500
NODE    4 CPU TIME =    129890.976
NODE    5 CPU TIME =    129891.428
NODE    6 CPU TIME =    129801.815
NODE    7 CPU TIME =    129462.358
NODE    8 CPU TIME =    129923.619
NODE    9 CPU TIME =    129639.450
NODE   10 CPU TIME =    129710.865
NODE   11 CPU TIME =    129641.738
NODE   12 CPU TIME =    129669.697
NODE   13 CPU TIME =    129472.796
NODE   14 CPU TIME =    129591.412
NODE   15 CPU TIME =    129132.269
NODE   16 CPU TIME =    129295.300
NODE   17 CPU TIME =    129478.888
NODE   18 CPU TIME =    129505.851
NODE   19 CPU TIME =    129577.176
NODE   20 CPU TIME =    129353.475
NODE   21 CPU TIME =    129023.055
NODE   22 CPU TIME =    129144.457
NODE   23 CPU TIME =    129171.122
    TOTAL CPU TIME =   3108972.919
trying normal rsh (/usr/bin/rsh)
exec: No such file or directory
trying normal rsh (/usr/bin/rsh)
exec: No such file or directory
trying normal rsh (/usr/bin/rsh)
exec: No such file or directory
trying normal rsh (/usr/bin/rsh)
exec: No such file or directory
