Loading crystal17/1.0.2/intel/19.0
  Loading requirement: intel/19.0 ompi/4.0.1/intel/19.0
 PROCESS            1  OF           24  WORKING
 PROCESS            4  OF           24  WORKING
 PROCESS            7  OF           24  WORKING
 PROCESS            9  OF           24  WORKING
 PROCESS           12  OF           24  WORKING
 PROCESS           16  OF           24  WORKING
 PROCESS           17  OF           24  WORKING
 PROCESS           18  OF           24  WORKING
 PROCESS           19  OF           24  WORKING
 PROCESS           20  OF           24  WORKING
 PROCESS           21  OF           24  WORKING
 PROCESS           23  OF           24  WORKING
 PROCESS            0  OF           24  WORKING
 PROCESS            2  OF           24  WORKING
 PROCESS            3  OF           24  WORKING
 PROCESS            5  OF           24  WORKING
 PROCESS            6  OF           24  WORKING
 PROCESS            8  OF           24  WORKING
 PROCESS           10  OF           24  WORKING
 PROCESS           11  OF           24  WORKING
 PROCESS           13  OF           24  WORKING
 PROCESS           14  OF           24  WORKING
 PROCESS           15  OF           24  WORKING
 PROCESS           22  OF           24  WORKING

         
 *******************************************************************************
 *                                                                             *
 *                               CRYSTAL17                                     *
 *                      public : 1.0.2 - March 1st, 2018                       *
 *                       HTTP://WWW.CRYSTAL.UNITO.IT                           *
 *                                                                             *
 *                              MAIN AUTHORS                                   *
 *                                                                             *
 *  R. DOVESI(1,11), V.R. SAUNDERS(2), C. ROETTI(1,11), R. ORLANDO(1,11),      *
 *  C.M. ZICOVICH-WILSON(1,3), F. PASCALE(4), B. CIVALLERI(1,11),              *
 *  K. DOLL(5), N.M. HARRISON(2,6), I.J. BUSH(7), Ph. D'ARCO(8),               *
 *  M. LLUNELL(9), M. CAUSA'(10), Y. NOEL(8), L. MASCHIO(1,11), A. ERBA(1,11)  *
 *  M. RE'RAT(14), S. CASASSA(1,11)                                            *
 *                                                                             *
 *        CONTRIBUTIONS TO THE CODE HAVE ALSO BEEN GIVEN BY                    *
 *                                                                             *
 *  M. FERRABONE(1,11), M. DE LA PIERRE(1,11), M. FERRERO(1,11),               *
 *  J. BAIMA(1,11), E. ALBANESE(1,11), M.F. PEINTINGER(12), R. BAST(13),       *
 *  B. KIRTMAN(15), V. LACIVITA(1,11), R. DEMICHELIS(1,16)                     *
 *  G. BRANDEBURG(17), S. SALUSTRO(1,11), G. SANSONE(1,11)                     *
 *  M.T. RUGGIERO(18)                                                          *
 *                                                                             *
 * (1) THEORETICAL CHEMISTRY GROUP - UNIVERSITA' DI TORINO - TORINO (ITALY)    *
 * (2) COMPUTATIONAL SCIENCE & ENGINEERING DEPARTMENT - STFC DARESBURY (UK)    *
 * (3) UNIVERSIDAD AUTONOMA DEL ESTADO DE MORELOS - CUERNAVACA (MEXICO)        *
 * (4) UNIVERSITE' DE LORRAINE - NANCY (FRANCE)                                *
 * (5) UNIVERSITAET STUTTGART- STUTTGART (GERMANY)                             *
 * (6) IMPERIAL COLLEGE - LONDON (UK)                                          *
 * (7) OXFORD E-RESEARCH CENTRE - OXFORD (UK)                                  *
 * (8) UPMC - SORBONNE UNIVERSITES - PARIS (FRANCE)                            *
 * (9) UNIVERSIDAD DE BARCELONA - BARCELONA (SPAIN)                            *
 *(10) UNIVERSITA' DI NAPOLI "FEDERICO II" - NAPOLI (ITALY)                    *
 *(11) NIS - NANOSTRUCTURED INTERFACES AND SURFACES - TORINO (ITALY)           *
 *(12) MPI FUER CHEMISCHE ENERGIEKONVERSION - MUELHEIM AN DER RUHR (GERMANY)   *
 *(13) UNIVERSITY OF TROMSO - TROMSO (NORWAY)                                  *
 *(14) UNIVERSITE' DE PAU ET DES PAYS DE L'ADOUR - PAU (FRANCE)                *
 *(15) UNIVERSITY OF CALIFORNIA SANTA BARBARA - SANTA BARBARA (USA)            *
 *(16) CURTIN UNIVERSITY - PERTH (AUSTRALIA)                                   *
 *(17) UNIVERSITY COLLEGE LONDON - LONDON (UK)                                 *
 *(18) CAMBRIDGE UNIVERSITY - CAMBRIDGE (UK)                                   *
 *                                                                             *
 *******************************************************************************
 EEEEEEEEEE STARTING  DATE 19 11 2023 TIME 10:33:00.9
 C:\Users\wilso\AppData\Local\Temp\tmp_p\newconn.mol                             

 CRYSTAL CALCULATION
 (INPUT ACCORDING TO THE INTERNATIONAL TABLES FOR X-RAY CRYSTALLOGRAPHY)
 CRYSTAL FAMILY                       :  TETRAGONAL  
 CRYSTAL CLASS  (GROTH - 1921)        :  TETRAGONAL DISPHENOIDAL              

 SPACE GROUP (NONCENTROSYMMETRIC)     :  I -4            

 LATTICE PARAMETERS  (ANGSTROMS AND DEGREES) - CONVENTIONAL CELL
        A           B           C        ALPHA        BETA       GAMMA
    10.15800    10.15800    13.29400    90.00000    90.00000    90.00000


 NUMBER OF IRREDUCIBLE ATOMS IN THE CONVENTIONAL CELL:  124

 INPUT COORDINATES

 ATOM AT. N.              COORDINATES
   1  17     5.576100000000E-01  7.373700000000E-01  1.366700000000E-01
   2  17     4.423900000000E-01  2.626300000000E-01  1.366700000000E-01
   3  17     7.373700000000E-01  4.423900000000E-01  8.633300000000E-01
   4  17     2.626300000000E-01  5.576100000000E-01  8.633300000000E-01
   5  17     5.761000000000E-02  2.373700000000E-01  6.366700000000E-01
   6  17     9.423900000000E-01  7.626300000000E-01  6.366700000000E-01
   7  17     2.373700000000E-01  9.423900000000E-01  3.633300000000E-01
   8  17     7.626300000000E-01  5.761000000000E-02  3.633300000000E-01
   9   1     9.759200000000E-01  6.751900000000E-01  9.083000000000E-02
  10   1     2.408000000000E-02  3.248100000000E-01  9.083000000000E-02
  11   1     6.751900000000E-01  2.408000000000E-02  9.091700000000E-01
  12   1     3.248100000000E-01  9.759200000000E-01  9.091700000000E-01
  13   1     4.759200000000E-01  1.751900000000E-01  5.908300000000E-01
  14   1     5.240800000000E-01  8.248100000000E-01  5.908300000000E-01
  15   1     1.751900000000E-01  5.240800000000E-01  4.091700000000E-01
  16   1     8.248100000000E-01  4.759200000000E-01  4.091700000000E-01
  17   1     6.058200000000E-01  9.805800000000E-01  1.369900000000E-01
  18   1     3.941800000000E-01  1.942000000000E-02  1.369900000000E-01
  19   1     9.805800000000E-01  3.941800000000E-01  8.630100000000E-01
  20   1     1.942000000000E-02  6.058200000000E-01  8.630100000000E-01
  21   1     1.058200000000E-01  4.805800000000E-01  6.369900000000E-01
  22   1     8.941800000000E-01  5.194200000000E-01  6.369900000000E-01
  23   1     4.805800000000E-01  8.941800000000E-01  3.630100000000E-01
  24   1     5.194200000000E-01  1.058200000000E-01  3.630100000000E-01
  25  17     8.420800000000E-01  5.709000000000E-02  1.240200000000E-01
  26  17     1.579200000000E-01  9.429100000000E-01  1.240200000000E-01
  27  17     5.709000000000E-02  1.579200000000E-01  8.759800000000E-01
  28  17     9.429100000000E-01  8.420800000000E-01  8.759800000000E-01
  29  17     3.420800000000E-01  5.570900000000E-01  6.240200000000E-01
  30  17     6.579200000000E-01  4.429100000000E-01  6.240200000000E-01
  31  17     5.570900000000E-01  6.579200000000E-01  3.759800000000E-01
  32  17     4.429100000000E-01  3.420800000000E-01  3.759800000000E-01
  33   6     2.646500000000E-01  1.859800000000E-01  6.165500000000E-01
  34   6     7.353500000000E-01  8.140200000000E-01  6.165500000000E-01
  35   6     1.859800000000E-01  7.353500000000E-01  3.834500000000E-01
  36   6     8.140200000000E-01  2.646500000000E-01  3.834500000000E-01
  37   6     7.646500000000E-01  6.859800000000E-01  1.165500000000E-01
  38   6     2.353500000000E-01  3.140200000000E-01  1.165500000000E-01
  39   6     6.859800000000E-01  2.353500000000E-01  8.834500000000E-01
  40   6     3.140200000000E-01  7.646500000000E-01  8.834500000000E-01
  41   6     2.514000000000E-01  4.317000000000E-02  6.230000000000E-01
  42   6     7.486000000000E-01  9.568300000000E-01  6.230000000000E-01
  43   6     4.317000000000E-02  7.486000000000E-01  3.770000000000E-01
  44   6     9.568300000000E-01  2.514000000000E-01  3.770000000000E-01
  45   6     7.514000000000E-01  5.431700000000E-01  1.230000000000E-01
  46   6     2.486000000000E-01  4.568300000000E-01  1.230000000000E-01
  47   6     5.431700000000E-01  2.486000000000E-01  8.770000000000E-01
  48   6     4.568300000000E-01  7.514000000000E-01  8.770000000000E-01
  49   6     6.583700000000E-01  7.736700000000E-01  1.273400000000E-01
  50   6     3.416300000000E-01  2.263300000000E-01  1.273400000000E-01
  51   6     7.736700000000E-01  3.416300000000E-01  8.726600000000E-01
  52   6     2.263300000000E-01  6.583700000000E-01  8.726600000000E-01
  53   6     1.583700000000E-01  2.736700000000E-01  6.273400000000E-01
  54   6     8.416300000000E-01  7.263300000000E-01  6.273400000000E-01
  55   6     2.736700000000E-01  8.416300000000E-01  3.726600000000E-01
  56   6     7.263300000000E-01  1.583700000000E-01  3.726600000000E-01
  57   6     8.156900000000E-01  9.525900000000E-01  1.204300000000E-01
  58   6     1.843100000000E-01  4.741000000000E-02  1.204300000000E-01
  59   6     9.525900000000E-01  1.843100000000E-01  8.795700000000E-01
  60   6     4.741000000000E-02  8.156900000000E-01  8.795700000000E-01
  61   6     3.156900000000E-01  4.525900000000E-01  6.204300000000E-01
  62   6     6.843100000000E-01  5.474100000000E-01  6.204300000000E-01
  63   6     4.525900000000E-01  6.843100000000E-01  3.795700000000E-01
  64   6     5.474100000000E-01  3.156900000000E-01  3.795700000000E-01
  65   6     3.914300000000E-01  2.396500000000E-01  6.044300000000E-01
  66   6     6.085700000000E-01  7.603500000000E-01  6.044300000000E-01
  67   6     2.396500000000E-01  6.085700000000E-01  3.955700000000E-01
  68   6     7.603500000000E-01  3.914300000000E-01  3.955700000000E-01
  69   6     8.914300000000E-01  7.396500000000E-01  1.044300000000E-01
  70   6     1.085700000000E-01  2.603500000000E-01  1.044300000000E-01
  71   6     7.396500000000E-01  1.085700000000E-01  8.955700000000E-01
  72   6     2.603500000000E-01  8.914300000000E-01  8.955700000000E-01
  73   6     3.150000000000E-01  9.141000000000E-02  1.282200000000E-01
  74   6     6.850000000000E-01  9.085900000000E-01  1.282200000000E-01
  75   6     9.141000000000E-02  6.850000000000E-01  8.717800000000E-01
  76   6     9.085900000000E-01  3.150000000000E-01  8.717800000000E-01
  77   6     8.150000000000E-01  5.914100000000E-01  6.282200000000E-01
  78   6     1.850000000000E-01  4.085900000000E-01  6.282200000000E-01
  79   6     5.914100000000E-01  1.850000000000E-01  3.717800000000E-01
  80   6     4.085900000000E-01  8.150000000000E-01  3.717800000000E-01
  81   7     8.407700000000E-01  4.628300000000E-01  1.672900000000E-01
  82   7     1.592300000000E-01  5.371700000000E-01  1.672900000000E-01
  83   7     4.628300000000E-01  1.592300000000E-01  8.327100000000E-01
  84   7     5.371700000000E-01  8.407700000000E-01  8.327100000000E-01
  85   7     3.407700000000E-01  9.628300000000E-01  6.672900000000E-01
  86   7     6.592300000000E-01  3.717000000000E-02  6.672900000000E-01
  87   7     9.628300000000E-01  6.592300000000E-01  3.327100000000E-01
  88   7     3.717000000000E-02  3.407700000000E-01  3.327100000000E-01
  89   7     2.940400000000E-01  8.358500000000E-01  6.597700000000E-01
  90   7     7.059600000000E-01  1.641500000000E-01  6.597700000000E-01
  91   7     8.358500000000E-01  7.059600000000E-01  3.402300000000E-01
  92   7     1.641500000000E-01  2.940400000000E-01  3.402300000000E-01
  93   7     7.940400000000E-01  3.358500000000E-01  1.597700000000E-01
  94   7     2.059600000000E-01  6.641500000000E-01  1.597700000000E-01
  95   7     3.358500000000E-01  2.059600000000E-01  8.402300000000E-01
  96   7     6.641500000000E-01  7.940400000000E-01  8.402300000000E-01
  97   7     1.518600000000E-01  9.677900000000E-01  5.884000000000E-01
  98   7     8.481400000000E-01  3.221000000000E-02  5.884000000000E-01
  99   7     9.677900000000E-01  8.481400000000E-01  4.116000000000E-01
 100   7     3.221000000000E-02  1.518600000000E-01  4.116000000000E-01
 101   7     6.518600000000E-01  4.677900000000E-01  8.840000000000E-02
 102   7     3.481400000000E-01  5.322100000000E-01  8.840000000000E-02
 103   7     4.677900000000E-01  3.481400000000E-01  9.116000000000E-01
 104   7     5.322100000000E-01  6.518600000000E-01  9.116000000000E-01
 105   7     1.800200000000E-01  8.388700000000E-01  6.128200000000E-01
 106   7     8.199800000000E-01  1.611300000000E-01  6.128200000000E-01
 107   7     8.388700000000E-01  8.199800000000E-01  3.871800000000E-01
 108   7     1.611300000000E-01  1.800200000000E-01  3.871800000000E-01
 109   7     6.800200000000E-01  3.388700000000E-01  1.128200000000E-01
 110   7     3.199800000000E-01  6.611300000000E-01  1.128200000000E-01
 111   7     3.388700000000E-01  3.199800000000E-01  8.871800000000E-01
 112   7     6.611300000000E-01  6.800200000000E-01  8.871800000000E-01
 113   7     9.174200000000E-01  8.687700000000E-01  1.079100000000E-01
 114   7     8.258000000000E-02  1.312300000000E-01  1.079100000000E-01
 115   7     8.687700000000E-01  8.258000000000E-02  8.920900000000E-01
 116   7     1.312300000000E-01  9.174200000000E-01  8.920900000000E-01
 117   7     4.174200000000E-01  3.687700000000E-01  6.079100000000E-01
 118   7     5.825800000000E-01  6.312300000000E-01  6.079100000000E-01
 119   7     3.687700000000E-01  5.825800000000E-01  3.920900000000E-01
 120   7     6.312300000000E-01  4.174200000000E-01  3.920900000000E-01
 121  30     0.000000000000E+00  5.000000000000E-01  2.500000000000E-01
 122  30     5.000000000000E-01  0.000000000000E+00  7.500000000000E-01
 123  30     0.000000000000E+00  0.000000000000E+00  5.000000000000E-01
 124  30     5.000000000000E-01  5.000000000000E-01  0.000000000000E+00

 *******************************************************************************

 << INFORMATION >>: FROM NOW ON, ALL COORDINATES REFER TO THE PRIMITIVE CELL

 *******************************************************************************

 LATTICE PARAMETERS  (ANGSTROMS AND DEGREES) - PRIMITIVE CELL
       A          B          C        ALPHA      BETA     GAMMA        VOLUME
    9.78647    9.78647    9.78647   117.47208 117.47208  94.43726    685.870456

 INPUT LIST - ATOM N.   2 NOT IRREDUCIBLE

 INPUT LIST - ATOM N.   3 NOT IRREDUCIBLE

 INPUT LIST - ATOM N.   4 NOT IRREDUCIBLE

 INPUT LIST - ATOM N.   1 NOT IRREDUCIBLE

 INPUT LIST - ATOM N.   2 NOT IRREDUCIBLE

 INPUT LIST - ATOM N.   3 NOT IRREDUCIBLE

 INPUT LIST - ATOM N.   4 NOT IRREDUCIBLE

 INPUT LIST - ATOM N.   6 NOT IRREDUCIBLE

 INPUT LIST - ATOM N.   7 NOT IRREDUCIBLE

 INPUT LIST - ATOM N.   8 NOT IRREDUCIBLE

 INPUT LIST - ATOM N.   5 NOT IRREDUCIBLE

 INPUT LIST - ATOM N.   6 NOT IRREDUCIBLE

 INPUT LIST - ATOM N.   7 NOT IRREDUCIBLE

 INPUT LIST - ATOM N.   8 NOT IRREDUCIBLE

 INPUT LIST - ATOM N.  10 NOT IRREDUCIBLE

 INPUT LIST - ATOM N.  11 NOT IRREDUCIBLE

 INPUT LIST - ATOM N.  12 NOT IRREDUCIBLE

 INPUT LIST - ATOM N.   9 NOT IRREDUCIBLE

 INPUT LIST - ATOM N.  10 NOT IRREDUCIBLE

 INPUT LIST - ATOM N.  11 NOT IRREDUCIBLE

 INPUT LIST - ATOM N.  12 NOT IRREDUCIBLE

 INPUT LIST - ATOM N.  14 NOT IRREDUCIBLE

 INPUT LIST - ATOM N.  15 NOT IRREDUCIBLE

 INPUT LIST - ATOM N.  16 NOT IRREDUCIBLE

 INPUT LIST - ATOM N.  13 NOT IRREDUCIBLE

 INPUT LIST - ATOM N.  14 NOT IRREDUCIBLE

 INPUT LIST - ATOM N.  15 NOT IRREDUCIBLE

 INPUT LIST - ATOM N.  16 NOT IRREDUCIBLE

 INPUT LIST - ATOM N.  18 NOT IRREDUCIBLE

 INPUT LIST - ATOM N.  19 NOT IRREDUCIBLE

 INPUT LIST - ATOM N.  20 NOT IRREDUCIBLE

 INPUT LIST - ATOM N.  17 NOT IRREDUCIBLE

 INPUT LIST - ATOM N.  18 NOT IRREDUCIBLE

 INPUT LIST - ATOM N.  19 NOT IRREDUCIBLE

 INPUT LIST - ATOM N.  20 NOT IRREDUCIBLE

 INPUT LIST - ATOM N.  22 NOT IRREDUCIBLE

 INPUT LIST - ATOM N.  23 NOT IRREDUCIBLE

 INPUT LIST - ATOM N.  24 NOT IRREDUCIBLE

 INPUT LIST - ATOM N.  21 NOT IRREDUCIBLE

 INPUT LIST - ATOM N.  22 NOT IRREDUCIBLE

 INPUT LIST - ATOM N.  23 NOT IRREDUCIBLE

 INPUT LIST - ATOM N.  24 NOT IRREDUCIBLE

 INPUT LIST - ATOM N.  26 NOT IRREDUCIBLE

 INPUT LIST - ATOM N.  27 NOT IRREDUCIBLE

 INPUT LIST - ATOM N.  28 NOT IRREDUCIBLE

 INPUT LIST - ATOM N.  25 NOT IRREDUCIBLE

 INPUT LIST - ATOM N.  26 NOT IRREDUCIBLE

 INPUT LIST - ATOM N.  27 NOT IRREDUCIBLE

 INPUT LIST - ATOM N.  28 NOT IRREDUCIBLE

 INPUT LIST - ATOM N.  30 NOT IRREDUCIBLE

 INPUT LIST - ATOM N.  31 NOT IRREDUCIBLE

 INPUT LIST - ATOM N.  32 NOT IRREDUCIBLE

 INPUT LIST - ATOM N.  29 NOT IRREDUCIBLE

 INPUT LIST - ATOM N.  30 NOT IRREDUCIBLE

 INPUT LIST - ATOM N.  31 NOT IRREDUCIBLE

 INPUT LIST - ATOM N.  32 NOT IRREDUCIBLE

 INPUT LIST - ATOM N.  34 NOT IRREDUCIBLE

 INPUT LIST - ATOM N.  35 NOT IRREDUCIBLE

 INPUT LIST - ATOM N.  36 NOT IRREDUCIBLE

 INPUT LIST - ATOM N.  33 NOT IRREDUCIBLE

 INPUT LIST - ATOM N.  34 NOT IRREDUCIBLE

 INPUT LIST - ATOM N.  35 NOT IRREDUCIBLE

 INPUT LIST - ATOM N.  36 NOT IRREDUCIBLE

 INPUT LIST - ATOM N.  38 NOT IRREDUCIBLE

 INPUT LIST - ATOM N.  39 NOT IRREDUCIBLE

 INPUT LIST - ATOM N.  40 NOT IRREDUCIBLE

 INPUT LIST - ATOM N.  37 NOT IRREDUCIBLE

 INPUT LIST - ATOM N.  38 NOT IRREDUCIBLE

 INPUT LIST - ATOM N.  39 NOT IRREDUCIBLE

 INPUT LIST - ATOM N.  40 NOT IRREDUCIBLE

 INPUT LIST - ATOM N.  42 NOT IRREDUCIBLE

 INPUT LIST - ATOM N.  43 NOT IRREDUCIBLE

 INPUT LIST - ATOM N.  44 NOT IRREDUCIBLE

 INPUT LIST - ATOM N.  41 NOT IRREDUCIBLE

 INPUT LIST - ATOM N.  42 NOT IRREDUCIBLE

 INPUT LIST - ATOM N.  43 NOT IRREDUCIBLE

 INPUT LIST - ATOM N.  44 NOT IRREDUCIBLE

 INPUT LIST - ATOM N.  46 NOT IRREDUCIBLE

 INPUT LIST - ATOM N.  47 NOT IRREDUCIBLE

 INPUT LIST - ATOM N.  48 NOT IRREDUCIBLE

 INPUT LIST - ATOM N.  45 NOT IRREDUCIBLE

 INPUT LIST - ATOM N.  46 NOT IRREDUCIBLE

 INPUT LIST - ATOM N.  47 NOT IRREDUCIBLE

 INPUT LIST - ATOM N.  48 NOT IRREDUCIBLE

 INPUT LIST - ATOM N.  50 NOT IRREDUCIBLE

 INPUT LIST - ATOM N.  51 NOT IRREDUCIBLE

 INPUT LIST - ATOM N.  52 NOT IRREDUCIBLE

 INPUT LIST - ATOM N.  49 NOT IRREDUCIBLE

 INPUT LIST - ATOM N.  50 NOT IRREDUCIBLE

 INPUT LIST - ATOM N.  51 NOT IRREDUCIBLE

 INPUT LIST - ATOM N.  52 NOT IRREDUCIBLE

 INPUT LIST - ATOM N.  54 NOT IRREDUCIBLE

 INPUT LIST - ATOM N.  55 NOT IRREDUCIBLE

 INPUT LIST - ATOM N.  56 NOT IRREDUCIBLE

 INPUT LIST - ATOM N.  53 NOT IRREDUCIBLE

 INPUT LIST - ATOM N.  54 NOT IRREDUCIBLE

 INPUT LIST - ATOM N.  55 NOT IRREDUCIBLE

 INPUT LIST - ATOM N.  56 NOT IRREDUCIBLE

 INPUT LIST - ATOM N.  58 NOT IRREDUCIBLE

 INPUT LIST - ATOM N.  59 NOT IRREDUCIBLE

 INPUT LIST - ATOM N.  60 NOT IRREDUCIBLE

 INPUT LIST - ATOM N.  57 NOT IRREDUCIBLE

 INPUT LIST - ATOM N.  58 NOT IRREDUCIBLE

 INPUT LIST - ATOM N.  59 NOT IRREDUCIBLE

 INPUT LIST - ATOM N.  60 NOT IRREDUCIBLE

 INPUT LIST - ATOM N.  61 NOT IRREDUCIBLE

 INPUT LIST - ATOM N.  62 NOT IRREDUCIBLE

 COORDINATES OF THE EQUIVALENT ATOMS (FRACTIONAL UNITS)

 N. ATOM EQUIV AT. N.          X                  Y                  Z

   1   1   1   17 CL   -1.25960000000E-01 -3.05720000000E-01  2.94980000000E-01
   2   1   2   17 CL    3.99300000000E-01 -4.20940000000E-01 -2.94980000000E-01
   3   1   3   17 CL    3.05720000000E-01 -3.99300000000E-01  1.79760000000E-01
   4   1   4   17 CL    4.20940000000E-01  1.25960000000E-01 -1.79760000000E-01








   5   9   1    1 H    -2.33980000000E-01  6.67500000000E-02 -3.48890000000E-01
   6   9   2    1 H     4.15640000000E-01  1.14910000000E-01  3.48890000000E-01
   7   9   3    1 H    -6.67500000000E-02 -4.15640000000E-01 -3.00730000000E-01
   8   9   4    1 H    -1.14910000000E-01  2.33980000000E-01  3.00730000000E-01








   9  17   1    1 H     1.17570000000E-01 -2.57190000000E-01 -4.13600000000E-01
  10  17   2    1 H     1.56410000000E-01 -4.68830000000E-01  4.13600000000E-01
  11  17   3    1 H     2.57190000000E-01 -1.56410000000E-01  3.74760000000E-01
  12  17   4    1 H     4.68830000000E-01 -1.17570000000E-01 -3.74760000000E-01

 NUMBER OF SYMMETRY OPERATORS         :    4
 *******************************************************************************
 * GEOMETRY EDITING - INPUT COORDINATES ARE GIVEN IN ANGSTROM         
 *******************************************************************************

 GEOMETRY NOW FULLY CONSISTENT WITH THE GROUP
 *******************************************************************************
 *  GEOMETRY EDITING
 *  THE SYMMETRY OF THE CRYSTAL IS KEPT AND APPLIED TO THE PERTURBATION
 *******************************************************************************
 INFORMATION **** NEW DEFAULT **** FINALRUN 4 FOR GEOMETRY OPTIMIZATIONS
 INFORMATION **** NEW DEFAULT **** OPTGEOM OPTIMIZES BOTH ATOMIC COORDINATES AND CELL PARAMETERS
 INFORMATION **** NEW DEFAULT **** TOL. ON ATOMIC DISP TO REDEFINE REF. GEOMETRY: 0.8 Angs
 INFORMATION **** NEW DEFAULT **** N POINTS TO REDEFINE REF. GEOMETRY: N OF OPT DEGS OF FREEDOM
 INFORMATION **** NEW DEFAULT **** TOL. ON ENERGY TO REDEFINE REF. GEOMETRY: 10**-3*(5*N. ATOMS)

 IMPORTANT INFORMATION:
 THE COORDINATE SYSTEM ADOPTED IN THE OPTIMIZATION IS NOT IN
 GENERAL HOMOGENEOUS UNITS. FOR THIS REASON THE GRADIENT AND 
 HESSIAN MATRIX IN TERMS OF THIS SYSTEM ARE GIVEN WITHOUT
 UNITS. FOR MORE DETAILS SEE THE MANUAL.

 *******************************************************************************
 COMBINED CELL/ATOM OPTIMIZATION CONTROL

 INITIAL TRUST RADIUS         0.50000 MAXIMUM TRUST RADIUS               4.00000
 MAXIMUM GRADIENT COMPONENT   0.00045 MAXIMUM DISPLACEMENT COMPONENT     0.00180
 R.M.S. OF GRADIENT COMPONENT 0.00030 R.M.S. OF DISPLACEMENT COMPONENTS  0.00120
 THRESHOLD ON ENERGY CHANGE 0.100E-06 EXTRAPOLATING POLYNOMIAL ORDER           2
 MAXIMUM ALLOWED NUMBER OF STEPS   -1 SORTING OF ENERGY POINTS:               NO
 ANALYTICAL  GRADIENT                 HESSIAN UPDATING                      BFGS
 STEP SIZE NUMERICAL GRADIENT 0.00100
 INITIAL HESSIAN MATRIX: SCHLEGEL MODEL 2
 *******************************************************************************


 GCALCO - MAX INDICES DIRECT LATTICE VECTOR    14    14    16
 NO.OF VECTORS CREATED 6999 STARS  481 RMAX   197.96270 BOHR

 GEOMETRY FOR WAVE FUNCTION - DIMENSIONALITY OF THE SYSTEM    3
 (NON PERIODIC DIRECTION: LATTICE PARAMETER FORMALLY SET TO 500)
 *******************************************************************************
 LATTICE PARAMETERS (ANGSTROMS AND DEGREES) - BOHR = 0.5291772083 ANGSTROM
 PRIMITIVE CELL - CENTRING CODE 6/0 VOLUME=   685.870456 - DENSITY  2.382 g/cm^3
         A              B              C           ALPHA      BETA       GAMMA 
     9.78647490     9.78647490     9.78647490   117.472078 117.472078  94.437262
 *******************************************************************************
 ATOMS IN THE ASYMMETRIC UNIT   17 - ATOMS IN THE UNIT CELL:   62
     ATOM                 X/A                 Y/B                 Z/C    
 *******************************************************************************
      1 T  17 CL   -1.259600000000E-01 -3.057200000000E-01  2.949800000000E-01
      2 F  17 CL    3.993000000000E-01 -4.209400000000E-01 -2.949800000000E-01
      3 F  17 CL    3.057200000000E-01 -3.993000000000E-01  1.797600000000E-01
      4 F  17 CL    4.209400000000E-01  1.259600000000E-01 -1.797600000000E-01
      5 T   1 H    -2.339800000000E-01  6.675000000000E-02 -3.488900000000E-01
      6 F   1 H     4.156400000000E-01  1.149100000000E-01  3.488900000000E-01
      7 F   1 H    -6.675000000000E-02 -4.156400000000E-01 -3.007300000000E-01
      8 F   1 H    -1.149100000000E-01  2.339800000000E-01  3.007300000000E-01
      9 T   1 H     1.175700000000E-01 -2.571900000000E-01 -4.136000000000E-01
     10 F   1 H     1.564100000000E-01 -4.688300000000E-01  4.136000000000E-01
     11 F   1 H     2.571900000000E-01 -1.564100000000E-01  3.747600000000E-01
     12 F   1 H     4.688300000000E-01 -1.175700000000E-01 -3.747600000000E-01
     13 T  17 CL    1.811100000000E-01 -3.390000000000E-02 -1.008300000000E-01
     14 F  17 CL    6.693000000000E-02  2.819400000000E-01  1.008300000000E-01
     15 F  17 CL    3.390000000000E-02 -6.693000000000E-02  2.150100000000E-01
     16 F  17 CL   -2.819400000000E-01 -1.811100000000E-01 -2.150100000000E-01
     17 T   6 C    -1.974700000000E-01 -1.188000000000E-01  4.506300000000E-01
     18 F   6 C     4.305700000000E-01  3.519000000000E-01 -4.506300000000E-01
     19 F   6 C     1.188000000000E-01 -4.305700000000E-01 -7.867000000000E-02
     20 F   6 C    -3.519000000000E-01  1.974700000000E-01  7.867000000000E-02
     21 T   6 C    -3.338300000000E-01 -1.256000000000E-01  2.945700000000E-01
     22 F   6 C    -4.201700000000E-01  3.716000000000E-01 -2.945700000000E-01
     23 F   6 C     1.256000000000E-01  4.201700000000E-01 -2.082300000000E-01
     24 F   6 C    -3.716000000000E-01  3.338300000000E-01  2.082300000000E-01
     25 T   6 C    -9.899000000000E-02 -2.142900000000E-01  4.320400000000E-01
     26 F   6 C     3.536700000000E-01  4.689700000000E-01 -4.320400000000E-01
     27 F   6 C     2.142900000000E-01 -3.536700000000E-01  1.153000000000E-01
     28 F   6 C    -4.689700000000E-01  9.899000000000E-02 -1.153000000000E-01
     29 T   6 C     7.302000000000E-02 -6.388000000000E-02 -2.317200000000E-01
     30 F   6 C     1.678400000000E-01  3.047400000000E-01  2.317200000000E-01
     31 F   6 C     6.388000000000E-02 -1.678400000000E-01  1.369000000000E-01
     32 F   6 C    -3.047400000000E-01 -7.302000000000E-02 -1.369000000000E-01
     33 T   6 C    -1.559200000000E-01 -4.140000000000E-03 -3.689200000000E-01
     34 F   6 C     3.647800000000E-01  2.130000000000E-01  3.689200000000E-01
     35 F   6 C     4.140000000000E-03 -3.647800000000E-01 -1.517800000000E-01
     36 F   6 C    -2.130000000000E-01  1.559200000000E-01  1.517800000000E-01
     37 T   6 C     2.196300000000E-01  4.432200000000E-01  4.064100000000E-01
     38 F   6 C     3.681000000000E-02 -1.867800000000E-01 -4.064100000000E-01
     39 F   6 C    -4.432200000000E-01 -3.681000000000E-02 -2.235900000000E-01
     40 F   6 C     1.867800000000E-01 -2.196300000000E-01  2.235900000000E-01
     41 T   7 N    -3.698800000000E-01  8.060000000000E-03  3.036000000000E-01
     42 F   7 N    -2.955400000000E-01  3.265200000000E-01 -3.036000000000E-01
     43 F   7 N    -8.060000000000E-03  2.955400000000E-01 -3.779400000000E-01
     44 F   7 N    -3.265200000000E-01  3.698800000000E-01  3.779400000000E-01
     45 T   7 N     4.956200000000E-01 -4.619000000000E-02  1.298900000000E-01
     46 F   7 N    -1.760800000000E-01  3.657300000000E-01 -1.298900000000E-01
     47 F   7 N     4.619000000000E-02  1.760800000000E-01 -4.581900000000E-01
     48 F   7 N    -3.657300000000E-01 -4.956200000000E-01  4.581900000000E-01
     49 T   7 N    -4.438100000000E-01 -2.597400000000E-01  1.196500000000E-01
     50 F   7 N    -3.793900000000E-01  4.365400000000E-01 -1.196500000000E-01
     51 F   7 N     2.597400000000E-01  3.793900000000E-01 -1.840700000000E-01
     52 F   7 N    -4.365400000000E-01  4.438100000000E-01  1.840700000000E-01
     53 T   7 N     4.516900000000E-01 -2.071600000000E-01  1.889000000000E-02
     54 F   7 N    -2.260500000000E-01  4.328000000000E-01 -1.889000000000E-02
     55 F   7 N     2.071600000000E-01  2.260500000000E-01 -3.411500000000E-01
     56 F   7 N    -4.328000000000E-01 -4.516900000000E-01  3.411500000000E-01
     57 T   7 N    -2.332000000000E-02  2.533000000000E-02 -2.138100000000E-01
     58 F   7 N     2.391400000000E-01  1.904900000000E-01  2.138100000000E-01
     59 F   7 N    -2.533000000000E-02 -2.391400000000E-01 -4.865000000000E-02
     60 F   7 N    -1.904900000000E-01  2.332000000000E-02  4.865000000000E-02
     61 T  30 ZN   -2.500000000000E-01  2.500000000000E-01  5.000000000000E-01
     62 T  30 ZN   -5.000000000000E-01  5.000000000000E-01  0.000000000000E+00

 TRANSFORMATION MATRIX PRIMITIVE-CRYSTALLOGRAPHIC CELL
  0.0000  1.0000  1.0000  1.0000  0.0000  1.0000  1.0000  1.0000  0.0000

 *******************************************************************************
 CRYSTALLOGRAPHIC CELL (VOLUME=       1371.74091142)
         A              B              C           ALPHA      BETA       GAMMA 
    10.15800000    10.15800000    13.29400000    90.000000  90.000000  90.000000

 COORDINATES IN THE CRYSTALLOGRAPHIC CELL
     ATOM                 X/A                 Y/B                 Z/C    
 *******************************************************************************
      1 T  17 CL    5.761000000000E-02  2.373700000000E-01 -3.633300000000E-01
      2 F  17 CL   -5.761000000000E-02 -2.373700000000E-01 -3.633300000000E-01
      3 F  17 CL    2.373700000000E-01 -5.761000000000E-02  3.633300000000E-01
      4 F  17 CL   -2.373700000000E-01  5.761000000000E-02  3.633300000000E-01
      5 T   1 H    -2.408000000000E-02 -3.248100000000E-01  9.083000000000E-02
      6 F   1 H     2.408000000000E-02  3.248100000000E-01  9.083000000000E-02
      7 F   1 H    -3.248100000000E-01  2.408000000000E-02 -9.083000000000E-02
      8 F   1 H     3.248100000000E-01 -2.408000000000E-02 -9.083000000000E-02
      9 T   1 H    -3.941800000000E-01 -1.942000000000E-02  1.369900000000E-01
     10 F   1 H     3.941800000000E-01  1.942000000000E-02  1.369900000000E-01
     11 F   1 H    -1.942000000000E-02  3.941800000000E-01 -1.369900000000E-01
     12 F   1 H     1.942000000000E-02 -3.941800000000E-01 -1.369900000000E-01
     13 T  17 CL   -1.579200000000E-01  5.709000000000E-02  1.240200000000E-01
     14 F  17 CL    1.579200000000E-01 -5.709000000000E-02  1.240200000000E-01
     15 F  17 CL    5.709000000000E-02  1.579200000000E-01 -1.240200000000E-01
     16 F  17 CL   -5.709000000000E-02 -1.579200000000E-01 -1.240200000000E-01
     17 T   6 C    -2.353500000000E-01 -3.140200000000E-01  1.165500000000E-01
     18 F   6 C     2.353500000000E-01  3.140200000000E-01  1.165500000000E-01
     19 F   6 C    -3.140200000000E-01  2.353500000000E-01 -1.165500000000E-01
     20 F   6 C     3.140200000000E-01 -2.353500000000E-01 -1.165500000000E-01
     21 T   6 C    -2.486000000000E-01 -4.568300000000E-01  1.230000000000E-01
     22 F   6 C     2.486000000000E-01  4.568300000000E-01  1.230000000000E-01
     23 F   6 C    -4.568300000000E-01  2.486000000000E-01 -1.230000000000E-01
     24 F   6 C     4.568300000000E-01 -2.486000000000E-01 -1.230000000000E-01
     25 T   6 C    -3.416300000000E-01 -2.263300000000E-01  1.273400000000E-01
     26 F   6 C     3.416300000000E-01  2.263300000000E-01  1.273400000000E-01
     27 F   6 C    -2.263300000000E-01  3.416300000000E-01 -1.273400000000E-01
     28 F   6 C     2.263300000000E-01 -3.416300000000E-01 -1.273400000000E-01
     29 T   6 C    -1.843100000000E-01 -4.741000000000E-02  1.204300000000E-01
     30 F   6 C     1.843100000000E-01  4.741000000000E-02  1.204300000000E-01
     31 F   6 C    -4.741000000000E-02  1.843100000000E-01 -1.204300000000E-01
     32 F   6 C     4.741000000000E-02 -1.843100000000E-01 -1.204300000000E-01
     33 T   6 C    -1.085700000000E-01 -2.603500000000E-01  1.044300000000E-01
     34 F   6 C     1.085700000000E-01  2.603500000000E-01  1.044300000000E-01
     35 F   6 C    -2.603500000000E-01  1.085700000000E-01 -1.044300000000E-01
     36 F   6 C     2.603500000000E-01 -1.085700000000E-01 -1.044300000000E-01
     37 T   6 C     3.150000000000E-01  9.141000000000E-02  1.282200000000E-01
     38 F   6 C    -3.150000000000E-01 -9.141000000000E-02  1.282200000000E-01
     39 F   6 C     9.141000000000E-02 -3.150000000000E-01 -1.282200000000E-01
     40 F   6 C    -9.141000000000E-02  3.150000000000E-01 -1.282200000000E-01
     41 T   7 N    -1.592300000000E-01  4.628300000000E-01  1.672900000000E-01
     42 F   7 N     1.592300000000E-01 -4.628300000000E-01  1.672900000000E-01
     43 F   7 N     4.628300000000E-01  1.592300000000E-01 -1.672900000000E-01
     44 F   7 N    -4.628300000000E-01 -1.592300000000E-01 -1.672900000000E-01
     45 T   7 N    -2.059600000000E-01  3.358500000000E-01  1.597700000000E-01
     46 F   7 N     2.059600000000E-01 -3.358500000000E-01  1.597700000000E-01
     47 F   7 N     3.358500000000E-01  2.059600000000E-01 -1.597700000000E-01
     48 F   7 N    -3.358500000000E-01 -2.059600000000E-01 -1.597700000000E-01
     49 T   7 N     1.518600000000E-01 -3.221000000000E-02 -4.116000000000E-01
     50 F   7 N    -1.518600000000E-01  3.221000000000E-02 -4.116000000000E-01
     51 F   7 N    -3.221000000000E-02 -1.518600000000E-01  4.116000000000E-01
     52 F   7 N     3.221000000000E-02  1.518600000000E-01  4.116000000000E-01
     53 T   7 N    -3.199800000000E-01  3.388700000000E-01  1.128200000000E-01
     54 F   7 N     3.199800000000E-01 -3.388700000000E-01  1.128200000000E-01
     55 F   7 N     3.388700000000E-01  3.199800000000E-01 -1.128200000000E-01
     56 F   7 N    -3.388700000000E-01 -3.199800000000E-01 -1.128200000000E-01
     57 T   7 N    -8.258000000000E-02 -1.312300000000E-01  1.079100000000E-01
     58 F   7 N     8.258000000000E-02  1.312300000000E-01  1.079100000000E-01
     59 F   7 N    -1.312300000000E-01  8.258000000000E-02 -1.079100000000E-01
     60 F   7 N     1.312300000000E-01 -8.258000000000E-02 -1.079100000000E-01
     61 T  30 ZN    4.626932236752E-17  5.000000000000E-01  2.500000000000E-01
     62 T  30 ZN    0.000000000000E+00  0.000000000000E+00  5.000000000000E-01

 T = ATOM BELONGING TO THE ASYMMETRIC UNIT

 ****    4 SYMMOPS - TRANSLATORS IN FRACTIONAL UNITS
 **** MATRICES AND TRANSLATORS IN THE CRYSTALLOGRAPHIC REFERENCE FRAME
   V INV                    ROTATION MATRICES                   TRANSLATORS
   1   1  1.00  0.00  0.00  0.00  1.00  0.00  0.00  0.00  1.00  0.00  0.00  0.00
   2   2  0.00  1.00 -1.00  1.00 -0.00 -1.00 -0.00  0.00 -1.00  0.00  0.00  0.00
   3   4 -0.00 -1.00  0.00  0.00 -1.00  1.00  1.00 -1.00  0.00  0.00  0.00  0.00
   4   3 -1.00 -0.00  1.00 -1.00  0.00 -0.00 -1.00  1.00 -0.00  0.00  0.00  0.00

 DIRECT LATTICE VECTORS CARTESIAN COMPONENTS (ANGSTROM)
          X                    Y                    Z
  -0.507900000000E+01   0.507900000000E+01   0.664700000000E+01
   0.507900000000E+01  -0.507900000000E+01   0.664700000000E+01
   0.507900000000E+01   0.507900000000E+01  -0.664700000000E+01


 CARTESIAN COORDINATES - PRIMITIVE CELL
 *******************************************************************************
 *      ATOM          X(ANGSTROM)         Y(ANGSTROM)         Z(ANGSTROM)
 *******************************************************************************
    1    17 CL    5.852023800000E-01  2.411204460000E+00 -4.830109020000E+00
    2    17 CL   -5.852023800000E-01 -2.411204460000E+00 -4.830109020000E+00
    3    17 CL    2.411204460000E+00 -5.852023800000E-01  4.830109020000E+00
    4    17 CL   -2.411204460000E+00  5.852023800000E-01  4.830109020000E+00
    5     1 H    -2.446046400000E-01 -3.299419980000E+00  1.207494020000E+00
    6     1 H     2.446046400000E-01  3.299419980000E+00  1.207494020000E+00
    7     1 H    -3.299419980000E+00  2.446046400000E-01 -1.207494020000E+00
    8     1 H     3.299419980000E+00 -2.446046400000E-01 -1.207494020000E+00
    9     1 H    -4.004080440000E+00 -1.972683600000E-01  1.821145060000E+00
   10     1 H     4.004080440000E+00  1.972683600000E-01  1.821145060000E+00
   11     1 H    -1.972683600000E-01  4.004080440000E+00 -1.821145060000E+00
   12     1 H     1.972683600000E-01 -4.004080440000E+00 -1.821145060000E+00
   13    17 CL   -1.604151360000E+00  5.799202200000E-01  1.648721880000E+00
   14    17 CL    1.604151360000E+00 -5.799202200000E-01  1.648721880000E+00
   15    17 CL    5.799202200000E-01  1.604151360000E+00 -1.648721880000E+00
   16    17 CL   -5.799202200000E-01 -1.604151360000E+00 -1.648721880000E+00
   17     6 C    -2.390685300000E+00 -3.189815160000E+00  1.549415700000E+00
   18     6 C     2.390685300000E+00  3.189815160000E+00  1.549415700000E+00
   19     6 C    -3.189815160000E+00  2.390685300000E+00 -1.549415700000E+00
   20     6 C     3.189815160000E+00 -2.390685300000E+00 -1.549415700000E+00
   21     6 C    -2.525278800000E+00 -4.640479140000E+00  1.635162000000E+00
   22     6 C     2.525278800000E+00  4.640479140000E+00  1.635162000000E+00
   23     6 C    -4.640479140000E+00  2.525278800000E+00 -1.635162000000E+00
   24     6 C     4.640479140000E+00 -2.525278800000E+00 -1.635162000000E+00
   25     6 C    -3.470277540000E+00 -2.299060140000E+00  1.692857960000E+00
   26     6 C     3.470277540000E+00  2.299060140000E+00  1.692857960000E+00
   27     6 C    -2.299060140000E+00  3.470277540000E+00 -1.692857960000E+00
   28     6 C     2.299060140000E+00 -3.470277540000E+00 -1.692857960000E+00
   29     6 C    -1.872220980000E+00 -4.815907800000E-01  1.600996420000E+00
   30     6 C     1.872220980000E+00  4.815907800000E-01  1.600996420000E+00
   31     6 C    -4.815907800000E-01  1.872220980000E+00 -1.600996420000E+00
   32     6 C     4.815907800000E-01 -1.872220980000E+00 -1.600996420000E+00
   33     6 C    -1.102854060000E+00 -2.644635300000E+00  1.388292420000E+00
   34     6 C     1.102854060000E+00  2.644635300000E+00  1.388292420000E+00
   35     6 C    -2.644635300000E+00  1.102854060000E+00 -1.388292420000E+00
   36     6 C     2.644635300000E+00 -1.102854060000E+00 -1.388292420000E+00
   37     6 C     3.199770000000E+00  9.285427800000E-01  1.704556680000E+00
   38     6 C    -3.199770000000E+00 -9.285427800000E-01  1.704556680000E+00
   39     6 C     9.285427800000E-01 -3.199770000000E+00 -1.704556680000E+00
   40     6 C    -9.285427800000E-01  3.199770000000E+00 -1.704556680000E+00
   41     7 N    -1.617458340000E+00  4.701427140000E+00  2.223953260000E+00
   42     7 N     1.617458340000E+00 -4.701427140000E+00  2.223953260000E+00
   43     7 N     4.701427140000E+00  1.617458340000E+00 -2.223953260000E+00
   44     7 N    -4.701427140000E+00 -1.617458340000E+00 -2.223953260000E+00
   45     7 N    -2.092141680000E+00  3.411564300000E+00  2.123982380000E+00
   46     7 N     2.092141680000E+00 -3.411564300000E+00  2.123982380000E+00
   47     7 N     3.411564300000E+00  2.092141680000E+00 -2.123982380000E+00
   48     7 N    -3.411564300000E+00 -2.092141680000E+00 -2.123982380000E+00
   49     7 N     1.542593880000E+00 -3.271891800000E-01 -5.471810400000E+00
   50     7 N    -1.542593880000E+00  3.271891800000E-01 -5.471810400000E+00
   51     7 N    -3.271891800000E-01 -1.542593880000E+00  5.471810400000E+00
   52     7 N     3.271891800000E-01  1.542593880000E+00  5.471810400000E+00
   53     7 N    -3.250356840000E+00  3.442241460000E+00  1.499829080000E+00
   54     7 N     3.250356840000E+00 -3.442241460000E+00  1.499829080000E+00
   55     7 N     3.442241460000E+00  3.250356840000E+00 -1.499829080000E+00
   56     7 N    -3.442241460000E+00 -3.250356840000E+00 -1.499829080000E+00
   57     7 N    -8.388476400000E-01 -1.333034340000E+00  1.434555540000E+00
   58     7 N     8.388476400000E-01  1.333034340000E+00  1.434555540000E+00
   59     7 N    -1.333034340000E+00  8.388476400000E-01 -1.434555540000E+00
   60     7 N     1.333034340000E+00 -8.388476400000E-01 -1.434555540000E+00
   61    30 ZN    4.700037766092E-16  5.079000000000E+00 -9.970500000000E+00
   62    30 ZN    0.000000000000E+00  0.000000000000E+00  6.647000000000E+00

 *******************************************************************************
 STARTING BASIS SET HANDLING 
 *******************************************************************************

 Loading internal basis set: POB-DZVPP           

 Please cite in your publication:
 Peintinger, M. F., Oliveira, D. V. and Bredow, T. (2013), Generally applicable 
 solid-state Gaussian basis sets, in preparation                                
                                                                                
                    

 *******************************************************************************
 LOCAL ATOMIC FUNCTIONS BASIS SET
 *******************************************************************************
   ATOM   X(AU)   Y(AU)   Z(AU)  N. TYPE  EXPONENT  S COEF   P COEF   D/F/G COEF
 *******************************************************************************
   1 CL   1.106   4.557  -9.128
                                  1 S  
                                         1.045E+04 1.971E-03 0.000E+00 0.000E+00
                                         1.572E+03 1.475E-02 0.000E+00 0.000E+00
                                         3.571E+02 6.668E-02 0.000E+00 0.000E+00
                                         1.003E+02 1.723E-01 0.000E+00 0.000E+00
                                         3.081E+01 1.588E-01 0.000E+00 0.000E+00
                                  2 S  
                                         5.192E+01-1.001E-01 0.000E+00 0.000E+00
                                         5.705E+00 6.084E-01 0.000E+00 0.000E+00
                                         2.351E+00 5.435E-01 0.000E+00 0.000E+00
                                  3 S  
                                         4.886E-01 1.000E+00 0.000E+00 0.000E+00
                                  4 S  
                                         1.984E-01 1.000E+00 0.000E+00 0.000E+00
                           5-     7 P  
                                         3.077E+02 0.000E+00-8.780E-03 0.000E+00
                                         7.210E+01 0.000E+00-6.356E-02 0.000E+00
                                         2.253E+01 0.000E+00-2.402E-01 0.000E+00
                                         7.899E+00 0.000E+00-4.780E-01 0.000E+00
                                         2.877E+00 0.000E+00-3.852E-01 0.000E+00
                           8-    10 P  
                                         9.483E-01 0.000E+00 1.000E+00 0.000E+00
                          11-    13 P  
                                         2.521E-01 0.000E+00 1.000E+00 0.000E+00
                          14-    18 D  
                                         9.722E-01 0.000E+00 0.000E+00 1.000E+00
                          19-    23 D  
                                         2.060E-01 0.000E+00 0.000E+00 1.000E+00
   2 CL  -1.106  -4.557  -9.128
   3 CL   4.557  -1.106   9.128
   4 CL  -4.557   1.106   9.128
   5 H   -0.462  -6.235   2.282
                                 93 S  
                                         2.263E+01 1.441E-02 0.000E+00 0.000E+00
                                         3.236E+00 1.072E-01 0.000E+00 0.000E+00
                                         7.304E-01 3.846E-01 0.000E+00 0.000E+00
                                 94 S  
                                         1.417E-01 1.000E+00 0.000E+00 0.000E+00
                          95-    97 P  
                                         3.944E-01 0.000E+00 1.000E+00 0.000E+00
                          98-   100 P  
                                         1.006E-01 0.000E+00 1.000E+00 0.000E+00
   6 H    0.462   6.235   2.282
   7 H   -6.235   0.462  -2.282
   8 H    6.235  -0.462  -2.282
   9 H   -7.567  -0.373   3.441
  10 H    7.567   0.373   3.441
  11 H   -0.373   7.567  -3.441
  12 H    0.373  -7.567  -3.441
  13 CL  -3.031   1.096   3.116
  14 CL   3.031  -1.096   3.116
  15 CL   1.096   3.031  -3.116
  16 CL  -1.096  -3.031  -3.116
  17 C   -4.518  -6.028   2.928
                                249 S  
                                         1.238E+03 5.457E-03 0.000E+00 0.000E+00
                                         1.863E+02 4.064E-02 0.000E+00 0.000E+00
                                         4.225E+01 1.803E-01 0.000E+00 0.000E+00
                                         1.168E+01 4.632E-01 0.000E+00 0.000E+00
                                         3.593E+00 4.409E-01 0.000E+00 0.000E+00
                                250 S  
                                         5.281E+00 1.000E+00 0.000E+00 0.000E+00
                                251 S  
                                         4.447E-01 1.000E+00 0.000E+00 0.000E+00
                         252-   254 P  
                                         9.468E+00 0.000E+00 3.839E-02 0.000E+00
                                         2.010E+00 0.000E+00 2.112E-01 0.000E+00
                                         5.477E-01 0.000E+00 5.133E-01 0.000E+00
                         255-   257 P  
                                         1.604E-01 0.000E+00 1.000E+00 0.000E+00
                         258-   262 D  
                                         6.070E-01 0.000E+00 0.000E+00 1.000E+00
                         263-   267 D  
                                         2.939E-01 0.000E+00 0.000E+00 1.000E+00
  18 C    4.518   6.028   2.928
  19 C   -6.028   4.518  -2.928
  20 C    6.028  -4.518  -2.928
  21 C   -4.772  -8.769   3.090
  22 C    4.772   8.769   3.090
  23 C   -8.769   4.772  -3.090
  24 C    8.769  -4.772  -3.090
  25 C   -6.558  -4.345   3.199
  26 C    6.558   4.345   3.199
  27 C   -4.345   6.558  -3.199
  28 C    4.345  -6.558  -3.199
  29 C   -3.538  -0.910   3.025
  30 C    3.538   0.910   3.025
  31 C   -0.910   3.538  -3.025
  32 C    0.910  -3.538  -3.025
  33 C   -2.084  -4.998   2.623
  34 C    2.084   4.998   2.623
  35 C   -4.998   2.084  -2.623
  36 C    4.998  -2.084  -2.623
  37 C    6.047   1.755   3.221
  38 C   -6.047  -1.755   3.221
  39 C    1.755  -6.047  -3.221
  40 C   -1.755   6.047  -3.221
  41 N   -3.057   8.884   4.203
                                705 S  
                                         1.713E+03-5.393E-03 0.000E+00 0.000E+00
                                         2.576E+02-4.022E-02 0.000E+00 0.000E+00
                                         5.846E+01-1.793E-01 0.000E+00 0.000E+00
                                         1.620E+01-4.638E-01 0.000E+00 0.000E+00
                                         5.005E+00-4.417E-01 0.000E+00 0.000E+00
                                706 S  
                                         6.217E-01 1.000E+00 0.000E+00 0.000E+00
                                707 S  
                                         2.921E-01 1.000E+00 0.000E+00 0.000E+00
                         708-   710 P  
                                         1.357E+01 0.000E+00-4.007E-02 0.000E+00
                                         2.926E+00 0.000E+00-2.181E-01 0.000E+00
                                         7.993E-01 0.000E+00-5.129E-01 0.000E+00
                         711-   713 P  
                                         2.244E-01 0.000E+00 1.000E+00 0.000E+00
                         714-   718 D  
                                         3.118E-01 0.000E+00 0.000E+00 1.000E+00
  42 N    3.057  -8.884   4.203
  43 N    8.884   3.057  -4.203
  44 N   -8.884  -3.057  -4.203
  45 N   -3.954   6.447   4.014
  46 N    3.954  -6.447   4.014
  47 N    6.447   3.954  -4.014
  48 N   -6.447  -3.954  -4.014
  49 N    2.915  -0.618 -10.340
  50 N   -2.915   0.618 -10.340
  51 N   -0.618  -2.915  10.340
  52 N    0.618   2.915  10.340
  53 N   -6.142   6.505   2.834
  54 N    6.142  -6.505   2.834
  55 N    6.505   6.142  -2.834
  56 N   -6.505  -6.142  -2.834
  57 N   -1.585  -2.519   2.711
  58 N    1.585   2.519   2.711
  59 N   -2.519   1.585  -2.711
  60 N    2.519  -1.585  -2.711
  61 ZN   0.000   9.598 -18.842
                                985 S  
                                         8.200E+04 1.421E-03 0.000E+00 0.000E+00
                                         1.231E+04 1.089E-02 0.000E+00 0.000E+00
                                         2.801E+03 5.406E-02 0.000E+00 0.000E+00
                                         7.910E+02 1.885E-01 0.000E+00 0.000E+00
                                         2.576E+02 3.835E-01 0.000E+00 0.000E+00
                                         8.881E+01 2.972E-01 0.000E+00 0.000E+00
                                986 S  
                                         1.719E+02-1.105E-01 0.000E+00 0.000E+00
                                         2.030E+01 6.461E-01 0.000E+00 0.000E+00
                                         8.346E+00 4.422E-01 0.000E+00 0.000E+00
                                987 S  
                                         1.485E+01-2.271E-01 0.000E+00 0.000E+00
                                         2.450E+00 7.243E-01 0.000E+00 0.000E+00
                                         9.985E-01 4.484E-01 0.000E+00 0.000E+00
                                988 S  
                                         1.493E+00 1.000E+00 0.000E+00 0.000E+00
                                989 S  
                                         1.830E-01 1.000E+00 0.000E+00 0.000E+00
                         990-   992 P  
                                         1.072E+03 0.000E+00 9.277E-03 0.000E+00
                                         2.527E+02 0.000E+00 6.954E-02 0.000E+00
                                         8.010E+01 0.000E+00 2.716E-01 0.000E+00
                                         2.890E+01 0.000E+00 5.340E-01 0.000E+00
                                         1.077E+01 0.000E+00 3.450E-01 0.000E+00
                         993-   995 P  
                                         5.645E+00 0.000E+00 3.413E-01 0.000E+00
                                         2.168E+00 0.000E+00 5.639E-01 0.000E+00
                                         8.054E-01 0.000E+00 2.368E-01 0.000E+00
                         996-   998 P  
                                         2.721E-01 0.000E+00 1.000E+00 0.000E+00
                         999-  1003 D  
                                         5.609E+01 0.000E+00 0.000E+00 2.959E-02
                                         1.575E+01 0.000E+00 0.000E+00 1.587E-01
                                         5.312E+00 0.000E+00 0.000E+00 3.798E-01
                                         1.774E+00 0.000E+00 0.000E+00 4.690E-01
                        1004-  1008 D  
                                         5.073E-01 0.000E+00 0.000E+00 1.000E+00
                        1009-  1015 F  
                                         2.814E+00 0.000E+00 0.000E+00 1.000E+00
                        1016-  1022 F  
                                         1.300E+00 0.000E+00 0.000E+00 1.000E+00
  62 ZN   0.000   0.000  12.561

 *******************************************************************************
 FINISHED BASIS SET HANDLING 
 *******************************************************************************

 INFORMATION **** SET_MPP **** PCRYSTAL CALCULATION
 INFORMATION **** READM2 **** NEW DEFAULT: FOCK/KS MATRIX MIXING SET TO 30 %
 INFORMATION **** READM2 **** NEW DEFAULT: FULL DIRECT SCF MODE
 INFORMATION **** READM2 **** NEW DEFAULT: COULOMB BIPOLAR BUFFER SET TO 32 Mb
 INFORMATION **** READM2 **** NEW DEFAULT: EXCHANGE BIPOLAR BUFFER SET TO 32 Mb

 *******************************************************************************
 NEW DEFAULT: DFT INTEGRATION GRID INCREASED TO XLGRID
 NEW DEFAULT: DIIS ACCELERATOR ACTIVE
 USE KEYWORD NODIIS TO TURN IT OFF
 *******************************************************************************

 INFORMATION **** DFTD3_INPUT **** PERFORM DISPERSION CORRECTION DFT-D3(BJ) IN THE BECKE-JOHNSON DAMPING SCHEME

 PLEASE CITE:
 (1) DFT-D3 Reference
  S. Grimme, J. Antony, S. Ehrlich, and H. Krieg, J. Chem. Phys. 132 (2010), 154104
 (2) BJ-Damping Reference
  S. Grimme, S. Ehrlich, and L. Goerigk, J. Comput. Chem. 32 (2011), 1456-1465
 (3) General DFT-D Review
  S. Grimme, A. Hansen, J. G. Brandenburg, and C. Bannwarth,
  Chem. Rev. 116 (2016), 5105-5154

 INFORMATION **** BIPOSIZE **** COULOMB BIPOLAR BUFFER SET TO    30000000
 INFORMATION **** EXCHSIZE **** EXCHANGE BIPOLAR BUFFER SIZE SET TO    30000000
 INFORMATION **** TOLINTEG **** COULOMB AND EXCHANGE SERIES TOLERANCES MODIFIED
 INFORMATION **** MAXCYCLE **** MAX NUMBER OF SCF CYCLES SET TO          50
 *******************************************************************************
 N. OF ATOMS PER CELL        62  COULOMB OVERLAP TOL         (T1) 10**  -12
 NUMBER OF SHELLS           416  COULOMB PENETRATION TOL     (T2) 10**  -12
 NUMBER OF AO              1060  EXCHANGE OVERLAP TOL        (T3) 10**   20
 N. OF ELECTRONS PER CELL   488  EXCHANGE PSEUDO OVP (F(G))  (T4) 10**   20
 CORE ELECTRONS PER CELL    204  EXCHANGE PSEUDO OVP (P(G))  (T5) 10**   20
 N. OF SYMMETRY OPERATORS     4  POLE ORDER IN MONO ZONE                  4
 *******************************************************************************
 TYPE OF CALCULATION :  RESTRICTED CLOSED SHELL
 KOHN-SHAM HAMILTONIAN

 (EXCHANGE)[CORRELATION] FUNCTIONAL:(PERDEW-BURKE-ERNZERHOF)[PERDEW-BURKE-ERNZERHOF]


 CAPPA:IS1  3;IS2  3;IS3  3; K PTS MONK NET   6; SYMMOPS:K SPACE   8;G SPACE   4

 *******************************************************************************
 MAX NUMBER OF SCF CYCLES      50  CONVERGENCE ON DELTAP        10**-16
 WEIGHT OF F(I) IN F(I+1)      30% CONVERGENCE ON ENERGY        10**- 7
 SHRINK. FACT.(MONKH.)    3  3  3  NUMBER OF K POINTS IN THE IBZ      6
 SHRINKING FACTOR(GILAT NET)    3  NUMBER OF K POINTS(GILAT NET)      6
 *******************************************************************************
 *** K POINTS COORDINATES (OBLIQUE COORDINATES IN UNITS OF IS =  3)
   1-R(  0  0  0)   2-C(  1  0  0)   3-C(  1  1  0)   4-C(  2  1  0)
   5-C(  2  1  1)   6-C(  2  2  1)

 DIRECT LATTICE VECTORS COMPON. (A.U.)     RECIP. LATTICE VECTORS COMPON. (A.U.) 
        X            Y            Z              X            Y            Z
   -9.5979190    9.5979190   12.5610096      0.0000000    0.3273202    0.2501067
    9.5979190   -9.5979190   12.5610096      0.3273202    0.0000000    0.2501067
    9.5979190    9.5979190  -12.5610096      0.3273202    0.3273202    0.0000000

 DISK SPACE FOR EIGENVECTORS (FTN 10)    12359600 REALS

 SYMMETRY ADAPTION OF THE BLOCH FUNCTIONS ENABLED
 TTTTTTTTTTTTTTTTTTTTTTTTTTTTTT gordsh1     TELAPSE        0.94 TCPU        0.04

 MATRIX SIZE: P(G) 2036360, F(G) 1019190, P(G) IRR  257553, F(G) IRR  257553
 MAX G-VECTOR INDEX FOR 1- AND 2-ELECTRON INTEGRALS  63

 TTTTTTTTTTTTTTTTTTTTTTTTTTTTTT INPUT       TELAPSE        1.16 TCPU        0.27

 NEIGHBORS OF THE NON-EQUIVALENT ATOMS

 N = NUMBER OF NEIGHBORS AT DISTANCE R
    ATOM  N     R/ANG      R/AU   NEIGHBORS (ATOM LABELS AND CELL INDICES)
   1 CL   1     1.0950     2.0692   25 C    0 0 1
   1 CL   1     2.1707     4.1021   38 C    0 0 1
   1 CL   1     2.1834     4.1260   17 C    0 0 1
   1 CL   1     2.5186     4.7595    9 H    0 0 1
   1 CL   1     2.5548     4.8279   54 N    0-1 0
   1 CL   1     2.7928     5.2776   21 C    0 0 1

   5 H    1     1.0945     2.0684   33 C    0 0 0
   5 H    1     2.0667     3.9055   57 N    0 0 0
   5 H    1     2.1759     4.1119   17 C    0 0 0
   5 H    1     2.5126     4.7480   46 N    0 0 0
   5 H    1     2.5429     4.8053   42 N    0 0 0
   5 H    1     2.6801     5.0646   21 C    0 0 0

   9 H    1     1.0933     2.0660   38 C    0 0 0
   9 H    1     2.1620     4.0855   29 C    0 0 0
   9 H    1     2.1723     4.1051   25 C    0 0 0
   9 H    1     2.1857     4.1305   10 H    0-1-1
   9 H    1     2.5186     4.7595    1 CL   0 0-1
   9 H    1     2.5285     4.7782   13 CL   0 0 0

  13 CL   1     1.0959     2.0709   29 C    0 0 0
  13 CL   1     2.0715     3.9145   57 N    0 0 0
  13 CL   1     2.1965     4.1508   38 C    0 0 0
  13 CL   1     2.5285     4.7782    9 H    0 0 0
  13 CL   1     2.5654     4.8479   58 N    0 0 0
  13 CL   1     2.9124     5.5037   45 N    0 0 0

  17 C    1     1.4070     2.6588   25 C    0 0 0
  17 C    1     1.4077     2.6602   33 C    0 0 0
  17 C    1     1.4594     2.7579   21 C    0 0 0
  17 C    1     2.1759     4.1119    5 H    0 0 0
  17 C    1     2.1834     4.1260    1 CL   0 0-1
  17 C    1     2.4067     4.5479   38 C    0 0 0

  21 C    1     1.3492     2.5496   49 N    0 0-1
  21 C    1     1.3553     2.5611   41 N   -1 0-1
  21 C    1     1.4594     2.7579   17 C    0 0 0
  21 C    1     2.2025     4.1620   53 N   -1 0-1
  21 C    1     2.2049     4.1667   45 N   -1 0-1
  21 C    1     2.4633     4.6549   33 C    0 0 0

  25 C    1     1.0950     2.0692    1 CL   0 0-1
  25 C    1     1.3970     2.6400   38 C    0 0 0
  25 C    1     1.4070     2.6588   17 C    0 0 0
  25 C    1     2.1723     4.1051    9 H    0 0 0
  25 C    1     2.4118     4.5577   33 C    0 0 0
  25 C    1     2.4219     4.5767   29 C    0 0 0

  29 C    1     1.0959     2.0709   13 CL   0 0 0
  29 C    1     1.3493     2.5497   57 N    0 0 0
  29 C    1     1.4046     2.6543   38 C    0 0 0
  29 C    1     2.1620     4.0855    9 H    0 0 0
  29 C    1     2.3056     4.3570   33 C    0 0 0
  29 C    1     2.4219     4.5767   25 C    0 0 0

  33 C    1     1.0945     2.0684    5 H    0 0 0
  33 C    1     1.3387     2.5298   57 N    0 0 0
  33 C    1     1.4077     2.6602   17 C    0 0 0
  33 C    1     2.3056     4.3570   29 C    0 0 0
  33 C    1     2.4118     4.5577   25 C    0 0 0
  33 C    1     2.4633     4.6549   21 C    0 0 0

  37 C    1     1.0933     2.0660   10 H    0 0 0
  37 C    1     1.3970     2.6400   26 C    0 0 0
  37 C    1     1.4046     2.6543   30 C    0 0 0
  37 C    1     2.1707     4.1021    2 CL   1 1 1
  37 C    1     2.1965     4.1508   14 CL   0 0 0
  37 C    1     2.4067     4.5479   18 C    0 0 0

  41 N    1     1.3553     2.5611   21 C    1 0 1
  41 N    1     1.3781     2.6042   45 N    0 0 0
  41 N    1     1.9919     3.7642   61 ZN   1 1 0
  41 N    1     2.1855     4.1299   53 N    0 0 0
  41 N    1     2.1874     4.1336   49 N    1 0 0
  41 N    1     2.4882     4.7020   17 C    1 0 1

  45 N    1     1.3160     2.4870   53 N    0 0 0
  45 N    1     1.3781     2.6042   41 N    0 0 0
  45 N    1     2.1869     4.1326   49 N    1 0 0
  45 N    1     2.2049     4.1667   21 C    1 0 1
  45 N    1     2.5126     4.7480    6 H    0 0 0
  45 N    1     2.9124     5.5037   13 CL   0 0 0

  49 N    1     1.3492     2.5496   21 C    0 0 1
  49 N    1     1.3792     2.6063   53 N   -1 0 0
  49 N    1     1.9667     3.7164   62 ZN  -1-1 0
  49 N    1     2.1869     4.1326   45 N   -1 0 0
  49 N    1     2.1874     4.1336   41 N   -1 0 0
  49 N    1     2.5229     4.7676   17 C    0 0 1

  53 N    1     1.3160     2.4870   45 N    0 0 0
  53 N    1     1.3792     2.6063   49 N    1 0 0
  53 N    1     2.1855     4.1299   41 N    0 0 0
  53 N    1     2.2025     4.1620   21 C    1 0 1
  53 N    1     2.5548     4.8279    2 CL   1 0 0
  53 N    1     2.8762     5.4352   62 ZN   0-1 0

  57 N    1     1.3387     2.5298   33 C    0 0 0
  57 N    1     1.3493     2.5497   29 C    0 0 0
  57 N    1     2.0667     3.9055    5 H    0 0 0
  57 N    1     2.0715     3.9145   13 CL   0 0 0
  57 N    1     2.4105     4.5552   38 C    0 0 0
  57 N    1     2.4226     4.5781   17 C    0 0 0

  61 ZN   4     1.9919     3.7642   41 N   -1-1 0   42 N    0-1 1   43 N    0-1 0
                                    44 N    0 0 1
  61 ZN   4     2.7756     5.2452    5 H    0-1 1    6 H   -1-1 0    7 H    0 0 1
                                     8 H    0-1 0
  61 ZN   4     2.9319     5.5406   45 N   -1-1 0   46 N    0-1 1   47 N    0-1 0
                                    48 N    0 0 1
  61 ZN   4     3.0692     5.7999   21 C    0-1 1   22 C   -1-1 0   23 C    0 0 1
                                    24 C    0-1 0
  61 ZN   4     3.2996     6.2354   33 C    0-1 1   34 C   -1-1 0   35 C    0 0 1
                                    36 C    0-1 0
  61 ZN   4     3.5259     6.6629   17 C    0-1 1   18 C   -1-1 0   19 C    0 0 1
                                    20 C    0-1 0

  62 ZN   4     1.9667     3.7164   49 N    1 1 0   50 N    1 1 0   51 N    0 0 0
                                    52 N    0 0 0
  62 ZN   4     2.8762     5.4352   53 N    0 1 0   54 N    1 0 0   55 N    0 0-1
                                    56 N    1 1 1
  62 ZN   4     3.0639     5.7900   21 C    1 1 1   22 C    0 0-1   23 C    0 1 0
                                    24 C    1 0 0
  62 ZN   4     3.0753     5.8115    1 CL   1 1 0    2 CL   1 1 0    3 CL   0 0 0
                                     4 CL   0 0 0
  62 ZN   4     3.6307     6.8610   25 C    1 1 1   26 C    0 0-1   27 C    0 1 0
                                    28 C    1 0 0
  62 ZN   4     3.6327     6.8649   17 C    1 1 1   18 C    0 0-1   19 C    0 1 0
                                    20 C    1 0 0


 SYMMETRY ALLOWED ELASTIC DISTORTION 1
  0.5773503  0.0000000  0.0000000
  0.0000000  0.5773503  0.0000000
  0.0000000  0.0000000  0.5773503

 SYMMETRY ALLOWED ELASTIC DISTORTION 2
  0.4082483  0.0000000  0.0000000
  0.0000000  0.4082483  0.0000000
  0.0000000  0.0000000 -0.8164966

 SYMMETRY ALLOWED INTERNAL DEGREE(S) OF FREEDOM:  45
 TTTTTTTTTTTTTTTTTTTTTTTTTTTTTT SYMM        TELAPSE        1.18 TCPU        0.28
 TTTTTTTTTTTTTTTTTTTTTTTTTTTTTT INT_SCREEN  TELAPSE        1.18 TCPU        0.29

 *******************************************************************************
 *                             OPTIMIZATION STARTS                             *
 *******************************************************************************
 RECLASIFICATION OF INDICES FOR INTEGRAL CALC ACCORDING TO DIFFERENT CRITERIA:
           FIXDELTE                  FIXDELTX              FIXDELTN
          0.10000000               0.80000000                 47
 DEFAULT MAX NUM OF POINTS  100
 *******************************************************************************

 *******************************************************************************
 COORDINATE AND CELL OPTIMIZATION - POINT    1
 INFORMATION **** EXCBUF **** EXCH. BIPO BUFFER: WORDS USED =           0

 DFT PARAMETERS

     ATOM       ELECTRONS   NET CHARGE   R(ANGSTROM)
   1  17  CL     17.0000      0.0000     0.99000000
   5   1  H       1.0000      0.0000     1.11000000
  17   6  C       6.0000      0.0000     0.77000000
  41   7  N       7.0000      0.0000     0.74000000
  61  30  ZN     30.0000      0.0000     1.37000000

 SIZE OF GRID=     452766
 TTTTTTTTTTTTTTTTTTTTTTTTTTTTTT MAKE_GRID2  TELAPSE        2.70 TCPU        1.80
 BECKE WEIGHT FUNCTION
 RADSAFE =     2.00
 TOLERANCES - DENSITY:10**- 6; POTENTIAL:10**- 9; GRID WGT:10**-14

 RADIAL INTEGRATION  - INTERVALS (POINTS,UPPER LIMIT):            1( 75,  4.0*R)

 ANGULAR INTEGRATION - INTERVALS (ACCURACY LEVEL [N. POINTS] UPPER LIMIT):
  1(  4[  86]   0.2)  2(  8[ 194]   0.5)  3( 12[ 350]   0.9)  4( 16[ 974]   3.5)
  5( 12[ 350]9999.0)
 TTTTTTTTTTTTTTTTTTTTTTTTTTTTTT INT_CALC    TELAPSE        2.76 TCPU        1.86

 *******************************************************************************
 C:\Users\wilso\AppData\Local\Temp\tmp_p\newconn.mol                             
 CRYSTAL - SCF - TYPE OF CALCULATION :  RESTRICTED CLOSED SHELL
 *******************************************************************************

 CAPPA:IS1  3;IS2  3;IS3  3; K PTS MONK NET   6; SYMMOPS:K SPACE   8;G SPACE   4

 TTTTTTTTTTTTTTTTTTTTTTTTTTTTTT SDIK        TELAPSE        2.99 TCPU        2.08

 AAAAAAAAAAAAAAAAAAAAAAAAAAAAAAAAAAAAAAAAAAAAAAAAAAAAAAAAAAAAAAAAAAAAAAAAAAAAAAA
         ATOMIC WAVEFUNCTION(S)


 NUCLEAR CHARGE 17.0  SYMMETRY SPECIES            S    P
 N. ELECTRONS   17.0  NUMBER OF PRIMITIVE GTOS   10    7
                      NUMBER OF CONTRACTED GTOS   4    3
                      NUMBER OF CLOSED SHELLS     3    1
                      OPEN SHELL OCCUPATION       0    5

  ZNUC SCFIT  TOTAL HF ENERGY   KINETIC ENERGY   VIRIAL THEOREM ACCURACY
  17.0   9   -4.593005957E+02  4.593991532E+02 -1.999785464E+00  2.3E-06

 NUCLEAR CHARGE  1.0  SYMMETRY SPECIES            S
 N. ELECTRONS    1.0  NUMBER OF PRIMITIVE GTOS    4
                      NUMBER OF CONTRACTED GTOS   2
                      NUMBER OF CLOSED SHELLS     0
                      OPEN SHELL OCCUPATION       1

  ZNUC SCFIT  TOTAL HF ENERGY   KINETIC ENERGY   VIRIAL THEOREM ACCURACY
   1.0   1   -4.946643675E-01  4.917913167E-01 -2.005842012E+00  9.4E-17

 NUCLEAR CHARGE  6.0  SYMMETRY SPECIES            S    P
 N. ELECTRONS    6.0  NUMBER OF PRIMITIVE GTOS    7    4
                      NUMBER OF CONTRACTED GTOS   3    2
                      NUMBER OF CLOSED SHELLS     2    0
                      OPEN SHELL OCCUPATION       0    2

  ZNUC SCFIT  TOTAL HF ENERGY   KINETIC ENERGY   VIRIAL THEOREM ACCURACY
   6.0   6   -3.750912652E+01  3.905246519E+01 -1.960480378E+00  3.7E-06

 NUCLEAR CHARGE  7.0  SYMMETRY SPECIES            S    P
 N. ELECTRONS    7.0  NUMBER OF PRIMITIVE GTOS    7    4
                      NUMBER OF CONTRACTED GTOS   3    2
                      NUMBER OF CLOSED SHELLS     2    0
                      OPEN SHELL OCCUPATION       0    3

  ZNUC SCFIT  TOTAL HF ENERGY   KINETIC ENERGY   VIRIAL THEOREM ACCURACY
   7.0   9   -5.432196661E+01  5.425066284E+01 -2.001314339E+00  1.2E-06

 NUCLEAR CHARGE 30.0  SYMMETRY SPECIES            S    P    D
 N. ELECTRONS   30.0  NUMBER OF PRIMITIVE GTOS   14    9    5
                      NUMBER OF CONTRACTED GTOS   5    3    2
                      NUMBER OF CLOSED SHELLS     4    2    1
                      OPEN SHELL OCCUPATION       0    0    0

  ZNUC SCFIT  TOTAL HF ENERGY   KINETIC ENERGY   VIRIAL THEOREM ACCURACY
  30.0  10   -1.777404290E+03  1.777325716E+03 -2.000044209E+00  2.5E-06

 AAAAAAAAAAAAAAAAAAAAAAAAAAAAAAAAAAAAAAAAAAAAAAAAAAAAAAAAAAAAAAAAAAAAAAAAAAAAAAA

 CHARGE NORMALIZATION FACTOR   1.00000000
 TOTAL ATOMIC CHARGES:
  17.0000000  17.0000000  17.0000000  17.0000000   1.0000000   1.0000000
   1.0000000   1.0000000   1.0000000   1.0000000   1.0000000   1.0000000
  17.0000000  17.0000000  17.0000000  17.0000000   6.0000000   6.0000000
   6.0000000   6.0000000   6.0000000   6.0000000   6.0000000   6.0000000
   6.0000000   6.0000000   6.0000000   6.0000000   6.0000000   6.0000000
   6.0000000   6.0000000   6.0000000   6.0000000   6.0000000   6.0000000
   6.0000000   6.0000000   6.0000000   6.0000000   7.0000000   7.0000000
   7.0000000   7.0000000   7.0000000   7.0000000   7.0000000   7.0000000
   7.0000000   7.0000000   7.0000000   7.0000000   7.0000000   7.0000000
   7.0000000   7.0000000   7.0000000   7.0000000   7.0000000   7.0000000
  30.0000000  30.0000000
 TTTTTTTTTTTTTTTTTTTTTTTTTTTTTT MOQGAD      TELAPSE        4.70 TCPU        3.79
 TTTTTTTTTTTTTTTTTTTTTTTTTTTTTT SHELLXN     TELAPSE       96.33 TCPU       90.91
 TTTTTTTTTTTTTTTTTTTTTTTTTTTTTT MONMO3      TELAPSE      105.96 TCPU      100.50
 NUMERICALLY INTEGRATED DENSITY    487.9999500242
 TTTTTTTTTTTTTTTTTTTTTTTTTTTTTT NUMDFT      TELAPSE      108.64 TCPU      103.17
 CYC   0 ETOT(AU) -9.261013334003E+03 DETOT -9.26E+03 tst  0.00E+00 PX  1.00E+00
 TTTTTTTTTTTTTTTTTTTTTTTTTTTTTT DIIS        TELAPSE      108.73 TCPU      103.26
 TTTTTTTTTTTTTTTTTTTTTTTTTTTTTT FDIK        TELAPSE      151.59 TCPU      140.44
 INSULATING STATE
 TOP OF VALENCE BANDS -    BAND    244; K    1; EIG -1.3169613E-01 AU
 BOTTOM OF VIRTUAL BANDS - BAND    245; K    1; EIG -1.0662210E-01 AU
 DIRECT ENERGY BAND GAP:   0.6823 eV
 TTTTTTTTTTTTTTTTTTTTTTTTTTTTTT PDIG        TELAPSE      152.43 TCPU      141.23
 CHARGE NORMALIZATION FACTOR   1.00000000
 TOTAL ATOMIC CHARGES:
  16.7215691  16.7215691  16.7215691  16.7215691   1.3282228   1.3282228
   1.3282228   1.3282228   1.1071401   1.1071401   1.1071401   1.1071401
  16.5604465  16.5604465  16.5604465  16.5604465   6.1434531   6.1434531
   6.1434531   6.1434531   5.5173691   5.5173691   5.5173691   5.5173691
   6.1005548   6.1005548   6.1005548   6.1005548   5.9769868   5.9769868
   5.9769868   5.9769868   5.7976839   5.7976839   5.7976839   5.7976839
   6.2271839   6.2271839   6.2271839   6.2271839   7.3758670   7.3758670
   7.3758670   7.3758670   7.2109047   7.2109047   7.2109047   7.2109047
   7.4006827   7.4006827   7.4006827   7.4006827   7.1335161   7.1335161
   7.1335161   7.1335161   7.5586049   7.5586049   7.5586049   7.5586049
  27.6518766  27.7073814
 TTTTTTTTTTTTTTTTTTTTTTTTTTTTTT MOQGAD      TELAPSE      152.49 TCPU      141.28
 TTTTTTTTTTTTTTTTTTTTTTTTTTTTTT SHELLXN     TELAPSE      256.71 TCPU      243.04
 TTTTTTTTTTTTTTTTTTTTTTTTTTTTTT MONMO3      TELAPSE      264.19 TCPU      250.49
 NUMERICALLY INTEGRATED DENSITY    487.9999724221
 TTTTTTTTTTTTTTTTTTTTTTTTTTTTTT NUMDFT      TELAPSE      271.79 TCPU      258.08
 CYC   1 ETOT(AU) -9.239995482429E+03 DETOT  2.10E+01 tst  0.00E+00 PX  1.00E+00
 TTTTTTTTTTTTTTTTTTTTTTTTTTTTTT DIIS        TELAPSE      271.96 TCPU      258.25
 DIIS TEST: 0.16697E+02 AT SCF   CYCLE   1 - MIX   30 %
 TTTTTTTTTTTTTTTTTTTTTTTTTTTTTT FDIK        TELAPSE      286.95 TCPU      271.10
 POSSIBLY CONDUCTING STATE - EFERMI(AU) -8.3986074E-02 (RES. CHARGE  3.34E-11;IT.  8)
 TTTTTTTTTTTTTTTTTTTTTTTTTTTTTT PDIG        TELAPSE      287.66 TCPU      271.81
 CHARGE NORMALIZATION FACTOR   1.00000000
 TOTAL ATOMIC CHARGES:
  17.5011677  17.5011677  17.5011677  17.5011677   1.3942055   1.3942055
   1.3942055   1.3942055   1.1997060   1.1997060   1.1997060   1.1997060
  16.6462988  16.6462988  16.6462988  16.6462988   6.2889296   6.2889296
   6.2889296   6.2889296   6.6733881   6.6733881   6.6733881   6.6733881
   5.8182442   5.8182442   5.8182442   5.8182442   5.7271004   5.7271004
   5.7271004   5.7271004   6.3357995   6.3357995   6.3357995   6.3357995
   5.8046153   5.8046153   5.8046153   5.8046153   7.2124635   7.2124635
   7.2124635   7.2124635   6.8343607   6.8343607   6.8343607   6.8343607
   7.5269677   7.5269677   7.5269677   7.5269677   6.9963883   6.9963883
   6.9963883   6.9963883   4.7527915   4.7527915   4.7527915   4.7527915
  30.2052837  30.9450092
 TTTTTTTTTTTTTTTTTTTTTTTTTTTTTT MOQGAD      TELAPSE      287.71 TCPU      271.86
 TTTTTTTTTTTTTTTTTTTTTTTTTTTTTT SHELLXN     TELAPSE      391.92 TCPU      373.69
 TTTTTTTTTTTTTTTTTTTTTTTTTTTTTT MONMO3      TELAPSE      398.17 TCPU      379.92
 NUMERICALLY INTEGRATED DENSITY    487.9999563576
 TTTTTTTTTTTTTTTTTTTTTTTTTTTTTT NUMDFT      TELAPSE      405.82 TCPU      387.55
 CYC   2 ETOT(AU) -9.227983056889E+03 DETOT  1.20E+01 tst  1.45E-01 PX  2.59E+00
 TTTTTTTTTTTTTTTTTTTTTTTTTTTTTT DIIS        TELAPSE      406.00 TCPU      387.72
 DIIS TEST: 0.92638E+02 AT SCF   CYCLE   2 - DIIS ACTIVE - HISTORY:     2 CYCLES
 TTTTTTTTTTTTTTTTTTTTTTTTTTTTTT FDIK        TELAPSE      421.89 TCPU      401.46
 INSULATING STATE
 TOP OF VALENCE BANDS -    BAND    244; K    4; EIG -1.6679608E-01 AU
 TOP OF VALENCE BANDS -    BAND    244; K    1; EIG -1.7067908E-01 AU
 BOTTOM OF VIRTUAL BANDS - BAND    245; K    1; EIG -9.8564237E-02 AU
 INDIRECT ENERGY BAND GAP:   1.8567 eV
 TTTTTTTTTTTTTTTTTTTTTTTTTTTTTT PDIG        TELAPSE      422.62 TCPU      402.18
 CHARGE NORMALIZATION FACTOR   1.00000000
 TOTAL ATOMIC CHARGES:
  16.8941892  16.8941892  16.8941892  16.8941892   1.2816460   1.2816460
   1.2816460   1.2816460   1.0917546   1.0917546   1.0917546   1.0917546
  17.2613897  17.2613897  17.2613897  17.2613897   5.8029997   5.8029997
   5.8029997   5.8029997   6.0881350   6.0881350   6.0881350   6.0881350
   5.5106306   5.5106306   5.5106306   5.5106306   5.9540033   5.9540033
   5.9540033   5.9540033   6.2194036   6.2194036   6.2194036   6.2194036
   5.9519528   5.9519528   5.9519528   5.9519528   6.7562486   6.7562486
   6.7562486   6.7562486   7.1765152   7.1765152   7.1765152   7.1765152
   6.4694187   6.4694187   6.4694187   6.4694187   6.9140590   6.9140590
   6.9140590   6.9140590   7.6825623   7.6825623   7.6825623   7.6825623
  29.9660423  29.8143240
 TTTTTTTTTTTTTTTTTTTTTTTTTTTTTT MOQGAD      TELAPSE      422.68 TCPU      402.24
 TTTTTTTTTTTTTTTTTTTTTTTTTTTTTT SHELLXN     TELAPSE      526.82 TCPU      504.01
 TTTTTTTTTTTTTTTTTTTTTTTTTTTTTT MONMO3      TELAPSE      532.95 TCPU      510.12
 NUMERICALLY INTEGRATED DENSITY    487.9999579072
 TTTTTTTTTTTTTTTTTTTTTTTTTTTTTT NUMDFT      TELAPSE      540.55 TCPU      517.70
 CYC   3 ETOT(AU) -9.238787378426E+03 DETOT -1.08E+01 tst  3.75E-01 PX  1.95E+00
 TTTTTTTTTTTTTTTTTTTTTTTTTTTTTT DIIS        TELAPSE      540.72 TCPU      517.87
 DIIS TEST: 0.22815E+02 AT SCF   CYCLE   3 - DIIS ACTIVE - HISTORY:     3 CYCLES
 TTTTTTTTTTTTTTTTTTTTTTTTTTTTTT FDIK        TELAPSE      554.89 TCPU      529.88
 INSULATING STATE
 TOP OF VALENCE BANDS -    BAND    244; K    6; EIG -1.6565592E-01 AU
 TOP OF VALENCE BANDS -    BAND    244; K    1; EIG -1.6592935E-01 AU
 BOTTOM OF VIRTUAL BANDS - BAND    245; K    1; EIG -1.0087421E-01 AU
 INDIRECT ENERGY BAND GAP:   1.7628 eV
 TTTTTTTTTTTTTTTTTTTTTTTTTTTTTT PDIG        TELAPSE      555.62 TCPU      530.61
 CHARGE NORMALIZATION FACTOR   1.00000000
 TOTAL ATOMIC CHARGES:
  17.1350195  17.1350195  17.1350195  17.1350195   1.2790481   1.2790481
   1.2790481   1.2790481   1.1075784   1.1075784   1.1075784   1.1075784
  16.6965497  16.6965497  16.6965497  16.6965497   6.2867473   6.2867473
   6.2867473   6.2867473   5.7514681   5.7514681   5.7514681   5.7514681
   5.8737885   5.8737885   5.8737885   5.8737885   5.7542130   5.7542130
   5.7542130   5.7542130   5.7913463   5.7913463   5.7913463   5.7913463
   6.3527208   6.3527208   6.3527208   6.3527208   7.0571697   7.0571697
   7.0571697   7.0571697   6.9588755   6.9588755   6.9588755   6.9588755
   7.3394007   7.3394007   7.3394007   7.3394007   7.1227593   7.1227593
   7.1227593   7.1227593   7.0575687   7.0575687   7.0575687   7.0575687
  28.8438428  28.8991430
 TTTTTTTTTTTTTTTTTTTTTTTTTTTTTT MOQGAD      TELAPSE      555.67 TCPU      530.66
 TTTTTTTTTTTTTTTTTTTTTTTTTTTTTT SHELLXN     TELAPSE      661.87 TCPU      632.42
 TTTTTTTTTTTTTTTTTTTTTTTTTTTTTT MONMO3      TELAPSE      668.04 TCPU      638.57
 NUMERICALLY INTEGRATED DENSITY    487.9999701947
 TTTTTTTTTTTTTTTTTTTTTTTTTTTTTT NUMDFT      TELAPSE      675.66 TCPU      646.18
 CYC   4 ETOT(AU) -9.242253690116E+03 DETOT -3.47E+00 tst  1.52E-02 PX  6.38E-01
 TTTTTTTTTTTTTTTTTTTTTTTTTTTTTT DIIS        TELAPSE      675.86 TCPU      646.37
 DIIS TEST: 0.26402E+01 AT SCF   CYCLE   4 - DIIS ACTIVE - HISTORY:     4 CYCLES
 TTTTTTTTTTTTTTTTTTTTTTTTTTTTTT FDIK        TELAPSE      690.54 TCPU      658.86
 INSULATING STATE
 TOP OF VALENCE BANDS -    BAND    244; K    5; EIG -1.6451322E-01 AU
 TOP OF VALENCE BANDS -    BAND    244; K    1; EIG -1.6578510E-01 AU
 BOTTOM OF VIRTUAL BANDS - BAND    245; K    4; EIG -1.0442742E-01 AU
 INDIRECT ENERGY BAND GAP:   1.6350 eV
 BOTTOM OF VIRTUAL BANDS - BAND    245; K    1; EIG -1.0316066E-01 AU
 TTTTTTTTTTTTTTTTTTTTTTTTTTTTTT PDIG        TELAPSE      691.27 TCPU      659.59
 CHARGE NORMALIZATION FACTOR   1.00000000
 TOTAL ATOMIC CHARGES:
  16.9731602  16.9731602  16.9731602  16.9731602   1.2843333   1.2843333
   1.2843333   1.2843333   1.1138557   1.1138557   1.1138557   1.1138557
  16.7900341  16.7900341  16.7900341  16.7900341   6.1293989   6.1293989
   6.1293989   6.1293989   5.8583938   5.8583938   5.8583938   5.8583938
   5.8659824   5.8659824   5.8659824   5.8659824   5.8997718   5.8997718
   5.8997718   5.8997718   6.1687310   6.1687310   6.1687310   6.1687310
   5.9076748   5.9076748   5.9076748   5.9076748   7.4587830   7.4587830
   7.4587830   7.4587830   7.2735690   7.2735690   7.2735690   7.2735690
   7.0907385   7.0907385   7.0907385   7.0907385   6.8120040   6.8120040
   6.8120040   6.8120040   6.9821166   6.9821166   6.9821166   6.9821166
  28.7810011  28.7848110
 TTTTTTTTTTTTTTTTTTTTTTTTTTTTTT MOQGAD      TELAPSE      691.32 TCPU      659.64
 TTTTTTTTTTTTTTTTTTTTTTTTTTTTTT SHELLXN     TELAPSE      795.55 TCPU      761.39
 TTTTTTTTTTTTTTTTTTTTTTTTTTTTTT MONMO3      TELAPSE      802.21 TCPU      768.02
 NUMERICALLY INTEGRATED DENSITY    487.9999677941
 TTTTTTTTTTTTTTTTTTTTTTTTTTTTTT NUMDFT      TELAPSE      809.83 TCPU      775.62
 CYC   5 ETOT(AU) -9.242131410195E+03 DETOT  1.22E-01 tst  2.60E-03 PX  1.45E-01
 TTTTTTTTTTTTTTTTTTTTTTTTTTTTTT DIIS        TELAPSE      810.01 TCPU      775.79
 DIIS TEST: 0.32627E+01 AT SCF   CYCLE   5 - DIIS ACTIVE - HISTORY:     5 CYCLES
 TTTTTTTTTTTTTTTTTTTTTTTTTTTTTT FDIK        TELAPSE      828.11 TCPU      787.25
 INSULATING STATE
 TOP OF VALENCE BANDS -    BAND    244; K    6; EIG -1.7648505E-01 AU
 TOP OF VALENCE BANDS -    BAND    244; K    1; EIG -1.7727379E-01 AU
 BOTTOM OF VIRTUAL BANDS - BAND    245; K    1; EIG -9.4843956E-02 AU
 INDIRECT ENERGY BAND GAP:   2.2216 eV
 TTTTTTTTTTTTTTTTTTTTTTTTTTTTTT PDIG        TELAPSE      828.83 TCPU      787.97
 CHARGE NORMALIZATION FACTOR   1.00000000
 TOTAL ATOMIC CHARGES:
  17.0080781  17.0080781  17.0080781  17.0080781   1.2749315   1.2749315
   1.2749315   1.2749315   1.1036818   1.1036818   1.1036818   1.1036818
  16.7851260  16.7851260  16.7851260  16.7851260   6.1001506   6.1001506
   6.1001506   6.1001506   5.8804070   5.8804070   5.8804070   5.8804070
   5.8720370   5.8720370   5.8720370   5.8720370   5.9057453   5.9057453
   5.9057453   5.9057453   6.0059690   6.0059690   6.0059690   6.0059690
   6.0697537   6.0697537   6.0697537   6.0697537   7.0484605   7.0484605
   7.0484605   7.0484605   7.0277861   7.0277861   7.0277861   7.0277861
   7.2235757   7.2235757   7.2235757   7.2235757   7.1393685   7.1393685
   7.1393685   7.1393685   7.1044318   7.1044318   7.1044318   7.1044318
  28.8634704  28.9385191
 TTTTTTTTTTTTTTTTTTTTTTTTTTTTTT MOQGAD      TELAPSE      828.88 TCPU      788.02
 TTTTTTTTTTTTTTTTTTTTTTTTTTTTTT SHELLXN     TELAPSE      933.22 TCPU      889.79
 TTTTTTTTTTTTTTTTTTTTTTTTTTTTTT MONMO3      TELAPSE      939.46 TCPU      896.02
 NUMERICALLY INTEGRATED DENSITY    487.9999672257
 TTTTTTTTTTTTTTTTTTTTTTTTTTTTTT NUMDFT      TELAPSE      947.07 TCPU      903.61
 CYC   6 ETOT(AU) -9.242568627957E+03 DETOT -4.37E-01 tst  1.81E-03 PX  1.19E-01
 TTTTTTTTTTTTTTTTTTTTTTTTTTTTTT DIIS        TELAPSE      947.28 TCPU      903.81
 DIIS TEST: 0.31532E+00 AT SCF   CYCLE   6 - DIIS ACTIVE - HISTORY:     6 CYCLES
 TTTTTTTTTTTTTTTTTTTTTTTTTTTTTT FDIK        TELAPSE      963.12 TCPU      915.21
 INSULATING STATE
 TOP OF VALENCE BANDS -    BAND    244; K    6; EIG -1.7586464E-01 AU
 TOP OF VALENCE BANDS -    BAND    244; K    1; EIG -1.7638474E-01 AU
 BOTTOM OF VIRTUAL BANDS - BAND    245; K    1; EIG -9.4164996E-02 AU
 INDIRECT ENERGY BAND GAP:   2.2232 eV
 TTTTTTTTTTTTTTTTTTTTTTTTTTTTTT PDIG        TELAPSE      963.86 TCPU      915.94
 CHARGE NORMALIZATION FACTOR   1.00000000
 TOTAL ATOMIC CHARGES:
  16.9909185  16.9909185  16.9909185  16.9909185   1.2759895   1.2759895
   1.2759895   1.2759895   1.1021059   1.1021059   1.1021059   1.1021059
  16.7694209  16.7694209  16.7694209  16.7694209   6.1650172   6.1650172
   6.1650172   6.1650172   5.8678536   5.8678536   5.8678536   5.8678536
   5.8825905   5.8825905   5.8825905   5.8825905   5.8528765   5.8528765
   5.8528765   5.8528765   5.9607385   5.9607385   5.9607385   5.9607385
   6.1866875   6.1866875   6.1866875   6.1866875   7.1425976   7.1425976
   7.1425976   7.1425976   7.1068741   7.1068741   7.1068741   7.1068741
   7.1313439   7.1313439   7.1313439   7.1313439   7.0106321   7.0106321
   7.0106321   7.0106321   7.0949615   7.0949615   7.0949615   7.0949615
  28.8991650  28.9384030
 TTTTTTTTTTTTTTTTTTTTTTTTTTTTTT MOQGAD      TELAPSE      963.91 TCPU      916.00
 TTTTTTTTTTTTTTTTTTTTTTTTTTTTTT SHELLXN     TELAPSE     1068.19 TCPU     1017.73
 TTTTTTTTTTTTTTTTTTTTTTTTTTTTTT MONMO3      TELAPSE     1074.66 TCPU     1024.18
 NUMERICALLY INTEGRATED DENSITY    487.9999678518
 TTTTTTTTTTTTTTTTTTTTTTTTTTTTTT NUMDFT      TELAPSE     1082.19 TCPU     1031.68
 CYC   7 ETOT(AU) -9.242609779645E+03 DETOT -4.12E-02 tst  1.90E-04 PX  4.35E-02
[...]
  61 ZN   4     2.7351     5.1686   45 N   -1-1 0   46 N    0-1 1   47 N    0-1 0
                                    48 N    0 0 1
  61 ZN   4     2.8896     5.4605    5 H    0-1 1    6 H   -1-1 0    7 H    0 0 1
                                     8 H    0-1 0
  61 ZN   4     3.2670     6.1737   21 C    0-1 1   22 C   -1-1 0   23 C    0 0 1
                                    24 C    0-1 0
  61 ZN   4     3.6352     6.8695   33 C    0-1 1   34 C   -1-1 0   35 C    0 0 1
                                    36 C    0-1 0
  61 ZN   4     3.8810     7.3340   17 C    0-1 1   18 C   -1-1 0   19 C    0 0 1
                                    20 C    0-1 0

  62 ZN   4     2.0820     3.9344   49 N    1 1 0   50 N    1 1 0   51 N    0 0 0
                                    52 N    0 0 0
  62 ZN   4     2.7926     5.2773   53 N    0 1 0   54 N    1 0 0   55 N    0 0-1
                                    56 N    1 1 1
  62 ZN   4     3.2014     6.0499    1 CL   1 1 0    2 CL   1 1 0    3 CL   0 0 0
                                     4 CL   0 0 0
  62 ZN   4     3.2971     6.2306   21 C    1 1 1   22 C    0 0-1   23 C    0 1 0
                                    24 C    1 0 0
  62 ZN   4     4.0102     7.5781   45 N    0 1 0   46 N    1 0 0   47 N    0 0-1
                                    48 N    1 1 1
  62 ZN   4     4.0112     7.5800   17 C    1 1 1   18 C    0 0-1   19 C    0 1 0
                                    20 C    1 0 0


 FINAL OPTIMIZED GEOMETRY - DIMENSIONALITY OF THE SYSTEM      3
 (NON PERIODIC DIRECTION: LATTICE PARAMETER FORMALLY SET TO 500)
 *******************************************************************************
 LATTICE PARAMETERS (ANGSTROMS AND DEGREES) - BOHR = 0.5291772083 ANGSTROM
 PRIMITIVE CELL - CENTRING CODE 6/0 VOLUME=   755.132942 - DENSITY  2.163 g/cm^3
         A              B              C           ALPHA      BETA       GAMMA 
    10.00314779    10.00314779    10.00314779   114.402169 114.402169 100.004305
 *******************************************************************************
 ATOMS IN THE ASYMMETRIC UNIT   17 - ATOMS IN THE UNIT CELL:   62
     ATOM                 X/A                 Y/B                 Z/C    
 *******************************************************************************
      1 T  17 CL   -1.179208704207E-01 -3.644804128614E-01  2.562230575961E-01
      2 F  17 CL    3.792965295425E-01 -3.741439280169E-01 -2.562230575961E-01
      3 F  17 CL    3.644804128614E-01 -3.792965295425E-01  2.465595424407E-01
      4 F  17 CL    3.741439280169E-01  1.179208704207E-01 -2.465595424407E-01
      5 T   1 H    -1.576240874136E-01  8.325994194308E-02 -3.240795388754E-01
      6 F   1 H     4.073394808185E-01  1.664554514618E-01  3.240795388754E-01
      7 F   1 H    -8.325994194308E-02 -4.073394808185E-01 -2.408840293567E-01
      8 F   1 H    -1.664554514618E-01  1.576240874136E-01  2.408840293567E-01
      9 T   1 H     1.140130487420E-01 -2.809954999917E-01 -4.072098736445E-01
     10 F   1 H     1.262143736528E-01 -4.787770776135E-01  4.072098736445E-01
     11 F   1 H     2.809954999917E-01 -1.262143736528E-01  3.950085487337E-01
     12 F   1 H     4.787770776135E-01 -1.140130487420E-01 -3.950085487337E-01
     13 T  17 CL    2.573496832257E-01 -5.325092539501E-02 -5.147441410119E-02
     14 F  17 CL   -1.776511293825E-03  3.088240973269E-01  5.147441410119E-02
     15 F  17 CL    5.325092539501E-02  1.776511293825E-03  3.106006086208E-01
     16 F  17 CL   -3.088240973269E-01 -2.573496832257E-01 -3.106006086208E-01
     17 T   6 C    -1.533895122309E-01 -1.155476000363E-01  4.763101874911E-01
     18 F   6 C     4.081422124726E-01  3.703003002780E-01 -4.763101874911E-01
     19 F   6 C     1.155476000363E-01 -4.081422124726E-01 -3.784191219463E-02
     20 F   6 C    -3.703003002780E-01  1.533895122309E-01  3.784191219463E-02
     21 T   6 C    -2.867205195731E-01 -1.223062041071E-01  3.341529880427E-01
     22 F   6 C    -4.564591921498E-01  3.791264923841E-01 -3.341529880427E-01
     23 F   6 C     1.223062041071E-01  4.564591921498E-01 -1.644143154660E-01
     24 F   6 C    -3.791264923841E-01  2.867205195731E-01  1.644143154660E-01
     25 T   6 C    -7.244924999409E-02 -2.181072658212E-01  4.577705960945E-01
     26 F   6 C     3.241221380843E-01  4.697801539114E-01 -4.577705960945E-01
     27 F   6 C     2.181072658212E-01 -3.241221380843E-01  1.456580158271E-01
     28 F   6 C    -4.697801539114E-01  7.244924999409E-02 -1.456580158271E-01
     29 T   6 C     9.469218314517E-02 -7.883007781771E-02 -2.323719069252E-01
     30 F   6 C     1.535418291074E-01  3.270640900703E-01  2.323719069252E-01
     31 F   6 C     7.883007781771E-02 -1.535418291074E-01  1.735222609629E-01
     32 F   6 C    -3.270640900703E-01 -9.469218314517E-02 -1.735222609629E-01
     33 T   6 C    -9.860432206981E-02  1.695421055059E-03 -3.502266399164E-01
     34 F   6 C     3.519220609714E-01  2.516223178466E-01  3.502266399164E-01
     35 F   6 C    -1.695421055059E-03 -3.519220609714E-01 -1.002997431249E-01
     36 F   6 C    -2.516223178466E-01  9.860432206981E-02  1.002997431249E-01
     37 T   6 C     1.930455669858E-01  4.463332788382E-01  3.962434563144E-01
     38 F   6 C     5.008982252385E-02 -2.031978893286E-01 -3.962434563144E-01
     39 F   6 C    -4.463332788382E-01 -5.008982252385E-02 -2.532877118525E-01
     40 F   6 C     2.031978893286E-01 -1.930455669858E-01  2.532877118525E-01
     41 T   7 N    -3.270942698645E-01  5.792109247314E-03  3.568373051963E-01
     42 F   7 N    -3.510451959490E-01  3.160684249392E-01 -3.568373051963E-01
     43 F   7 N    -5.792109247314E-03  3.510451959490E-01 -3.328863791118E-01
     44 F   7 N    -3.160684249392E-01  3.270942698645E-01  3.328863791118E-01
     45 T   7 N    -4.663486038239E-01 -4.688248915015E-02  2.037525618925E-01
     46 F   7 N    -2.506350510427E-01  3.298988342835E-01 -2.037525618925E-01
     47 F   7 N     4.688248915015E-02  2.506350510427E-01 -4.194661146738E-01
     48 F   7 N    -3.298988342835E-01  4.663486038239E-01  4.194661146738E-01
     49 T   7 N    -3.982621690320E-01 -2.502637292619E-01  1.678764619792E-01
     50 F   7 N    -4.181401912411E-01  4.338613689888E-01 -1.678764619792E-01
     51 F   7 N     2.502637292619E-01  4.181401912411E-01 -1.479984397702E-01
     52 F   7 N    -4.338613689888E-01  3.982621690320E-01  1.479984397702E-01
     53 T   7 N     4.917348854977E-01 -1.986956809855E-01  9.146192643344E-02
     54 F   7 N    -2.901576074190E-01  4.002729590642E-01 -9.146192643344E-02
     55 F   7 N     1.986956809855E-01  2.901576074190E-01 -3.095694335168E-01
     56 F   7 N    -4.002729590642E-01 -4.917348854977E-01  3.095694335168E-01
     57 T   7 N     2.370700881242E-02  2.157782921944E-02 -2.088517328278E-01
     58 F   7 N     2.304295620472E-01  2.325587416402E-01  2.088517328278E-01
     59 F   7 N    -2.157782921944E-02 -2.304295620472E-01  2.129179592980E-03
     60 F   7 N    -2.325587416402E-01 -2.370700881242E-02 -2.129179592980E-03
     61 T  30 ZN   -2.500000000000E-01  2.500000000000E-01  5.000000000000E-01
     62 T  30 ZN   -5.000000000000E-01  5.000000000000E-01  2.054343803846E-18

 TRANSFORMATION MATRIX PRIMITIVE-CRYSTALLOGRAPHIC CELL
  0.0000  1.0000  1.0000  1.0000  0.0000  1.0000  1.0000  1.0000  0.0000

 *******************************************************************************
 CRYSTALLOGRAPHIC CELL (VOLUME=       1510.26588348)
         A              B              C           ALPHA      BETA       GAMMA 
    10.83725619    10.83725619    12.85922311    90.000000  90.000000  90.000000

 COORDINATES IN THE CRYSTALLOGRAPHIC CELL
     ATOM                 X/A                 Y/B                 Z/C    
 *******************************************************************************
      1 T  17 CL    4.831757577724E-03  2.513913000184E-01 -3.693121704391E-01
      2 F  17 CL   -4.831757577723E-03 -2.513913000184E-01 -3.693121704391E-01
      3 F  17 CL    2.513913000184E-01 -4.831757577724E-03  3.693121704391E-01
      4 F  17 CL   -2.513913000184E-01  4.831757577724E-03  3.693121704391E-01
      5 T   1 H    -4.159775475937E-02 -2.824817841161E-01  1.248576967025E-01
      6 F   1 H     4.159775475937E-02  2.824817841161E-01  1.248576967025E-01
      7 F   1 H    -2.824817841161E-01  4.159775475937E-02 -1.248576967025E-01
      8 F   1 H     2.824817841161E-01 -4.159775475937E-02 -1.248576967025E-01
      9 T   1 H    -4.011092111891E-01 -6.100662455404E-03  1.201137111974E-01
     10 F   1 H     4.011092111891E-01  6.100662455404E-03  1.201137111974E-01
     11 F   1 H    -6.100662455404E-03  4.011092111891E-01 -1.201137111974E-01
     12 F   1 H     6.100662455404E-03 -4.011092111891E-01 -1.201137111974E-01
     13 T  17 CL   -1.810375113610E-01  1.295630972598E-01  1.277865859660E-01
     14 F  17 CL    1.810375113610E-01 -1.295630972598E-01  1.277865859660E-01
     15 F  17 CL    1.295630972598E-01  1.810375113610E-01 -1.277865859660E-01
     16 F  17 CL   -1.295630972598E-01 -1.810375113610E-01 -1.277865859660E-01
     17 T   6 C    -2.429239501572E-01 -2.807658623518E-01  1.273763501208E-01
     18 F   6 C     2.429239501572E-01  2.807658623518E-01  1.273763501208E-01
     19 F   6 C    -2.807658623518E-01  2.429239501572E-01 -1.273763501208E-01
     20 F   6 C     2.807658623518E-01 -2.429239501572E-01 -1.273763501208E-01
     21 T   6 C    -2.507163482456E-01 -4.151306637116E-01  1.284101441385E-01
     22 F   6 C     2.507163482456E-01  4.151306637116E-01  1.284101441385E-01
     23 F   6 C    -4.151306637116E-01  2.507163482456E-01 -1.284101441385E-01
     24 F   6 C     4.151306637116E-01 -2.507163482456E-01 -1.284101441385E-01
     25 T   6 C    -3.439437098663E-01 -1.982856940392E-01  1.258364440451E-01
     26 F   6 C     3.439437098663E-01  1.982856940392E-01  1.258364440451E-01
     27 F   6 C    -1.982856940392E-01  3.439437098663E-01 -1.258364440451E-01
     28 F   6 C     1.982856940392E-01 -3.439437098663E-01 -1.258364440451E-01
     29 T   6 C    -2.029470839440E-01 -2.942482298114E-02  1.241170061263E-01
     30 F   6 C     2.029470839440E-01  2.942482298114E-02  1.241170061263E-01
     31 F   6 C    -2.942482298114E-02  2.029470839440E-01 -1.241170061263E-01
     32 F   6 C     2.942482298114E-02 -2.029470839440E-01 -1.241170061263E-01
     33 T   6 C    -1.249634483958E-01 -2.252631915206E-01  1.266588694508E-01
     34 F   6 C     1.249634483958E-01  2.252631915206E-01  1.266588694508E-01
     35 F   6 C    -2.252631915206E-01  1.249634483958E-01 -1.266588694508E-01
     36 F   6 C     2.252631915206E-01 -1.249634483958E-01 -1.266588694508E-01
     37 T   6 C     3.247655840834E-01  7.147787223095E-02  1.215676947548E-01
     38 F   6 C    -3.247655840834E-01 -7.147787223095E-02  1.215676947548E-01
     39 F   6 C     7.147787223095E-02 -3.247655840834E-01 -1.215676947548E-01
     40 F   6 C    -7.147787223095E-02  3.247655840834E-01 -1.215676947548E-01
     41 T   7 N    -1.551381578459E-01 -4.880245369577E-01  1.609302670932E-01
     42 F   7 N     1.551381578459E-01  4.880245369577E-01  1.609302670932E-01
     43 F   7 N    -4.880245369577E-01  1.551381578459E-01 -1.609302670932E-01
     44 F   7 N     4.880245369577E-01 -1.551381578459E-01 -1.609302670932E-01
     45 T   7 N    -1.883906617168E-01  3.921432236094E-01  1.415081725667E-01
     46 F   7 N     1.883906617168E-01 -3.921432236094E-01  1.415081725667E-01
     47 F   7 N     3.921432236094E-01  1.883906617168E-01 -1.415081725667E-01
     48 F   7 N    -3.921432236094E-01 -1.883906617168E-01 -1.415081725667E-01
     49 T   7 N     1.579374508747E-01  9.939011104528E-03 -4.082011801366E-01
     50 F   7 N    -1.579374508747E-01 -9.939011104529E-03 -4.082011801366E-01
     51 F   7 N     9.939011104528E-03 -1.579374508747E-01  4.082011801366E-01
     52 F   7 N    -9.939011104529E-03  1.579374508747E-01  4.082011801366E-01
     53 T   7 N    -2.994843200249E-01  3.909462464583E-01  1.007886390393E-01
     54 F   7 N     2.994843200249E-01 -3.909462464583E-01  1.007886390393E-01
     55 F   7 N     3.909462464583E-01  2.994843200249E-01 -1.007886390393E-01
     56 F   7 N    -3.909462464583E-01 -2.994843200249E-01 -1.007886390393E-01
     57 T   7 N    -1.054904562104E-01 -1.033612766174E-01  1.270682854298E-01
     58 F   7 N     1.054904562104E-01  1.033612766174E-01  1.270682854298E-01
     59 F   7 N    -1.033612766174E-01  1.054904562104E-01 -1.270682854298E-01
     60 F   7 N     1.033612766174E-01 -1.054904562104E-01 -1.270682854298E-01
     61 T  30 ZN    4.626932236752E-17  5.000000000000E-01  2.500000000000E-01
     62 T  30 ZN    0.000000000000E+00  2.054343803846E-18  5.000000000000E-01

 T = ATOM BELONGING TO THE ASYMMETRIC UNIT
 INFORMATION **** fort.34 **** GEOMETRY OUTPUT FILE

 DIRECT LATTICE VECTORS CARTESIAN COMPONENTS (ANGSTROM)
          X                    Y                    Z
  -0.541862809576E+01   0.541862809576E+01   0.642961155648E+01
   0.541862809576E+01  -0.541862809576E+01   0.642961155648E+01
   0.541862809576E+01   0.541862809576E+01  -0.642961155648E+01


 CARTESIAN COORDINATES - PRIMITIVE CELL
 *******************************************************************************
 *      ATOM          X(ANGSTROM)         Y(ANGSTROM)         Z(ANGSTROM)
 *******************************************************************************
    1    17 CL    5.236299472516E-02  2.724391922621E+00 -4.749067598012E+00
    2    17 CL   -5.236299472515E-02 -2.724391922621E+00 -4.749067598012E+00
    3    17 CL    2.724391922621E+00 -5.236299472516E-02  4.749067598012E+00
    4    17 CL   -2.724391922621E+00  5.236299472516E-02  4.749067598012E+00
    5     1 H    -4.508055253197E-01 -3.061327463906E+00  1.605572979268E+00
    6     1 H     4.508055253197E-01  3.061327463906E+00  1.605572979268E+00
    7     1 H    -3.061327463906E+00  4.508055253197E-01 -1.605572979268E+00
    8     1 H     3.061327463906E+00 -4.508055253197E-01 -1.605572979268E+00
    9     1 H    -4.346923282439E+00 -6.611444196726E-02  1.544569011214E+00
   10     1 H     4.346923282439E+00  6.611444196726E-02  1.544569011214E+00
   11     1 H    -6.611444196726E-02  4.346923282439E+00 -1.544569011214E+00
   12     1 H     6.611444196726E-02 -4.346923282439E+00 -1.544569011214E+00
   13    17 CL   -1.961949890896E+00  1.404108477972E+00  1.643236219781E+00
   14    17 CL    1.961949890896E+00 -1.404108477972E+00  1.643236219781E+00
   15    17 CL    1.404108477972E+00  1.961949890896E+00 -1.643236219781E+00
   16    17 CL   -1.404108477972E+00 -1.961949890896E+00 -1.643236219781E+00
   17     6 C    -2.632629082911E+00 -3.042731580142E+00  1.637960905519E+00
   18     6 C     2.632629082911E+00  3.042731580142E+00  1.637960905519E+00
   19     6 C    -3.042731580142E+00  2.632629082911E+00 -1.637960905519E+00
   20     6 C     3.042731580142E+00 -2.632629082911E+00 -1.637960905519E+00
   21     6 C    -2.717077297343E+00 -4.498877355603E+00  1.651254693446E+00
   22     6 C     2.717077297343E+00  4.498877355603E+00  1.651254693446E+00
   23     6 C    -4.498877355603E+00  2.717077297343E+00 -1.651254693446E+00
   24     6 C     4.498877355603E+00 -2.717077297343E+00 -1.651254693446E+00
   25     6 C    -3.727406099286E+00 -2.148872865418E+00  1.618158909718E+00
   26     6 C     3.727406099286E+00  2.148872865418E+00  1.618158909718E+00
   27     6 C    -2.148872865418E+00  3.727406099286E+00 -1.618158909718E+00
   28     6 C     2.148872865418E+00 -3.727406099286E+00 -1.618158909718E+00
   29     6 C    -2.199389542025E+00 -3.188843450370E-01  1.596048273892E+00
   30     6 C     2.199389542025E+00  3.188843450370E-01  1.596048273892E+00
   31     6 C    -3.188843450370E-01  2.199389542025E+00 -1.596048273892E+00
   32     6 C     3.188843450370E-01 -2.199389542025E+00 -1.596048273892E+00
   33     6 C    -1.354260904842E+00 -2.441234917031E+00  1.628734661504E+00
   34     6 C     1.354260904842E+00  2.441234917031E+00  1.628734661504E+00
   35     6 C    -2.441234917031E+00  1.354260904842E+00 -1.628734661504E+00
   36     6 C     2.441234917031E+00 -1.354260904842E+00 -1.628734661504E+00
   37     6 C     3.519567836904E+00  7.746240133922E-01  1.563266110181E+00
   38     6 C    -3.519567836904E+00 -7.746240133922E-01  1.563266110181E+00
   39     6 C     7.746240133922E-01 -3.519567836904E+00 -1.563266110181E+00
   40     6 C    -7.746240133922E-01  3.519567836904E+00 -1.563266110181E+00
   41     7 N    -1.681271961658E+00  5.548409256766E+00  2.069438210182E+00
   42     7 N     1.681271961658E+00 -5.548409256766E+00  2.069438210182E+00
   43     7 N     5.548409256766E+00  1.681271961658E+00 -2.069438210182E+00
   44     7 N    -5.548409256766E+00 -1.681271961658E+00 -2.069438210182E+00
   45     7 N    -2.041637865117E+00  4.249756578027E+00  1.819685163344E+00
   46     7 N     2.041637865117E+00 -4.249756578027E+00  1.819685163344E+00
   47     7 N     4.249756578027E+00  2.041637865117E+00 -1.819685163344E+00
   48     7 N    -4.249756578027E+00 -2.041637865117E+00 -1.819685163344E+00
   49     7 N     1.711608617366E+00  1.077116096302E-01 -5.249150050353E+00
   50     7 N    -1.711608617366E+00 -1.077116096302E-01 -5.249150050353E+00
   51     7 N     1.077116096302E-01 -1.711608617366E+00  5.249150050353E+00
   52     7 N    -1.077116096302E-01  1.711608617366E+00  5.249150050353E+00
   53     7 N    -3.245588301456E+00  4.236784629986E+00  1.296063596659E+00
   54     7 N     3.245588301456E+00 -4.236784629986E+00  1.296063596659E+00
   55     7 N     4.236784629986E+00  3.245588301456E+00 -1.296063596659E+00
   56     7 N    -4.236784629986E+00 -3.245588301456E+00 -1.296063596659E+00
   57     7 N    -1.143227099713E+00 -1.120152634986E+00  1.633999432924E+00
   58     7 N     1.143227099713E+00  1.120152634986E+00  1.633999432924E+00
   59     7 N    -1.120152634986E+00  1.143227099713E+00 -1.633999432924E+00
   60     7 N     1.120152634986E+00 -1.143227099713E+00 -1.633999432924E+00
   61    30 ZN    5.014325003052E-16  5.418628095765E+00 -9.644417334727E+00
   62    30 ZN    0.000000000000E+00  2.226345010776E-17  6.429611556484E+00

 ****    4 SYMMOPS - TRANSLATORS IN FRACTIONAL UNITS
 **** MATRICES AND TRANSLATORS IN THE CRYSTALLOGRAPHIC REFERENCE FRAME
   V INV                    ROTATION MATRICES                   TRANSLATORS
   1   1  1.00  0.00  0.00  0.00  1.00  0.00  0.00  0.00  1.00  0.00  0.00  0.00
   2   2 -0.00  1.00 -1.00  1.00 -0.00 -1.00 -0.00  0.00 -1.00  0.00  0.00  0.00
   3   4  0.00 -1.00  0.00  0.00 -1.00  1.00  1.00 -1.00  0.00  0.00  0.00  0.00
   4   3 -1.00  0.00  1.00 -1.00  0.00 -0.00 -1.00  1.00 -0.00  0.00  0.00  0.00
 TTTTTTTTTTTTTTTTTTTTTTTTTTTTTT END         TELAPSE   106963.13 TCPU   103914.77
 EEEEEEEEEE TERMINATION  DATE 20 11 2023 TIME 16:15:44.0
NODE    0 CPU TIME =    103914.767
NODE    1 CPU TIME =    104452.132
NODE    2 CPU TIME =    104922.792
NODE    3 CPU TIME =    104536.485
NODE    4 CPU TIME =    104530.491
NODE    5 CPU TIME =    104312.390
NODE    6 CPU TIME =    104940.060
NODE    7 CPU TIME =    104399.587
NODE    8 CPU TIME =    104315.074
NODE    9 CPU TIME =    104327.210
NODE   10 CPU TIME =    104636.140
NODE   11 CPU TIME =    104447.151
NODE   12 CPU TIME =    104225.492
NODE   13 CPU TIME =    104389.208
NODE   14 CPU TIME =    104585.607
NODE   15 CPU TIME =    104219.508
NODE   16 CPU TIME =    104022.324
NODE   17 CPU TIME =    104317.924
NODE   18 CPU TIME =    104417.018
NODE   19 CPU TIME =    104256.538
NODE   20 CPU TIME =    104148.270
NODE   21 CPU TIME =    104011.665
NODE   22 CPU TIME =    104130.484
NODE   23 CPU TIME =    104123.666
    TOTAL CPU TIME =   2504581.985
trying normal rsh (/usr/bin/rsh)
exec: No such file or directory
trying normal rsh (/usr/bin/rsh)
exec: No such file or directory
trying normal rsh (/usr/bin/rsh)
exec: No such file or directory
trying normal rsh (/usr/bin/rsh)
exec: No such file or directory
