Loading crystal17/1.0.2/intel/19.0
  Loading requirement: intel/19.0 ompi/4.0.1/intel/19.0
 PROCESS            1  OF           24  WORKING
 PROCESS            3  OF           24  WORKING
 PROCESS            9  OF           24  WORKING
 PROCESS           10  OF           24  WORKING
 PROCESS           12  OF           24  WORKING
 PROCESS           13  OF           24  WORKING
 PROCESS           14  OF           24  WORKING
 PROCESS           15  OF           24  WORKING
 PROCESS           16  OF           24  WORKING
 PROCESS           17  OF           24  WORKING
 PROCESS           18  OF           24  WORKING
 PROCESS           20  OF           24  WORKING
 PROCESS           21  OF           24  WORKING
 PROCESS           22  OF           24  WORKING
 PROCESS           23  OF           24  WORKING
 PROCESS            0  OF           24  WORKING
 PROCESS            4  OF           24  WORKING
 PROCESS            5  OF           24  WORKING
 PROCESS            7  OF           24  WORKING
 PROCESS            8  OF           24  WORKING
 PROCESS           11  OF           24  WORKING
 PROCESS           19  OF           24  WORKING
 PROCESS            6  OF           24  WORKING
 PROCESS            2  OF           24  WORKING

         
 *******************************************************************************
 *                                                                             *
 *                               CRYSTAL17                                     *
 *                      public : 1.0.2 - March 1st, 2018                       *
 *                       HTTP://WWW.CRYSTAL.UNITO.IT                           *
 *                                                                             *
 *                              MAIN AUTHORS                                   *
 *                                                                             *
 *  R. DOVESI(1,11), V.R. SAUNDERS(2), C. ROETTI(1,11), R. ORLANDO(1,11),      *
 *  C.M. ZICOVICH-WILSON(1,3), F. PASCALE(4), B. CIVALLERI(1,11),              *
 *  K. DOLL(5), N.M. HARRISON(2,6), I.J. BUSH(7), Ph. D'ARCO(8),               *
 *  M. LLUNELL(9), M. CAUSA'(10), Y. NOEL(8), L. MASCHIO(1,11), A. ERBA(1,11)  *
 *  M. RE'RAT(14), S. CASASSA(1,11)                                            *
 *                                                                             *
 *        CONTRIBUTIONS TO THE CODE HAVE ALSO BEEN GIVEN BY                    *
 *                                                                             *
 *  M. FERRABONE(1,11), M. DE LA PIERRE(1,11), M. FERRERO(1,11),               *
 *  J. BAIMA(1,11), E. ALBANESE(1,11), M.F. PEINTINGER(12), R. BAST(13),       *
 *  B. KIRTMAN(15), V. LACIVITA(1,11), R. DEMICHELIS(1,16)                     *
 *  G. BRANDEBURG(17), S. SALUSTRO(1,11), G. SANSONE(1,11)                     *
 *  M.T. RUGGIERO(18)                                                          *
 *                                                                             *
 * (1) THEORETICAL CHEMISTRY GROUP - UNIVERSITA' DI TORINO - TORINO (ITALY)    *
 * (2) COMPUTATIONAL SCIENCE & ENGINEERING DEPARTMENT - STFC DARESBURY (UK)    *
 * (3) UNIVERSIDAD AUTONOMA DEL ESTADO DE MORELOS - CUERNAVACA (MEXICO)        *
 * (4) UNIVERSITE' DE LORRAINE - NANCY (FRANCE)                                *
 * (5) UNIVERSITAET STUTTGART- STUTTGART (GERMANY)                             *
 * (6) IMPERIAL COLLEGE - LONDON (UK)                                          *
 * (7) OXFORD E-RESEARCH CENTRE - OXFORD (UK)                                  *
 * (8) UPMC - SORBONNE UNIVERSITES - PARIS (FRANCE)                            *
 * (9) UNIVERSIDAD DE BARCELONA - BARCELONA (SPAIN)                            *
 *(10) UNIVERSITA' DI NAPOLI "FEDERICO II" - NAPOLI (ITALY)                    *
 *(11) NIS - NANOSTRUCTURED INTERFACES AND SURFACES - TORINO (ITALY)           *
 *(12) MPI FUER CHEMISCHE ENERGIEKONVERSION - MUELHEIM AN DER RUHR (GERMANY)   *
 *(13) UNIVERSITY OF TROMSO - TROMSO (NORWAY)                                  *
 *(14) UNIVERSITE' DE PAU ET DES PAYS DE L'ADOUR - PAU (FRANCE)                *
 *(15) UNIVERSITY OF CALIFORNIA SANTA BARBARA - SANTA BARBARA (USA)            *
 *(16) CURTIN UNIVERSITY - PERTH (AUSTRALIA)                                   *
 *(17) UNIVERSITY COLLEGE LONDON - LONDON (UK)                                 *
 *(18) CAMBRIDGE UNIVERSITY - CAMBRIDGE (UK)                                   *
 *                                                                             *
 *******************************************************************************
 EEEEEEEEEE STARTING  DATE 19 11 2023 TIME 11:55:25.9
 C:\Users\wilso\AppData\Local\Temp\tmp_p\newconn.mol                             

 CRYSTAL CALCULATION
 (INPUT ACCORDING TO THE INTERNATIONAL TABLES FOR X-RAY CRYSTALLOGRAPHY)
 CRYSTAL FAMILY                       :  TETRAGONAL  
 CRYSTAL CLASS  (GROTH - 1921)        :  TETRAGONAL DISPHENOIDAL              

 SPACE GROUP (NONCENTROSYMMETRIC)     :  I -4            

 LATTICE PARAMETERS  (ANGSTROMS AND DEGREES) - CONVENTIONAL CELL
        A           B           C        ALPHA        BETA       GAMMA
    10.15800    10.15800    13.29400    90.00000    90.00000    90.00000


 NUMBER OF IRREDUCIBLE ATOMS IN THE CONVENTIONAL CELL:  124

 INPUT COORDINATES

 ATOM AT. N.              COORDINATES
   1   1     5.576100000000E-01  7.373700000000E-01  1.366700000000E-01
   2   1     4.423900000000E-01  2.626300000000E-01  1.366700000000E-01
   3   1     7.373700000000E-01  4.423900000000E-01  8.633300000000E-01
   4   1     2.626300000000E-01  5.576100000000E-01  8.633300000000E-01
   5   1     5.761000000000E-02  2.373700000000E-01  6.366700000000E-01
   6   1     9.423900000000E-01  7.626300000000E-01  6.366700000000E-01
   7   1     2.373700000000E-01  9.423900000000E-01  3.633300000000E-01
   8   1     7.626300000000E-01  5.761000000000E-02  3.633300000000E-01
   9  17     9.759200000000E-01  6.751900000000E-01  9.083000000000E-02
  10  17     2.408000000000E-02  3.248100000000E-01  9.083000000000E-02
  11  17     6.751900000000E-01  2.408000000000E-02  9.091700000000E-01
  12  17     3.248100000000E-01  9.759200000000E-01  9.091700000000E-01
  13  17     4.759200000000E-01  1.751900000000E-01  5.908300000000E-01
  14  17     5.240800000000E-01  8.248100000000E-01  5.908300000000E-01
  15  17     1.751900000000E-01  5.240800000000E-01  4.091700000000E-01
  16  17     8.248100000000E-01  4.759200000000E-01  4.091700000000E-01
  17  17     6.058200000000E-01  9.805800000000E-01  1.369900000000E-01
  18  17     3.941800000000E-01  1.942000000000E-02  1.369900000000E-01
  19  17     9.805800000000E-01  3.941800000000E-01  8.630100000000E-01
  20  17     1.942000000000E-02  6.058200000000E-01  8.630100000000E-01
  21  17     1.058200000000E-01  4.805800000000E-01  6.369900000000E-01
  22  17     8.941800000000E-01  5.194200000000E-01  6.369900000000E-01
  23  17     4.805800000000E-01  8.941800000000E-01  3.630100000000E-01
  24  17     5.194200000000E-01  1.058200000000E-01  3.630100000000E-01
  25   1     8.420800000000E-01  5.709000000000E-02  1.240200000000E-01
  26   1     1.579200000000E-01  9.429100000000E-01  1.240200000000E-01
  27   1     5.709000000000E-02  1.579200000000E-01  8.759800000000E-01
  28   1     9.429100000000E-01  8.420800000000E-01  8.759800000000E-01
  29   1     3.420800000000E-01  5.570900000000E-01  6.240200000000E-01
  30   1     6.579200000000E-01  4.429100000000E-01  6.240200000000E-01
  31   1     5.570900000000E-01  6.579200000000E-01  3.759800000000E-01
  32   1     4.429100000000E-01  3.420800000000E-01  3.759800000000E-01
  33   6     2.646500000000E-01  1.859800000000E-01  6.165500000000E-01
  34   6     7.353500000000E-01  8.140200000000E-01  6.165500000000E-01
  35   6     1.859800000000E-01  7.353500000000E-01  3.834500000000E-01
  36   6     8.140200000000E-01  2.646500000000E-01  3.834500000000E-01
  37   6     7.646500000000E-01  6.859800000000E-01  1.165500000000E-01
  38   6     2.353500000000E-01  3.140200000000E-01  1.165500000000E-01
  39   6     6.859800000000E-01  2.353500000000E-01  8.834500000000E-01
  40   6     3.140200000000E-01  7.646500000000E-01  8.834500000000E-01
  41   6     2.514000000000E-01  4.317000000000E-02  6.230000000000E-01
  42   6     7.486000000000E-01  9.568300000000E-01  6.230000000000E-01
  43   6     4.317000000000E-02  7.486000000000E-01  3.770000000000E-01
  44   6     9.568300000000E-01  2.514000000000E-01  3.770000000000E-01
  45   6     7.514000000000E-01  5.431700000000E-01  1.230000000000E-01
  46   6     2.486000000000E-01  4.568300000000E-01  1.230000000000E-01
  47   6     5.431700000000E-01  2.486000000000E-01  8.770000000000E-01
  48   6     4.568300000000E-01  7.514000000000E-01  8.770000000000E-01
  49   6     6.583700000000E-01  7.736700000000E-01  1.273400000000E-01
  50   6     3.416300000000E-01  2.263300000000E-01  1.273400000000E-01
  51   6     7.736700000000E-01  3.416300000000E-01  8.726600000000E-01
  52   6     2.263300000000E-01  6.583700000000E-01  8.726600000000E-01
  53   6     1.583700000000E-01  2.736700000000E-01  6.273400000000E-01
  54   6     8.416300000000E-01  7.263300000000E-01  6.273400000000E-01
  55   6     2.736700000000E-01  8.416300000000E-01  3.726600000000E-01
  56   6     7.263300000000E-01  1.583700000000E-01  3.726600000000E-01
  57   6     8.156900000000E-01  9.525900000000E-01  1.204300000000E-01
  58   6     1.843100000000E-01  4.741000000000E-02  1.204300000000E-01
  59   6     9.525900000000E-01  1.843100000000E-01  8.795700000000E-01
  60   6     4.741000000000E-02  8.156900000000E-01  8.795700000000E-01
  61   6     3.156900000000E-01  4.525900000000E-01  6.204300000000E-01
  62   6     6.843100000000E-01  5.474100000000E-01  6.204300000000E-01
  63   6     4.525900000000E-01  6.843100000000E-01  3.795700000000E-01
  64   6     5.474100000000E-01  3.156900000000E-01  3.795700000000E-01
  65   6     3.914300000000E-01  2.396500000000E-01  6.044300000000E-01
  66   6     6.085700000000E-01  7.603500000000E-01  6.044300000000E-01
  67   6     2.396500000000E-01  6.085700000000E-01  3.955700000000E-01
  68   6     7.603500000000E-01  3.914300000000E-01  3.955700000000E-01
  69   6     8.914300000000E-01  7.396500000000E-01  1.044300000000E-01
  70   6     1.085700000000E-01  2.603500000000E-01  1.044300000000E-01
  71   6     7.396500000000E-01  1.085700000000E-01  8.955700000000E-01
  72   6     2.603500000000E-01  8.914300000000E-01  8.955700000000E-01
  73   6     3.150000000000E-01  9.141000000000E-02  1.282200000000E-01
  74   6     6.850000000000E-01  9.085900000000E-01  1.282200000000E-01
  75   6     9.141000000000E-02  6.850000000000E-01  8.717800000000E-01
  76   6     9.085900000000E-01  3.150000000000E-01  8.717800000000E-01
  77   6     8.150000000000E-01  5.914100000000E-01  6.282200000000E-01
  78   6     1.850000000000E-01  4.085900000000E-01  6.282200000000E-01
  79   6     5.914100000000E-01  1.850000000000E-01  3.717800000000E-01
  80   6     4.085900000000E-01  8.150000000000E-01  3.717800000000E-01
  81   7     8.407700000000E-01  4.628300000000E-01  1.672900000000E-01
  82   7     1.592300000000E-01  5.371700000000E-01  1.672900000000E-01
  83   7     4.628300000000E-01  1.592300000000E-01  8.327100000000E-01
  84   7     5.371700000000E-01  8.407700000000E-01  8.327100000000E-01
  85   7     3.407700000000E-01  9.628300000000E-01  6.672900000000E-01
  86   7     6.592300000000E-01  3.717000000000E-02  6.672900000000E-01
  87   7     9.628300000000E-01  6.592300000000E-01  3.327100000000E-01
  88   7     3.717000000000E-02  3.407700000000E-01  3.327100000000E-01
  89   7     2.940400000000E-01  8.358500000000E-01  6.597700000000E-01
  90   7     7.059600000000E-01  1.641500000000E-01  6.597700000000E-01
  91   7     8.358500000000E-01  7.059600000000E-01  3.402300000000E-01
  92   7     1.641500000000E-01  2.940400000000E-01  3.402300000000E-01
  93   7     7.940400000000E-01  3.358500000000E-01  1.597700000000E-01
  94   7     2.059600000000E-01  6.641500000000E-01  1.597700000000E-01
  95   7     3.358500000000E-01  2.059600000000E-01  8.402300000000E-01
  96   7     6.641500000000E-01  7.940400000000E-01  8.402300000000E-01
  97   7     1.518600000000E-01  9.677900000000E-01  5.884000000000E-01
  98   7     8.481400000000E-01  3.221000000000E-02  5.884000000000E-01
  99   7     9.677900000000E-01  8.481400000000E-01  4.116000000000E-01
 100   7     3.221000000000E-02  1.518600000000E-01  4.116000000000E-01
 101   7     6.518600000000E-01  4.677900000000E-01  8.840000000000E-02
 102   7     3.481400000000E-01  5.322100000000E-01  8.840000000000E-02
 103   7     4.677900000000E-01  3.481400000000E-01  9.116000000000E-01
 104   7     5.322100000000E-01  6.518600000000E-01  9.116000000000E-01
 105   7     1.800200000000E-01  8.388700000000E-01  6.128200000000E-01
 106   7     8.199800000000E-01  1.611300000000E-01  6.128200000000E-01
 107   7     8.388700000000E-01  8.199800000000E-01  3.871800000000E-01
 108   7     1.611300000000E-01  1.800200000000E-01  3.871800000000E-01
 109   7     6.800200000000E-01  3.388700000000E-01  1.128200000000E-01
 110   7     3.199800000000E-01  6.611300000000E-01  1.128200000000E-01
 111   7     3.388700000000E-01  3.199800000000E-01  8.871800000000E-01
 112   7     6.611300000000E-01  6.800200000000E-01  8.871800000000E-01
 113   7     9.174200000000E-01  8.687700000000E-01  1.079100000000E-01
 114   7     8.258000000000E-02  1.312300000000E-01  1.079100000000E-01
 115   7     8.687700000000E-01  8.258000000000E-02  8.920900000000E-01
 116   7     1.312300000000E-01  9.174200000000E-01  8.920900000000E-01
 117   7     4.174200000000E-01  3.687700000000E-01  6.079100000000E-01
 118   7     5.825800000000E-01  6.312300000000E-01  6.079100000000E-01
 119   7     3.687700000000E-01  5.825800000000E-01  3.920900000000E-01
 120   7     6.312300000000E-01  4.174200000000E-01  3.920900000000E-01
 121  30     0.000000000000E+00  5.000000000000E-01  2.500000000000E-01
 122  30     5.000000000000E-01  0.000000000000E+00  7.500000000000E-01
 123  30     0.000000000000E+00  0.000000000000E+00  5.000000000000E-01
 124  30     5.000000000000E-01  5.000000000000E-01  0.000000000000E+00

 *******************************************************************************

 << INFORMATION >>: FROM NOW ON, ALL COORDINATES REFER TO THE PRIMITIVE CELL

 *******************************************************************************

 LATTICE PARAMETERS  (ANGSTROMS AND DEGREES) - PRIMITIVE CELL
       A          B          C        ALPHA      BETA     GAMMA        VOLUME
    9.78647    9.78647    9.78647   117.47208 117.47208  94.43726    685.870456

 INPUT LIST - ATOM N.   2 NOT IRREDUCIBLE

 INPUT LIST - ATOM N.   3 NOT IRREDUCIBLE

 INPUT LIST - ATOM N.   4 NOT IRREDUCIBLE

 INPUT LIST - ATOM N.   1 NOT IRREDUCIBLE

 INPUT LIST - ATOM N.   2 NOT IRREDUCIBLE

 INPUT LIST - ATOM N.   3 NOT IRREDUCIBLE

 INPUT LIST - ATOM N.   4 NOT IRREDUCIBLE

 INPUT LIST - ATOM N.   6 NOT IRREDUCIBLE

 INPUT LIST - ATOM N.   7 NOT IRREDUCIBLE

 INPUT LIST - ATOM N.   8 NOT IRREDUCIBLE

 INPUT LIST - ATOM N.   5 NOT IRREDUCIBLE

 INPUT LIST - ATOM N.   6 NOT IRREDUCIBLE

 INPUT LIST - ATOM N.   7 NOT IRREDUCIBLE

 INPUT LIST - ATOM N.   8 NOT IRREDUCIBLE

 INPUT LIST - ATOM N.  10 NOT IRREDUCIBLE

 INPUT LIST - ATOM N.  11 NOT IRREDUCIBLE

 INPUT LIST - ATOM N.  12 NOT IRREDUCIBLE

 INPUT LIST - ATOM N.   9 NOT IRREDUCIBLE

 INPUT LIST - ATOM N.  10 NOT IRREDUCIBLE

 INPUT LIST - ATOM N.  11 NOT IRREDUCIBLE

 INPUT LIST - ATOM N.  12 NOT IRREDUCIBLE

 INPUT LIST - ATOM N.  14 NOT IRREDUCIBLE

 INPUT LIST - ATOM N.  15 NOT IRREDUCIBLE

 INPUT LIST - ATOM N.  16 NOT IRREDUCIBLE

 INPUT LIST - ATOM N.  13 NOT IRREDUCIBLE

 INPUT LIST - ATOM N.  14 NOT IRREDUCIBLE

 INPUT LIST - ATOM N.  15 NOT IRREDUCIBLE

 INPUT LIST - ATOM N.  16 NOT IRREDUCIBLE

 INPUT LIST - ATOM N.  18 NOT IRREDUCIBLE

 INPUT LIST - ATOM N.  19 NOT IRREDUCIBLE

 INPUT LIST - ATOM N.  20 NOT IRREDUCIBLE

 INPUT LIST - ATOM N.  17 NOT IRREDUCIBLE

 INPUT LIST - ATOM N.  18 NOT IRREDUCIBLE

 INPUT LIST - ATOM N.  19 NOT IRREDUCIBLE

 INPUT LIST - ATOM N.  20 NOT IRREDUCIBLE

 INPUT LIST - ATOM N.  22 NOT IRREDUCIBLE

 INPUT LIST - ATOM N.  23 NOT IRREDUCIBLE

 INPUT LIST - ATOM N.  24 NOT IRREDUCIBLE

 INPUT LIST - ATOM N.  21 NOT IRREDUCIBLE

 INPUT LIST - ATOM N.  22 NOT IRREDUCIBLE

 INPUT LIST - ATOM N.  23 NOT IRREDUCIBLE

 INPUT LIST - ATOM N.  24 NOT IRREDUCIBLE

 INPUT LIST - ATOM N.  26 NOT IRREDUCIBLE

 INPUT LIST - ATOM N.  27 NOT IRREDUCIBLE

 INPUT LIST - ATOM N.  28 NOT IRREDUCIBLE

 INPUT LIST - ATOM N.  25 NOT IRREDUCIBLE

 INPUT LIST - ATOM N.  26 NOT IRREDUCIBLE

 INPUT LIST - ATOM N.  27 NOT IRREDUCIBLE

 INPUT LIST - ATOM N.  28 NOT IRREDUCIBLE

 INPUT LIST - ATOM N.  30 NOT IRREDUCIBLE

 INPUT LIST - ATOM N.  31 NOT IRREDUCIBLE

 INPUT LIST - ATOM N.  32 NOT IRREDUCIBLE

 INPUT LIST - ATOM N.  29 NOT IRREDUCIBLE

 INPUT LIST - ATOM N.  30 NOT IRREDUCIBLE

 INPUT LIST - ATOM N.  31 NOT IRREDUCIBLE

 INPUT LIST - ATOM N.  32 NOT IRREDUCIBLE

 INPUT LIST - ATOM N.  34 NOT IRREDUCIBLE

 INPUT LIST - ATOM N.  35 NOT IRREDUCIBLE

 INPUT LIST - ATOM N.  36 NOT IRREDUCIBLE

 INPUT LIST - ATOM N.  33 NOT IRREDUCIBLE

 INPUT LIST - ATOM N.  34 NOT IRREDUCIBLE

 INPUT LIST - ATOM N.  35 NOT IRREDUCIBLE

 INPUT LIST - ATOM N.  36 NOT IRREDUCIBLE

 INPUT LIST - ATOM N.  38 NOT IRREDUCIBLE

 INPUT LIST - ATOM N.  39 NOT IRREDUCIBLE

 INPUT LIST - ATOM N.  40 NOT IRREDUCIBLE

 INPUT LIST - ATOM N.  37 NOT IRREDUCIBLE

 INPUT LIST - ATOM N.  38 NOT IRREDUCIBLE

 INPUT LIST - ATOM N.  39 NOT IRREDUCIBLE

 INPUT LIST - ATOM N.  40 NOT IRREDUCIBLE

 INPUT LIST - ATOM N.  42 NOT IRREDUCIBLE

 INPUT LIST - ATOM N.  43 NOT IRREDUCIBLE

 INPUT LIST - ATOM N.  44 NOT IRREDUCIBLE

 INPUT LIST - ATOM N.  41 NOT IRREDUCIBLE

 INPUT LIST - ATOM N.  42 NOT IRREDUCIBLE

 INPUT LIST - ATOM N.  43 NOT IRREDUCIBLE

 INPUT LIST - ATOM N.  44 NOT IRREDUCIBLE

 INPUT LIST - ATOM N.  46 NOT IRREDUCIBLE

 INPUT LIST - ATOM N.  47 NOT IRREDUCIBLE

 INPUT LIST - ATOM N.  48 NOT IRREDUCIBLE

 INPUT LIST - ATOM N.  45 NOT IRREDUCIBLE

 INPUT LIST - ATOM N.  46 NOT IRREDUCIBLE

 INPUT LIST - ATOM N.  47 NOT IRREDUCIBLE

 INPUT LIST - ATOM N.  48 NOT IRREDUCIBLE

 INPUT LIST - ATOM N.  50 NOT IRREDUCIBLE

 INPUT LIST - ATOM N.  51 NOT IRREDUCIBLE

 INPUT LIST - ATOM N.  52 NOT IRREDUCIBLE

 INPUT LIST - ATOM N.  49 NOT IRREDUCIBLE

 INPUT LIST - ATOM N.  50 NOT IRREDUCIBLE

 INPUT LIST - ATOM N.  51 NOT IRREDUCIBLE

 INPUT LIST - ATOM N.  52 NOT IRREDUCIBLE

 INPUT LIST - ATOM N.  54 NOT IRREDUCIBLE

 INPUT LIST - ATOM N.  55 NOT IRREDUCIBLE

 INPUT LIST - ATOM N.  56 NOT IRREDUCIBLE

 INPUT LIST - ATOM N.  53 NOT IRREDUCIBLE

 INPUT LIST - ATOM N.  54 NOT IRREDUCIBLE

 INPUT LIST - ATOM N.  55 NOT IRREDUCIBLE

 INPUT LIST - ATOM N.  56 NOT IRREDUCIBLE

 INPUT LIST - ATOM N.  58 NOT IRREDUCIBLE

 INPUT LIST - ATOM N.  59 NOT IRREDUCIBLE

 INPUT LIST - ATOM N.  60 NOT IRREDUCIBLE

 INPUT LIST - ATOM N.  57 NOT IRREDUCIBLE

 INPUT LIST - ATOM N.  58 NOT IRREDUCIBLE

 INPUT LIST - ATOM N.  59 NOT IRREDUCIBLE

 INPUT LIST - ATOM N.  60 NOT IRREDUCIBLE

 INPUT LIST - ATOM N.  61 NOT IRREDUCIBLE

 INPUT LIST - ATOM N.  62 NOT IRREDUCIBLE

 COORDINATES OF THE EQUIVALENT ATOMS (FRACTIONAL UNITS)

 N. ATOM EQUIV AT. N.          X                  Y                  Z

   1   1   1    1 H    -1.25960000000E-01 -3.05720000000E-01  2.94980000000E-01
   2   1   2    1 H     3.99300000000E-01 -4.20940000000E-01 -2.94980000000E-01
   3   1   3    1 H     3.05720000000E-01 -3.99300000000E-01  1.79760000000E-01
   4   1   4    1 H     4.20940000000E-01  1.25960000000E-01 -1.79760000000E-01








   5   9   1   17 CL   -2.33980000000E-01  6.67500000000E-02 -3.48890000000E-01
   6   9   2   17 CL    4.15640000000E-01  1.14910000000E-01  3.48890000000E-01
   7   9   3   17 CL   -6.67500000000E-02 -4.15640000000E-01 -3.00730000000E-01
   8   9   4   17 CL   -1.14910000000E-01  2.33980000000E-01  3.00730000000E-01








   9  17   1   17 CL    1.17570000000E-01 -2.57190000000E-01 -4.13600000000E-01
  10  17   2   17 CL    1.56410000000E-01 -4.68830000000E-01  4.13600000000E-01
  11  17   3   17 CL    2.57190000000E-01 -1.56410000000E-01  3.74760000000E-01
  12  17   4   17 CL    4.68830000000E-01 -1.17570000000E-01 -3.74760000000E-01

 NUMBER OF SYMMETRY OPERATORS         :    4
 *******************************************************************************
 * GEOMETRY EDITING - INPUT COORDINATES ARE GIVEN IN ANGSTROM         
 *******************************************************************************

 GEOMETRY NOW FULLY CONSISTENT WITH THE GROUP
 *******************************************************************************
 *  GEOMETRY EDITING
 *  THE SYMMETRY OF THE CRYSTAL IS KEPT AND APPLIED TO THE PERTURBATION
 *******************************************************************************
 INFORMATION **** NEW DEFAULT **** FINALRUN 4 FOR GEOMETRY OPTIMIZATIONS
 INFORMATION **** NEW DEFAULT **** OPTGEOM OPTIMIZES BOTH ATOMIC COORDINATES AND CELL PARAMETERS
 INFORMATION **** NEW DEFAULT **** TOL. ON ATOMIC DISP TO REDEFINE REF. GEOMETRY: 0.8 Angs
 INFORMATION **** NEW DEFAULT **** N POINTS TO REDEFINE REF. GEOMETRY: N OF OPT DEGS OF FREEDOM
 INFORMATION **** NEW DEFAULT **** TOL. ON ENERGY TO REDEFINE REF. GEOMETRY: 10**-3*(5*N. ATOMS)

 IMPORTANT INFORMATION:
 THE COORDINATE SYSTEM ADOPTED IN THE OPTIMIZATION IS NOT IN
 GENERAL HOMOGENEOUS UNITS. FOR THIS REASON THE GRADIENT AND 
 HESSIAN MATRIX IN TERMS OF THIS SYSTEM ARE GIVEN WITHOUT
 UNITS. FOR MORE DETAILS SEE THE MANUAL.

 *******************************************************************************
 COMBINED CELL/ATOM OPTIMIZATION CONTROL

 INITIAL TRUST RADIUS         0.50000 MAXIMUM TRUST RADIUS               4.00000
 MAXIMUM GRADIENT COMPONENT   0.00045 MAXIMUM DISPLACEMENT COMPONENT     0.00180
 R.M.S. OF GRADIENT COMPONENT 0.00030 R.M.S. OF DISPLACEMENT COMPONENTS  0.00120
 THRESHOLD ON ENERGY CHANGE 0.100E-06 EXTRAPOLATING POLYNOMIAL ORDER           2
 MAXIMUM ALLOWED NUMBER OF STEPS   -1 SORTING OF ENERGY POINTS:               NO
 ANALYTICAL  GRADIENT                 HESSIAN UPDATING                      BFGS
 STEP SIZE NUMERICAL GRADIENT 0.00100
 INITIAL HESSIAN MATRIX: SCHLEGEL MODEL 2
 *******************************************************************************


 GCALCO - MAX INDICES DIRECT LATTICE VECTOR    14    14    16
 NO.OF VECTORS CREATED 6999 STARS  481 RMAX   197.96270 BOHR

 GEOMETRY FOR WAVE FUNCTION - DIMENSIONALITY OF THE SYSTEM    3
 (NON PERIODIC DIRECTION: LATTICE PARAMETER FORMALLY SET TO 500)
 *******************************************************************************
 LATTICE PARAMETERS (ANGSTROMS AND DEGREES) - BOHR = 0.5291772083 ANGSTROM
 PRIMITIVE CELL - CENTRING CODE 6/0 VOLUME=   685.870456 - DENSITY  2.382 g/cm^3
         A              B              C           ALPHA      BETA       GAMMA 
     9.78647490     9.78647490     9.78647490   117.472078 117.472078  94.437262
 *******************************************************************************
 ATOMS IN THE ASYMMETRIC UNIT   17 - ATOMS IN THE UNIT CELL:   62
     ATOM                 X/A                 Y/B                 Z/C    
 *******************************************************************************
      1 T   1 H    -1.259600000000E-01 -3.057200000000E-01  2.949800000000E-01
      2 F   1 H     3.993000000000E-01 -4.209400000000E-01 -2.949800000000E-01
      3 F   1 H     3.057200000000E-01 -3.993000000000E-01  1.797600000000E-01
      4 F   1 H     4.209400000000E-01  1.259600000000E-01 -1.797600000000E-01
      5 T  17 CL   -2.339800000000E-01  6.675000000000E-02 -3.488900000000E-01
      6 F  17 CL    4.156400000000E-01  1.149100000000E-01  3.488900000000E-01
      7 F  17 CL   -6.675000000000E-02 -4.156400000000E-01 -3.007300000000E-01
      8 F  17 CL   -1.149100000000E-01  2.339800000000E-01  3.007300000000E-01
      9 T  17 CL    1.175700000000E-01 -2.571900000000E-01 -4.136000000000E-01
     10 F  17 CL    1.564100000000E-01 -4.688300000000E-01  4.136000000000E-01
     11 F  17 CL    2.571900000000E-01 -1.564100000000E-01  3.747600000000E-01
     12 F  17 CL    4.688300000000E-01 -1.175700000000E-01 -3.747600000000E-01
     13 T   1 H     1.811100000000E-01 -3.390000000000E-02 -1.008300000000E-01
     14 F   1 H     6.693000000000E-02  2.819400000000E-01  1.008300000000E-01
     15 F   1 H     3.390000000000E-02 -6.693000000000E-02  2.150100000000E-01
     16 F   1 H    -2.819400000000E-01 -1.811100000000E-01 -2.150100000000E-01
     17 T   6 C    -1.974700000000E-01 -1.188000000000E-01  4.506300000000E-01
     18 F   6 C     4.305700000000E-01  3.519000000000E-01 -4.506300000000E-01
     19 F   6 C     1.188000000000E-01 -4.305700000000E-01 -7.867000000000E-02
     20 F   6 C    -3.519000000000E-01  1.974700000000E-01  7.867000000000E-02
     21 T   6 C    -3.338300000000E-01 -1.256000000000E-01  2.945700000000E-01
     22 F   6 C    -4.201700000000E-01  3.716000000000E-01 -2.945700000000E-01
     23 F   6 C     1.256000000000E-01  4.201700000000E-01 -2.082300000000E-01
     24 F   6 C    -3.716000000000E-01  3.338300000000E-01  2.082300000000E-01
     25 T   6 C    -9.899000000000E-02 -2.142900000000E-01  4.320400000000E-01
     26 F   6 C     3.536700000000E-01  4.689700000000E-01 -4.320400000000E-01
     27 F   6 C     2.142900000000E-01 -3.536700000000E-01  1.153000000000E-01
     28 F   6 C    -4.689700000000E-01  9.899000000000E-02 -1.153000000000E-01
     29 T   6 C     7.302000000000E-02 -6.388000000000E-02 -2.317200000000E-01
     30 F   6 C     1.678400000000E-01  3.047400000000E-01  2.317200000000E-01
     31 F   6 C     6.388000000000E-02 -1.678400000000E-01  1.369000000000E-01
     32 F   6 C    -3.047400000000E-01 -7.302000000000E-02 -1.369000000000E-01
     33 T   6 C    -1.559200000000E-01 -4.140000000000E-03 -3.689200000000E-01
     34 F   6 C     3.647800000000E-01  2.130000000000E-01  3.689200000000E-01
     35 F   6 C     4.140000000000E-03 -3.647800000000E-01 -1.517800000000E-01
     36 F   6 C    -2.130000000000E-01  1.559200000000E-01  1.517800000000E-01
     37 T   6 C     2.196300000000E-01  4.432200000000E-01  4.064100000000E-01
     38 F   6 C     3.681000000000E-02 -1.867800000000E-01 -4.064100000000E-01
     39 F   6 C    -4.432200000000E-01 -3.681000000000E-02 -2.235900000000E-01
     40 F   6 C     1.867800000000E-01 -2.196300000000E-01  2.235900000000E-01
     41 T   7 N    -3.698800000000E-01  8.060000000000E-03  3.036000000000E-01
     42 F   7 N    -2.955400000000E-01  3.265200000000E-01 -3.036000000000E-01
     43 F   7 N    -8.060000000000E-03  2.955400000000E-01 -3.779400000000E-01
     44 F   7 N    -3.265200000000E-01  3.698800000000E-01  3.779400000000E-01
     45 T   7 N     4.956200000000E-01 -4.619000000000E-02  1.298900000000E-01
     46 F   7 N    -1.760800000000E-01  3.657300000000E-01 -1.298900000000E-01
     47 F   7 N     4.619000000000E-02  1.760800000000E-01 -4.581900000000E-01
     48 F   7 N    -3.657300000000E-01 -4.956200000000E-01  4.581900000000E-01
     49 T   7 N    -4.438100000000E-01 -2.597400000000E-01  1.196500000000E-01
     50 F   7 N    -3.793900000000E-01  4.365400000000E-01 -1.196500000000E-01
     51 F   7 N     2.597400000000E-01  3.793900000000E-01 -1.840700000000E-01
     52 F   7 N    -4.365400000000E-01  4.438100000000E-01  1.840700000000E-01
     53 T   7 N     4.516900000000E-01 -2.071600000000E-01  1.889000000000E-02
     54 F   7 N    -2.260500000000E-01  4.328000000000E-01 -1.889000000000E-02
     55 F   7 N     2.071600000000E-01  2.260500000000E-01 -3.411500000000E-01
     56 F   7 N    -4.328000000000E-01 -4.516900000000E-01  3.411500000000E-01
     57 T   7 N    -2.332000000000E-02  2.533000000000E-02 -2.138100000000E-01
     58 F   7 N     2.391400000000E-01  1.904900000000E-01  2.138100000000E-01
     59 F   7 N    -2.533000000000E-02 -2.391400000000E-01 -4.865000000000E-02
     60 F   7 N    -1.904900000000E-01  2.332000000000E-02  4.865000000000E-02
     61 T  30 ZN   -2.500000000000E-01  2.500000000000E-01  5.000000000000E-01
     62 T  30 ZN   -5.000000000000E-01  5.000000000000E-01  0.000000000000E+00

 TRANSFORMATION MATRIX PRIMITIVE-CRYSTALLOGRAPHIC CELL
  0.0000  1.0000  1.0000  1.0000  0.0000  1.0000  1.0000  1.0000  0.0000

 *******************************************************************************
 CRYSTALLOGRAPHIC CELL (VOLUME=       1371.74091142)
         A              B              C           ALPHA      BETA       GAMMA 
    10.15800000    10.15800000    13.29400000    90.000000  90.000000  90.000000

 COORDINATES IN THE CRYSTALLOGRAPHIC CELL
     ATOM                 X/A                 Y/B                 Z/C    
 *******************************************************************************
      1 T   1 H     5.761000000000E-02  2.373700000000E-01 -3.633300000000E-01
      2 F   1 H    -5.761000000000E-02 -2.373700000000E-01 -3.633300000000E-01
      3 F   1 H     2.373700000000E-01 -5.761000000000E-02  3.633300000000E-01
      4 F   1 H    -2.373700000000E-01  5.761000000000E-02  3.633300000000E-01
      5 T  17 CL   -2.408000000000E-02 -3.248100000000E-01  9.083000000000E-02
      6 F  17 CL    2.408000000000E-02  3.248100000000E-01  9.083000000000E-02
      7 F  17 CL   -3.248100000000E-01  2.408000000000E-02 -9.083000000000E-02
      8 F  17 CL    3.248100000000E-01 -2.408000000000E-02 -9.083000000000E-02
      9 T  17 CL   -3.941800000000E-01 -1.942000000000E-02  1.369900000000E-01
     10 F  17 CL    3.941800000000E-01  1.942000000000E-02  1.369900000000E-01
     11 F  17 CL   -1.942000000000E-02  3.941800000000E-01 -1.369900000000E-01
     12 F  17 CL    1.942000000000E-02 -3.941800000000E-01 -1.369900000000E-01
     13 T   1 H    -1.579200000000E-01  5.709000000000E-02  1.240200000000E-01
     14 F   1 H     1.579200000000E-01 -5.709000000000E-02  1.240200000000E-01
     15 F   1 H     5.709000000000E-02  1.579200000000E-01 -1.240200000000E-01
     16 F   1 H    -5.709000000000E-02 -1.579200000000E-01 -1.240200000000E-01
     17 T   6 C    -2.353500000000E-01 -3.140200000000E-01  1.165500000000E-01
     18 F   6 C     2.353500000000E-01  3.140200000000E-01  1.165500000000E-01
     19 F   6 C    -3.140200000000E-01  2.353500000000E-01 -1.165500000000E-01
     20 F   6 C     3.140200000000E-01 -2.353500000000E-01 -1.165500000000E-01
     21 T   6 C    -2.486000000000E-01 -4.568300000000E-01  1.230000000000E-01
     22 F   6 C     2.486000000000E-01  4.568300000000E-01  1.230000000000E-01
     23 F   6 C    -4.568300000000E-01  2.486000000000E-01 -1.230000000000E-01
     24 F   6 C     4.568300000000E-01 -2.486000000000E-01 -1.230000000000E-01
     25 T   6 C    -3.416300000000E-01 -2.263300000000E-01  1.273400000000E-01
     26 F   6 C     3.416300000000E-01  2.263300000000E-01  1.273400000000E-01
     27 F   6 C    -2.263300000000E-01  3.416300000000E-01 -1.273400000000E-01
     28 F   6 C     2.263300000000E-01 -3.416300000000E-01 -1.273400000000E-01
     29 T   6 C    -1.843100000000E-01 -4.741000000000E-02  1.204300000000E-01
     30 F   6 C     1.843100000000E-01  4.741000000000E-02  1.204300000000E-01
     31 F   6 C    -4.741000000000E-02  1.843100000000E-01 -1.204300000000E-01
     32 F   6 C     4.741000000000E-02 -1.843100000000E-01 -1.204300000000E-01
     33 T   6 C    -1.085700000000E-01 -2.603500000000E-01  1.044300000000E-01
     34 F   6 C     1.085700000000E-01  2.603500000000E-01  1.044300000000E-01
     35 F   6 C    -2.603500000000E-01  1.085700000000E-01 -1.044300000000E-01
     36 F   6 C     2.603500000000E-01 -1.085700000000E-01 -1.044300000000E-01
     37 T   6 C     3.150000000000E-01  9.141000000000E-02  1.282200000000E-01
     38 F   6 C    -3.150000000000E-01 -9.141000000000E-02  1.282200000000E-01
     39 F   6 C     9.141000000000E-02 -3.150000000000E-01 -1.282200000000E-01
     40 F   6 C    -9.141000000000E-02  3.150000000000E-01 -1.282200000000E-01
     41 T   7 N    -1.592300000000E-01  4.628300000000E-01  1.672900000000E-01
     42 F   7 N     1.592300000000E-01 -4.628300000000E-01  1.672900000000E-01
     43 F   7 N     4.628300000000E-01  1.592300000000E-01 -1.672900000000E-01
     44 F   7 N    -4.628300000000E-01 -1.592300000000E-01 -1.672900000000E-01
     45 T   7 N    -2.059600000000E-01  3.358500000000E-01  1.597700000000E-01
     46 F   7 N     2.059600000000E-01 -3.358500000000E-01  1.597700000000E-01
     47 F   7 N     3.358500000000E-01  2.059600000000E-01 -1.597700000000E-01
     48 F   7 N    -3.358500000000E-01 -2.059600000000E-01 -1.597700000000E-01
     49 T   7 N     1.518600000000E-01 -3.221000000000E-02 -4.116000000000E-01
     50 F   7 N    -1.518600000000E-01  3.221000000000E-02 -4.116000000000E-01
     51 F   7 N    -3.221000000000E-02 -1.518600000000E-01  4.116000000000E-01
     52 F   7 N     3.221000000000E-02  1.518600000000E-01  4.116000000000E-01
     53 T   7 N    -3.199800000000E-01  3.388700000000E-01  1.128200000000E-01
     54 F   7 N     3.199800000000E-01 -3.388700000000E-01  1.128200000000E-01
     55 F   7 N     3.388700000000E-01  3.199800000000E-01 -1.128200000000E-01
     56 F   7 N    -3.388700000000E-01 -3.199800000000E-01 -1.128200000000E-01
     57 T   7 N    -8.258000000000E-02 -1.312300000000E-01  1.079100000000E-01
     58 F   7 N     8.258000000000E-02  1.312300000000E-01  1.079100000000E-01
     59 F   7 N    -1.312300000000E-01  8.258000000000E-02 -1.079100000000E-01
     60 F   7 N     1.312300000000E-01 -8.258000000000E-02 -1.079100000000E-01
     61 T  30 ZN    4.626932236752E-17  5.000000000000E-01  2.500000000000E-01
     62 T  30 ZN    0.000000000000E+00  0.000000000000E+00  5.000000000000E-01

 T = ATOM BELONGING TO THE ASYMMETRIC UNIT

 ****    4 SYMMOPS - TRANSLATORS IN FRACTIONAL UNITS
 **** MATRICES AND TRANSLATORS IN THE CRYSTALLOGRAPHIC REFERENCE FRAME
   V INV                    ROTATION MATRICES                   TRANSLATORS
   1   1  1.00  0.00  0.00  0.00  1.00  0.00  0.00  0.00  1.00  0.00  0.00  0.00
   2   2  0.00  1.00 -1.00  1.00 -0.00 -1.00 -0.00  0.00 -1.00  0.00  0.00  0.00
   3   4 -0.00 -1.00  0.00  0.00 -1.00  1.00  1.00 -1.00  0.00  0.00  0.00  0.00
   4   3 -1.00 -0.00  1.00 -1.00  0.00 -0.00 -1.00  1.00 -0.00  0.00  0.00  0.00

 DIRECT LATTICE VECTORS CARTESIAN COMPONENTS (ANGSTROM)
          X                    Y                    Z
  -0.507900000000E+01   0.507900000000E+01   0.664700000000E+01
   0.507900000000E+01  -0.507900000000E+01   0.664700000000E+01
   0.507900000000E+01   0.507900000000E+01  -0.664700000000E+01


 CARTESIAN COORDINATES - PRIMITIVE CELL
 *******************************************************************************
 *      ATOM          X(ANGSTROM)         Y(ANGSTROM)         Z(ANGSTROM)
 *******************************************************************************
    1     1 H     5.852023800000E-01  2.411204460000E+00 -4.830109020000E+00
    2     1 H    -5.852023800000E-01 -2.411204460000E+00 -4.830109020000E+00
    3     1 H     2.411204460000E+00 -5.852023800000E-01  4.830109020000E+00
    4     1 H    -2.411204460000E+00  5.852023800000E-01  4.830109020000E+00
    5    17 CL   -2.446046400000E-01 -3.299419980000E+00  1.207494020000E+00
    6    17 CL    2.446046400000E-01  3.299419980000E+00  1.207494020000E+00
    7    17 CL   -3.299419980000E+00  2.446046400000E-01 -1.207494020000E+00
    8    17 CL    3.299419980000E+00 -2.446046400000E-01 -1.207494020000E+00
    9    17 CL   -4.004080440000E+00 -1.972683600000E-01  1.821145060000E+00
   10    17 CL    4.004080440000E+00  1.972683600000E-01  1.821145060000E+00
   11    17 CL   -1.972683600000E-01  4.004080440000E+00 -1.821145060000E+00
   12    17 CL    1.972683600000E-01 -4.004080440000E+00 -1.821145060000E+00
   13     1 H    -1.604151360000E+00  5.799202200000E-01  1.648721880000E+00
   14     1 H     1.604151360000E+00 -5.799202200000E-01  1.648721880000E+00
   15     1 H     5.799202200000E-01  1.604151360000E+00 -1.648721880000E+00
   16     1 H    -5.799202200000E-01 -1.604151360000E+00 -1.648721880000E+00
   17     6 C    -2.390685300000E+00 -3.189815160000E+00  1.549415700000E+00
   18     6 C     2.390685300000E+00  3.189815160000E+00  1.549415700000E+00
   19     6 C    -3.189815160000E+00  2.390685300000E+00 -1.549415700000E+00
   20     6 C     3.189815160000E+00 -2.390685300000E+00 -1.549415700000E+00
   21     6 C    -2.525278800000E+00 -4.640479140000E+00  1.635162000000E+00
   22     6 C     2.525278800000E+00  4.640479140000E+00  1.635162000000E+00
   23     6 C    -4.640479140000E+00  2.525278800000E+00 -1.635162000000E+00
   24     6 C     4.640479140000E+00 -2.525278800000E+00 -1.635162000000E+00
   25     6 C    -3.470277540000E+00 -2.299060140000E+00  1.692857960000E+00
   26     6 C     3.470277540000E+00  2.299060140000E+00  1.692857960000E+00
   27     6 C    -2.299060140000E+00  3.470277540000E+00 -1.692857960000E+00
   28     6 C     2.299060140000E+00 -3.470277540000E+00 -1.692857960000E+00
   29     6 C    -1.872220980000E+00 -4.815907800000E-01  1.600996420000E+00
   30     6 C     1.872220980000E+00  4.815907800000E-01  1.600996420000E+00
   31     6 C    -4.815907800000E-01  1.872220980000E+00 -1.600996420000E+00
   32     6 C     4.815907800000E-01 -1.872220980000E+00 -1.600996420000E+00
   33     6 C    -1.102854060000E+00 -2.644635300000E+00  1.388292420000E+00
   34     6 C     1.102854060000E+00  2.644635300000E+00  1.388292420000E+00
   35     6 C    -2.644635300000E+00  1.102854060000E+00 -1.388292420000E+00
   36     6 C     2.644635300000E+00 -1.102854060000E+00 -1.388292420000E+00
   37     6 C     3.199770000000E+00  9.285427800000E-01  1.704556680000E+00
   38     6 C    -3.199770000000E+00 -9.285427800000E-01  1.704556680000E+00
   39     6 C     9.285427800000E-01 -3.199770000000E+00 -1.704556680000E+00
   40     6 C    -9.285427800000E-01  3.199770000000E+00 -1.704556680000E+00
   41     7 N    -1.617458340000E+00  4.701427140000E+00  2.223953260000E+00
   42     7 N     1.617458340000E+00 -4.701427140000E+00  2.223953260000E+00
   43     7 N     4.701427140000E+00  1.617458340000E+00 -2.223953260000E+00
   44     7 N    -4.701427140000E+00 -1.617458340000E+00 -2.223953260000E+00
   45     7 N    -2.092141680000E+00  3.411564300000E+00  2.123982380000E+00
   46     7 N     2.092141680000E+00 -3.411564300000E+00  2.123982380000E+00
   47     7 N     3.411564300000E+00  2.092141680000E+00 -2.123982380000E+00
   48     7 N    -3.411564300000E+00 -2.092141680000E+00 -2.123982380000E+00
   49     7 N     1.542593880000E+00 -3.271891800000E-01 -5.471810400000E+00
   50     7 N    -1.542593880000E+00  3.271891800000E-01 -5.471810400000E+00
   51     7 N    -3.271891800000E-01 -1.542593880000E+00  5.471810400000E+00
   52     7 N     3.271891800000E-01  1.542593880000E+00  5.471810400000E+00
   53     7 N    -3.250356840000E+00  3.442241460000E+00  1.499829080000E+00
   54     7 N     3.250356840000E+00 -3.442241460000E+00  1.499829080000E+00
   55     7 N     3.442241460000E+00  3.250356840000E+00 -1.499829080000E+00
   56     7 N    -3.442241460000E+00 -3.250356840000E+00 -1.499829080000E+00
   57     7 N    -8.388476400000E-01 -1.333034340000E+00  1.434555540000E+00
   58     7 N     8.388476400000E-01  1.333034340000E+00  1.434555540000E+00
   59     7 N    -1.333034340000E+00  8.388476400000E-01 -1.434555540000E+00
   60     7 N     1.333034340000E+00 -8.388476400000E-01 -1.434555540000E+00
   61    30 ZN    4.700037766092E-16  5.079000000000E+00 -9.970500000000E+00
   62    30 ZN    0.000000000000E+00  0.000000000000E+00  6.647000000000E+00

 *******************************************************************************
 STARTING BASIS SET HANDLING 
 *******************************************************************************

 Loading internal basis set: POB-DZVPP           

 Please cite in your publication:
 Peintinger, M. F., Oliveira, D. V. and Bredow, T. (2013), Generally applicable 
 solid-state Gaussian basis sets, in preparation                                
                                                                                
                    

 *******************************************************************************
 LOCAL ATOMIC FUNCTIONS BASIS SET
 *******************************************************************************
   ATOM   X(AU)   Y(AU)   Z(AU)  N. TYPE  EXPONENT  S COEF   P COEF   D/F/G COEF
 *******************************************************************************
   1 H    1.106   4.557  -9.128
                                  1 S  
                                         2.263E+01 1.441E-02 0.000E+00 0.000E+00
                                         3.236E+00 1.072E-01 0.000E+00 0.000E+00
                                         7.304E-01 3.846E-01 0.000E+00 0.000E+00
                                  2 S  
                                         1.417E-01 1.000E+00 0.000E+00 0.000E+00
                           3-     5 P  
                                         3.944E-01 0.000E+00 1.000E+00 0.000E+00
                           6-     8 P  
                                         1.006E-01 0.000E+00 1.000E+00 0.000E+00
   2 H   -1.106  -4.557  -9.128
   3 H    4.557  -1.106   9.128
   4 H   -4.557   1.106   9.128
   5 CL  -0.462  -6.235   2.282
                                 33 S  
                                         1.045E+04 1.971E-03 0.000E+00 0.000E+00
                                         1.572E+03 1.475E-02 0.000E+00 0.000E+00
                                         3.571E+02 6.668E-02 0.000E+00 0.000E+00
                                         1.003E+02 1.723E-01 0.000E+00 0.000E+00
                                         3.081E+01 1.588E-01 0.000E+00 0.000E+00
                                 34 S  
                                         5.192E+01-1.001E-01 0.000E+00 0.000E+00
                                         5.705E+00 6.084E-01 0.000E+00 0.000E+00
                                         2.351E+00 5.435E-01 0.000E+00 0.000E+00
                                 35 S  
                                         4.886E-01 1.000E+00 0.000E+00 0.000E+00
                                 36 S  
                                         1.984E-01 1.000E+00 0.000E+00 0.000E+00
                          37-    39 P  
                                         3.077E+02 0.000E+00-8.780E-03 0.000E+00
                                         7.210E+01 0.000E+00-6.356E-02 0.000E+00
                                         2.253E+01 0.000E+00-2.402E-01 0.000E+00
                                         7.899E+00 0.000E+00-4.780E-01 0.000E+00
                                         2.877E+00 0.000E+00-3.852E-01 0.000E+00
                          40-    42 P  
                                         9.483E-01 0.000E+00 1.000E+00 0.000E+00
                          43-    45 P  
                                         2.521E-01 0.000E+00 1.000E+00 0.000E+00
                          46-    50 D  
                                         9.722E-01 0.000E+00 0.000E+00 1.000E+00
                          51-    55 D  
                                         2.060E-01 0.000E+00 0.000E+00 1.000E+00
   6 CL   0.462   6.235   2.282
   7 CL  -6.235   0.462  -2.282
   8 CL   6.235  -0.462  -2.282
   9 CL  -7.567  -0.373   3.441
  10 CL   7.567   0.373   3.441
  11 CL  -0.373   7.567  -3.441
  12 CL   0.373  -7.567  -3.441
  13 H   -3.031   1.096   3.116
  14 H    3.031  -1.096   3.116
  15 H    1.096   3.031  -3.116
  16 H   -1.096  -3.031  -3.116
  17 C   -4.518  -6.028   2.928
                                249 S  
                                         1.238E+03 5.457E-03 0.000E+00 0.000E+00
                                         1.863E+02 4.064E-02 0.000E+00 0.000E+00
                                         4.225E+01 1.803E-01 0.000E+00 0.000E+00
                                         1.168E+01 4.632E-01 0.000E+00 0.000E+00
                                         3.593E+00 4.409E-01 0.000E+00 0.000E+00
                                250 S  
                                         5.281E+00 1.000E+00 0.000E+00 0.000E+00
                                251 S  
                                         4.447E-01 1.000E+00 0.000E+00 0.000E+00
                         252-   254 P  
                                         9.468E+00 0.000E+00 3.839E-02 0.000E+00
                                         2.010E+00 0.000E+00 2.112E-01 0.000E+00
                                         5.477E-01 0.000E+00 5.133E-01 0.000E+00
                         255-   257 P  
                                         1.604E-01 0.000E+00 1.000E+00 0.000E+00
                         258-   262 D  
                                         6.070E-01 0.000E+00 0.000E+00 1.000E+00
                         263-   267 D  
                                         2.939E-01 0.000E+00 0.000E+00 1.000E+00
  18 C    4.518   6.028   2.928
  19 C   -6.028   4.518  -2.928
  20 C    6.028  -4.518  -2.928
  21 C   -4.772  -8.769   3.090
  22 C    4.772   8.769   3.090
  23 C   -8.769   4.772  -3.090
  24 C    8.769  -4.772  -3.090
  25 C   -6.558  -4.345   3.199
  26 C    6.558   4.345   3.199
  27 C   -4.345   6.558  -3.199
  28 C    4.345  -6.558  -3.199
  29 C   -3.538  -0.910   3.025
  30 C    3.538   0.910   3.025
  31 C   -0.910   3.538  -3.025
  32 C    0.910  -3.538  -3.025
  33 C   -2.084  -4.998   2.623
  34 C    2.084   4.998   2.623
  35 C   -4.998   2.084  -2.623
  36 C    4.998  -2.084  -2.623
  37 C    6.047   1.755   3.221
  38 C   -6.047  -1.755   3.221
  39 C    1.755  -6.047  -3.221
  40 C   -1.755   6.047  -3.221
  41 N   -3.057   8.884   4.203
                                705 S  
                                         1.713E+03-5.393E-03 0.000E+00 0.000E+00
                                         2.576E+02-4.022E-02 0.000E+00 0.000E+00
                                         5.846E+01-1.793E-01 0.000E+00 0.000E+00
                                         1.620E+01-4.638E-01 0.000E+00 0.000E+00
                                         5.005E+00-4.417E-01 0.000E+00 0.000E+00
                                706 S  
                                         6.217E-01 1.000E+00 0.000E+00 0.000E+00
                                707 S  
                                         2.921E-01 1.000E+00 0.000E+00 0.000E+00
                         708-   710 P  
                                         1.357E+01 0.000E+00-4.007E-02 0.000E+00
                                         2.926E+00 0.000E+00-2.181E-01 0.000E+00
                                         7.993E-01 0.000E+00-5.129E-01 0.000E+00
                         711-   713 P  
                                         2.244E-01 0.000E+00 1.000E+00 0.000E+00
                         714-   718 D  
                                         3.118E-01 0.000E+00 0.000E+00 1.000E+00
  42 N    3.057  -8.884   4.203
  43 N    8.884   3.057  -4.203
  44 N   -8.884  -3.057  -4.203
  45 N   -3.954   6.447   4.014
  46 N    3.954  -6.447   4.014
  47 N    6.447   3.954  -4.014
  48 N   -6.447  -3.954  -4.014
  49 N    2.915  -0.618 -10.340
  50 N   -2.915   0.618 -10.340
  51 N   -0.618  -2.915  10.340
  52 N    0.618   2.915  10.340
  53 N   -6.142   6.505   2.834
  54 N    6.142  -6.505   2.834
  55 N    6.505   6.142  -2.834
  56 N   -6.505  -6.142  -2.834
  57 N   -1.585  -2.519   2.711
  58 N    1.585   2.519   2.711
  59 N   -2.519   1.585  -2.711
  60 N    2.519  -1.585  -2.711
  61 ZN   0.000   9.598 -18.842
                                985 S  
                                         8.200E+04 1.421E-03 0.000E+00 0.000E+00
                                         1.231E+04 1.089E-02 0.000E+00 0.000E+00
                                         2.801E+03 5.406E-02 0.000E+00 0.000E+00
                                         7.910E+02 1.885E-01 0.000E+00 0.000E+00
                                         2.576E+02 3.835E-01 0.000E+00 0.000E+00
                                         8.881E+01 2.972E-01 0.000E+00 0.000E+00
                                986 S  
                                         1.719E+02-1.105E-01 0.000E+00 0.000E+00
                                         2.030E+01 6.461E-01 0.000E+00 0.000E+00
                                         8.346E+00 4.422E-01 0.000E+00 0.000E+00
                                987 S  
                                         1.485E+01-2.271E-01 0.000E+00 0.000E+00
                                         2.450E+00 7.243E-01 0.000E+00 0.000E+00
                                         9.985E-01 4.484E-01 0.000E+00 0.000E+00
                                988 S  
                                         1.493E+00 1.000E+00 0.000E+00 0.000E+00
                                989 S  
                                         1.830E-01 1.000E+00 0.000E+00 0.000E+00
                         990-   992 P  
                                         1.072E+03 0.000E+00 9.277E-03 0.000E+00
                                         2.527E+02 0.000E+00 6.954E-02 0.000E+00
                                         8.010E+01 0.000E+00 2.716E-01 0.000E+00
                                         2.890E+01 0.000E+00 5.340E-01 0.000E+00
                                         1.077E+01 0.000E+00 3.450E-01 0.000E+00
                         993-   995 P  
                                         5.645E+00 0.000E+00 3.413E-01 0.000E+00
                                         2.168E+00 0.000E+00 5.639E-01 0.000E+00
                                         8.054E-01 0.000E+00 2.368E-01 0.000E+00
                         996-   998 P  
                                         2.721E-01 0.000E+00 1.000E+00 0.000E+00
                         999-  1003 D  
                                         5.609E+01 0.000E+00 0.000E+00 2.959E-02
                                         1.575E+01 0.000E+00 0.000E+00 1.587E-01
                                         5.312E+00 0.000E+00 0.000E+00 3.798E-01
                                         1.774E+00 0.000E+00 0.000E+00 4.690E-01
                        1004-  1008 D  
                                         5.073E-01 0.000E+00 0.000E+00 1.000E+00
                        1009-  1015 F  
                                         2.814E+00 0.000E+00 0.000E+00 1.000E+00
                        1016-  1022 F  
                                         1.300E+00 0.000E+00 0.000E+00 1.000E+00
  62 ZN   0.000   0.000  12.561

 *******************************************************************************
 FINISHED BASIS SET HANDLING 
 *******************************************************************************

 INFORMATION **** SET_MPP **** PCRYSTAL CALCULATION
 INFORMATION **** READM2 **** NEW DEFAULT: FOCK/KS MATRIX MIXING SET TO 30 %
 INFORMATION **** READM2 **** NEW DEFAULT: FULL DIRECT SCF MODE
 INFORMATION **** READM2 **** NEW DEFAULT: COULOMB BIPOLAR BUFFER SET TO 32 Mb
 INFORMATION **** READM2 **** NEW DEFAULT: EXCHANGE BIPOLAR BUFFER SET TO 32 Mb

 *******************************************************************************
 NEW DEFAULT: DFT INTEGRATION GRID INCREASED TO XLGRID
 NEW DEFAULT: DIIS ACCELERATOR ACTIVE
 USE KEYWORD NODIIS TO TURN IT OFF
 *******************************************************************************

 INFORMATION **** DFTD3_INPUT **** PERFORM DISPERSION CORRECTION DFT-D3(BJ) IN THE BECKE-JOHNSON DAMPING SCHEME

 PLEASE CITE:
 (1) DFT-D3 Reference
  S. Grimme, J. Antony, S. Ehrlich, and H. Krieg, J. Chem. Phys. 132 (2010), 154104
 (2) BJ-Damping Reference
  S. Grimme, S. Ehrlich, and L. Goerigk, J. Comput. Chem. 32 (2011), 1456-1465
 (3) General DFT-D Review
  S. Grimme, A. Hansen, J. G. Brandenburg, and C. Bannwarth,
  Chem. Rev. 116 (2016), 5105-5154

 INFORMATION **** BIPOSIZE **** COULOMB BIPOLAR BUFFER SET TO    30000000
 INFORMATION **** EXCHSIZE **** EXCHANGE BIPOLAR BUFFER SIZE SET TO    30000000
 INFORMATION **** TOLINTEG **** COULOMB AND EXCHANGE SERIES TOLERANCES MODIFIED
 INFORMATION **** MAXCYCLE **** MAX NUMBER OF SCF CYCLES SET TO          50
 *******************************************************************************
 N. OF ATOMS PER CELL        62  COULOMB OVERLAP TOL         (T1) 10**  -12
 NUMBER OF SHELLS           416  COULOMB PENETRATION TOL     (T2) 10**  -12
 NUMBER OF AO              1060  EXCHANGE OVERLAP TOL        (T3) 10**   20
 N. OF ELECTRONS PER CELL   488  EXCHANGE PSEUDO OVP (F(G))  (T4) 10**   20
 CORE ELECTRONS PER CELL    204  EXCHANGE PSEUDO OVP (P(G))  (T5) 10**   20
 N. OF SYMMETRY OPERATORS     4  POLE ORDER IN MONO ZONE                  4
 *******************************************************************************
 TYPE OF CALCULATION :  RESTRICTED CLOSED SHELL
 KOHN-SHAM HAMILTONIAN

 (EXCHANGE)[CORRELATION] FUNCTIONAL:(PERDEW-BURKE-ERNZERHOF)[PERDEW-BURKE-ERNZERHOF]


 CAPPA:IS1  3;IS2  3;IS3  3; K PTS MONK NET   6; SYMMOPS:K SPACE   8;G SPACE   4

 *******************************************************************************
 MAX NUMBER OF SCF CYCLES      50  CONVERGENCE ON DELTAP        10**-16
 WEIGHT OF F(I) IN F(I+1)      30% CONVERGENCE ON ENERGY        10**- 7
 SHRINK. FACT.(MONKH.)    3  3  3  NUMBER OF K POINTS IN THE IBZ      6
 SHRINKING FACTOR(GILAT NET)    3  NUMBER OF K POINTS(GILAT NET)      6
 *******************************************************************************
 *** K POINTS COORDINATES (OBLIQUE COORDINATES IN UNITS OF IS =  3)
   1-R(  0  0  0)   2-C(  1  0  0)   3-C(  1  1  0)   4-C(  2  1  0)
   5-C(  2  1  1)   6-C(  2  2  1)

 DIRECT LATTICE VECTORS COMPON. (A.U.)     RECIP. LATTICE VECTORS COMPON. (A.U.) 
        X            Y            Z              X            Y            Z
   -9.5979190    9.5979190   12.5610096      0.0000000    0.3273202    0.2501067
    9.5979190   -9.5979190   12.5610096      0.3273202    0.0000000    0.2501067
    9.5979190    9.5979190  -12.5610096      0.3273202    0.3273202    0.0000000

 DISK SPACE FOR EIGENVECTORS (FTN 10)    12359600 REALS

 SYMMETRY ADAPTION OF THE BLOCH FUNCTIONS ENABLED
 TTTTTTTTTTTTTTTTTTTTTTTTTTTTTT gordsh1     TELAPSE        1.14 TCPU        0.04

 MATRIX SIZE: P(G) 2037120, F(G) 1019570, P(G) IRR  257643, F(G) IRR  257643
 MAX G-VECTOR INDEX FOR 1- AND 2-ELECTRON INTEGRALS  63

 TTTTTTTTTTTTTTTTTTTTTTTTTTTTTT INPUT       TELAPSE        1.22 TCPU        0.12

 NEIGHBORS OF THE NON-EQUIVALENT ATOMS

 N = NUMBER OF NEIGHBORS AT DISTANCE R
    ATOM  N     R/ANG      R/AU   NEIGHBORS (ATOM LABELS AND CELL INDICES)
   1 H    1     1.0950     2.0692   25 C    0 0 1
   1 H    1     2.1707     4.1021   38 C    0 0 1
   1 H    1     2.1834     4.1260   17 C    0 0 1
   1 H    1     2.5186     4.7595    9 CL   0 0 1
   1 H    1     2.5548     4.8279   54 N    0-1 0
   1 H    1     2.7928     5.2776   21 C    0 0 1

   5 CL   1     1.0945     2.0684   33 C    0 0 0
   5 CL   1     2.0667     3.9055   57 N    0 0 0
   5 CL   1     2.1759     4.1119   17 C    0 0 0
   5 CL   1     2.5126     4.7480   46 N    0 0 0
   5 CL   1     2.5429     4.8053   42 N    0 0 0
   5 CL   1     2.6801     5.0646   21 C    0 0 0

   9 CL   1     1.0933     2.0660   38 C    0 0 0
   9 CL   1     2.1620     4.0855   29 C    0 0 0
   9 CL   1     2.1723     4.1051   25 C    0 0 0
   9 CL   1     2.1857     4.1305   10 CL   0-1-1
   9 CL   1     2.5186     4.7595    1 H    0 0-1
   9 CL   1     2.5285     4.7782   13 H    0 0 0

  13 H    1     1.0959     2.0709   29 C    0 0 0
  13 H    1     2.0715     3.9145   57 N    0 0 0
  13 H    1     2.1965     4.1508   38 C    0 0 0
  13 H    1     2.5285     4.7782    9 CL   0 0 0
  13 H    1     2.5654     4.8479   58 N    0 0 0
  13 H    1     2.9124     5.5037   45 N    0 0 0

  17 C    1     1.4070     2.6588   25 C    0 0 0
  17 C    1     1.4077     2.6602   33 C    0 0 0
  17 C    1     1.4594     2.7579   21 C    0 0 0
  17 C    1     2.1759     4.1119    5 CL   0 0 0
  17 C    1     2.1834     4.1260    1 H    0 0-1
  17 C    1     2.4067     4.5479   38 C    0 0 0

  21 C    1     1.3492     2.5496   49 N    0 0-1
  21 C    1     1.3553     2.5611   41 N   -1 0-1
  21 C    1     1.4594     2.7579   17 C    0 0 0
  21 C    1     2.2025     4.1620   53 N   -1 0-1
  21 C    1     2.2049     4.1667   45 N   -1 0-1
  21 C    1     2.4633     4.6549   33 C    0 0 0

  25 C    1     1.0950     2.0692    1 H    0 0-1
  25 C    1     1.3970     2.6400   38 C    0 0 0
  25 C    1     1.4070     2.6588   17 C    0 0 0
  25 C    1     2.1723     4.1051    9 CL   0 0 0
  25 C    1     2.4118     4.5577   33 C    0 0 0
  25 C    1     2.4219     4.5767   29 C    0 0 0

  29 C    1     1.0959     2.0709   13 H    0 0 0
  29 C    1     1.3493     2.5497   57 N    0 0 0
  29 C    1     1.4046     2.6543   38 C    0 0 0
  29 C    1     2.1620     4.0855    9 CL   0 0 0
  29 C    1     2.3056     4.3570   33 C    0 0 0
  29 C    1     2.4219     4.5767   25 C    0 0 0

  33 C    1     1.0945     2.0684    5 CL   0 0 0
  33 C    1     1.3387     2.5298   57 N    0 0 0
  33 C    1     1.4077     2.6602   17 C    0 0 0
  33 C    1     2.3056     4.3570   29 C    0 0 0
  33 C    1     2.4118     4.5577   25 C    0 0 0
  33 C    1     2.4633     4.6549   21 C    0 0 0

  37 C    1     1.0933     2.0660   10 CL   0 0 0
  37 C    1     1.3970     2.6400   26 C    0 0 0
  37 C    1     1.4046     2.6543   30 C    0 0 0
  37 C    1     2.1707     4.1021    2 H    1 1 1
  37 C    1     2.1965     4.1508   14 H    0 0 0
  37 C    1     2.4067     4.5479   18 C    0 0 0

  41 N    1     1.3553     2.5611   21 C    1 0 1
  41 N    1     1.3781     2.6042   45 N    0 0 0
  41 N    1     1.9919     3.7642   61 ZN   1 1 0
  41 N    1     2.1855     4.1299   53 N    0 0 0
  41 N    1     2.1874     4.1336   49 N    1 0 0
  41 N    1     2.4882     4.7020   17 C    1 0 1

  45 N    1     1.3160     2.4870   53 N    0 0 0
  45 N    1     1.3781     2.6042   41 N    0 0 0
  45 N    1     2.1869     4.1326   49 N    1 0 0
  45 N    1     2.2049     4.1667   21 C    1 0 1
  45 N    1     2.5126     4.7480    6 CL   0 0 0
  45 N    1     2.9124     5.5037   13 H    0 0 0

  49 N    1     1.3492     2.5496   21 C    0 0 1
  49 N    1     1.3792     2.6063   53 N   -1 0 0
  49 N    1     1.9667     3.7164   62 ZN  -1-1 0
  49 N    1     2.1869     4.1326   45 N   -1 0 0
  49 N    1     2.1874     4.1336   41 N   -1 0 0
  49 N    1     2.5229     4.7676   17 C    0 0 1

  53 N    1     1.3160     2.4870   45 N    0 0 0
  53 N    1     1.3792     2.6063   49 N    1 0 0
  53 N    1     2.1855     4.1299   41 N    0 0 0
  53 N    1     2.2025     4.1620   21 C    1 0 1
  53 N    1     2.5548     4.8279    2 H    1 0 0
  53 N    1     2.8762     5.4352   62 ZN   0-1 0

  57 N    1     1.3387     2.5298   33 C    0 0 0
  57 N    1     1.3493     2.5497   29 C    0 0 0
  57 N    1     2.0667     3.9055    5 CL   0 0 0
  57 N    1     2.0715     3.9145   13 H    0 0 0
  57 N    1     2.4105     4.5552   38 C    0 0 0
  57 N    1     2.4226     4.5781   17 C    0 0 0

  61 ZN   4     1.9919     3.7642   41 N   -1-1 0   42 N    0-1 1   43 N    0-1 0
                                    44 N    0 0 1
  61 ZN   4     2.7756     5.2452    5 CL   0-1 1    6 CL  -1-1 0    7 CL   0 0 1
                                     8 CL   0-1 0
  61 ZN   4     2.9319     5.5406   45 N   -1-1 0   46 N    0-1 1   47 N    0-1 0
                                    48 N    0 0 1
  61 ZN   4     3.0692     5.7999   21 C    0-1 1   22 C   -1-1 0   23 C    0 0 1
                                    24 C    0-1 0
  61 ZN   4     3.2996     6.2354   33 C    0-1 1   34 C   -1-1 0   35 C    0 0 1
                                    36 C    0-1 0
  61 ZN   4     3.5259     6.6629   17 C    0-1 1   18 C   -1-1 0   19 C    0 0 1
                                    20 C    0-1 0

  62 ZN   4     1.9667     3.7164   49 N    1 1 0   50 N    1 1 0   51 N    0 0 0
                                    52 N    0 0 0
  62 ZN   4     2.8762     5.4352   53 N    0 1 0   54 N    1 0 0   55 N    0 0-1
                                    56 N    1 1 1
  62 ZN   4     3.0639     5.7900   21 C    1 1 1   22 C    0 0-1   23 C    0 1 0
                                    24 C    1 0 0
  62 ZN   4     3.0753     5.8115    1 H    1 1 0    2 H    1 1 0    3 H    0 0 0
                                     4 H    0 0 0
  62 ZN   4     3.6307     6.8610   25 C    1 1 1   26 C    0 0-1   27 C    0 1 0
                                    28 C    1 0 0
  62 ZN   4     3.6327     6.8649   17 C    1 1 1   18 C    0 0-1   19 C    0 1 0
                                    20 C    1 0 0


 SYMMETRY ALLOWED ELASTIC DISTORTION 1
  0.5773503  0.0000000  0.0000000
  0.0000000  0.5773503  0.0000000
  0.0000000  0.0000000  0.5773503

 SYMMETRY ALLOWED ELASTIC DISTORTION 2
  0.4082483  0.0000000  0.0000000
  0.0000000  0.4082483  0.0000000
  0.0000000  0.0000000 -0.8164966

 SYMMETRY ALLOWED INTERNAL DEGREE(S) OF FREEDOM:  45
 TTTTTTTTTTTTTTTTTTTTTTTTTTTTTT SYMM        TELAPSE        3.70 TCPU        2.58
 TTTTTTTTTTTTTTTTTTTTTTTTTTTTTT INT_SCREEN  TELAPSE        3.72 TCPU        2.61

 *******************************************************************************
 *                             OPTIMIZATION STARTS                             *
 *******************************************************************************
 RECLASIFICATION OF INDICES FOR INTEGRAL CALC ACCORDING TO DIFFERENT CRITERIA:
           FIXDELTE                  FIXDELTX              FIXDELTN
          0.10000000               0.80000000                 47
 DEFAULT MAX NUM OF POINTS  100
 *******************************************************************************

 *******************************************************************************
 COORDINATE AND CELL OPTIMIZATION - POINT    1
 INFORMATION **** EXCBUF **** EXCH. BIPO BUFFER: WORDS USED =           0

 DFT PARAMETERS

     ATOM       ELECTRONS   NET CHARGE   R(ANGSTROM)
   1   1  H       1.0000      0.0000     1.11000000
   5  17  CL     17.0000      0.0000     0.99000000
  17   6  C       6.0000      0.0000     0.77000000
  41   7  N       7.0000      0.0000     0.74000000
  61  30  ZN     30.0000      0.0000     1.37000000

 SIZE OF GRID=     452510
 TTTTTTTTTTTTTTTTTTTTTTTTTTTTTT MAKE_GRID2  TELAPSE       10.32 TCPU        9.17
 BECKE WEIGHT FUNCTION
 RADSAFE =     2.00
 TOLERANCES - DENSITY:10**- 6; POTENTIAL:10**- 9; GRID WGT:10**-14

 RADIAL INTEGRATION  - INTERVALS (POINTS,UPPER LIMIT):            1( 75,  4.0*R)

 ANGULAR INTEGRATION - INTERVALS (ACCURACY LEVEL [N. POINTS] UPPER LIMIT):
  1(  4[  86]   0.2)  2(  8[ 194]   0.5)  3( 12[ 350]   0.9)  4( 16[ 974]   3.5)
  5( 12[ 350]9999.0)
 TTTTTTTTTTTTTTTTTTTTTTTTTTTTTT INT_CALC    TELAPSE       10.46 TCPU        9.31

 *******************************************************************************
 C:\Users\wilso\AppData\Local\Temp\tmp_p\newconn.mol                             
 CRYSTAL - SCF - TYPE OF CALCULATION :  RESTRICTED CLOSED SHELL
 *******************************************************************************

 CAPPA:IS1  3;IS2  3;IS3  3; K PTS MONK NET   6; SYMMOPS:K SPACE   8;G SPACE   4

 TTTTTTTTTTTTTTTTTTTTTTTTTTTTTT SDIK        TELAPSE       10.77 TCPU        9.62

 AAAAAAAAAAAAAAAAAAAAAAAAAAAAAAAAAAAAAAAAAAAAAAAAAAAAAAAAAAAAAAAAAAAAAAAAAAAAAAA
         ATOMIC WAVEFUNCTION(S)


 NUCLEAR CHARGE  1.0  SYMMETRY SPECIES            S
 N. ELECTRONS    1.0  NUMBER OF PRIMITIVE GTOS    4
                      NUMBER OF CONTRACTED GTOS   2
                      NUMBER OF CLOSED SHELLS     0
                      OPEN SHELL OCCUPATION       1

  ZNUC SCFIT  TOTAL HF ENERGY   KINETIC ENERGY   VIRIAL THEOREM ACCURACY
   1.0   1   -4.946643675E-01  4.917913167E-01 -2.005842012E+00  9.4E-17

 NUCLEAR CHARGE 17.0  SYMMETRY SPECIES            S    P
 N. ELECTRONS   17.0  NUMBER OF PRIMITIVE GTOS   10    7
                      NUMBER OF CONTRACTED GTOS   4    3
                      NUMBER OF CLOSED SHELLS     3    1
                      OPEN SHELL OCCUPATION       0    5

  ZNUC SCFIT  TOTAL HF ENERGY   KINETIC ENERGY   VIRIAL THEOREM ACCURACY
  17.0   9   -4.593005957E+02  4.593991532E+02 -1.999785464E+00  2.3E-06

 NUCLEAR CHARGE  6.0  SYMMETRY SPECIES            S    P
 N. ELECTRONS    6.0  NUMBER OF PRIMITIVE GTOS    7    4
                      NUMBER OF CONTRACTED GTOS   3    2
                      NUMBER OF CLOSED SHELLS     2    0
                      OPEN SHELL OCCUPATION       0    2

  ZNUC SCFIT  TOTAL HF ENERGY   KINETIC ENERGY   VIRIAL THEOREM ACCURACY
   6.0   6   -3.750912652E+01  3.905246519E+01 -1.960480378E+00  3.7E-06

 NUCLEAR CHARGE  7.0  SYMMETRY SPECIES            S    P
 N. ELECTRONS    7.0  NUMBER OF PRIMITIVE GTOS    7    4
                      NUMBER OF CONTRACTED GTOS   3    2
                      NUMBER OF CLOSED SHELLS     2    0
                      OPEN SHELL OCCUPATION       0    3

  ZNUC SCFIT  TOTAL HF ENERGY   KINETIC ENERGY   VIRIAL THEOREM ACCURACY
   7.0   9   -5.432196661E+01  5.425066284E+01 -2.001314339E+00  1.2E-06

 NUCLEAR CHARGE 30.0  SYMMETRY SPECIES            S    P    D
 N. ELECTRONS   30.0  NUMBER OF PRIMITIVE GTOS   14    9    5
                      NUMBER OF CONTRACTED GTOS   5    3    2
                      NUMBER OF CLOSED SHELLS     4    2    1
                      OPEN SHELL OCCUPATION       0    0    0

  ZNUC SCFIT  TOTAL HF ENERGY   KINETIC ENERGY   VIRIAL THEOREM ACCURACY
  30.0  10   -1.777404290E+03  1.777325716E+03 -2.000044209E+00  2.5E-06

 AAAAAAAAAAAAAAAAAAAAAAAAAAAAAAAAAAAAAAAAAAAAAAAAAAAAAAAAAAAAAAAAAAAAAAAAAAAAAAA

 CHARGE NORMALIZATION FACTOR   1.00000000
 TOTAL ATOMIC CHARGES:
   1.0000000   1.0000000   1.0000000   1.0000000  17.0000000  17.0000000
  17.0000000  17.0000000  17.0000000  17.0000000  17.0000000  17.0000000
   1.0000000   1.0000000   1.0000000   1.0000000   6.0000000   6.0000000
   6.0000000   6.0000000   6.0000000   6.0000000   6.0000000   6.0000000
   6.0000000   6.0000000   6.0000000   6.0000000   6.0000000   6.0000000
   6.0000000   6.0000000   6.0000000   6.0000000   6.0000000   6.0000000
   6.0000000   6.0000000   6.0000000   6.0000000   7.0000000   7.0000000
   7.0000000   7.0000000   7.0000000   7.0000000   7.0000000   7.0000000
   7.0000000   7.0000000   7.0000000   7.0000000   7.0000000   7.0000000
   7.0000000   7.0000000   7.0000000   7.0000000   7.0000000   7.0000000
  30.0000000  30.0000000
 TTTTTTTTTTTTTTTTTTTTTTTTTTTTTT MOQGAD      TELAPSE       13.05 TCPU       11.87
 TTTTTTTTTTTTTTTTTTTTTTTTTTTTTT SHELLXN     TELAPSE      107.48 TCPU       98.66
 TTTTTTTTTTTTTTTTTTTTTTTTTTTTTT MONMO3      TELAPSE      116.39 TCPU      107.54
 NUMERICALLY INTEGRATED DENSITY    487.9998761147
 TTTTTTTTTTTTTTTTTTTTTTTTTTTTTT NUMDFT      TELAPSE      119.03 TCPU      110.16
 CYC   0 ETOT(AU) -9.261393237759E+03 DETOT -9.26E+03 tst  0.00E+00 PX  1.00E+00
 TTTTTTTTTTTTTTTTTTTTTTTTTTTTTT DIIS        TELAPSE      119.13 TCPU      110.26
 TTTTTTTTTTTTTTTTTTTTTTTTTTTTTT FDIK        TELAPSE      165.73 TCPU      148.04
 INSULATING STATE
 TOP OF VALENCE BANDS -    BAND    244; K    1; EIG -1.2974734E-01 AU
 BOTTOM OF VIRTUAL BANDS - BAND    245; K    2; EIG -1.1741534E-01 AU
 INDIRECT ENERGY BAND GAP:   0.3356 eV
 BOTTOM OF VIRTUAL BANDS - BAND    245; K    1; EIG -1.1600747E-01 AU
 TTTTTTTTTTTTTTTTTTTTTTTTTTTTTT PDIG        TELAPSE      166.46 TCPU      148.78
 CHARGE NORMALIZATION FACTOR   1.00000000
 TOTAL ATOMIC CHARGES:
   1.1870790   1.1870790   1.1870790   1.1870790  16.7020555  16.7020555
  16.7020555  16.7020555  16.8484118  16.8484118  16.8484118  16.8484118
   1.2595028   1.2595028   1.2595028   1.2595028   6.0456271   6.0456271
   6.0456271   6.0456271   5.5122163   5.5122163   5.5122163   5.5122163
   6.1925778   6.1925778   6.1925778   6.1925778   5.8322333   5.8322333
   5.8322333   5.8322333   6.0176327   6.0176327   6.0176327   6.0176327
   6.0400015   6.0400015   6.0400015   6.0400015   7.3514510   7.3514510
   7.3514510   7.3514510   7.1658288   7.1658288   7.1658288   7.1658288
   7.3658848   7.3658848   7.3658848   7.3658848   7.1598200   7.1598200
   7.1598200   7.1598200   7.5410083   7.5410083   7.5410083   7.5410083
  27.4399004  27.6747766
 TTTTTTTTTTTTTTTTTTTTTTTTTTTTTT MOQGAD      TELAPSE      166.52 TCPU      148.83
 TTTTTTTTTTTTTTTTTTTTTTTTTTTTTT SHELLXN     TELAPSE      270.41 TCPU      249.98
 TTTTTTTTTTTTTTTTTTTTTTTTTTTTTT MONMO3      TELAPSE      278.19 TCPU      257.74
 NUMERICALLY INTEGRATED DENSITY    487.9998444460
 TTTTTTTTTTTTTTTTTTTTTTTTTTTTTT NUMDFT      TELAPSE      285.94 TCPU      265.46
 CYC   1 ETOT(AU) -9.239205422409E+03 DETOT  2.22E+01 tst  0.00E+00 PX  1.00E+00
 TTTTTTTTTTTTTTTTTTTTTTTTTTTTTT DIIS        TELAPSE      286.11 TCPU      265.63
 DIIS TEST: 0.21289E+02 AT SCF   CYCLE   1 - MIX   30 %
 TTTTTTTTTTTTTTTTTTTTTTTTTTTTTT FDIK        TELAPSE      298.84 TCPU      278.22
 POSSIBLY CONDUCTING STATE - EFERMI(AU) -1.1218754E-01 (RES. CHARGE  4.23E-12;IT. 16)
 TTTTTTTTTTTTTTTTTTTTTTTTTTTTTT PDIG        TELAPSE      299.56 TCPU      278.94
 CHARGE NORMALIZATION FACTOR   1.00000000
 TOTAL ATOMIC CHARGES:
   1.2787856   1.2787856   1.2787856   1.2787856  17.4111151  17.4111151
  17.4111151  17.4111151  16.9085166  16.9085166  16.9085166  16.9085166
   1.1977749   1.1977749   1.1977749   1.1977749   6.3776058   6.3776058
   6.3776058   6.3776058   6.5735277   6.5735277   6.5735277   6.5735277
   6.3966775   6.3966775   6.3966775   6.3966775   6.0039598   6.0039598
   6.0039598   6.0039598   5.8390925   5.8390925   5.8390925   5.8390925
   5.4421929   5.4421929   5.4421929   5.4421929   7.6527725   7.6527725
   7.6527725   7.6527725   6.9552976   6.9552976   6.9552976   6.9552976
   7.1847250   7.1847250   7.1847250   7.1847250   6.7782076   6.7782076
   6.7782076   6.7782076   4.5189999   4.5189999   4.5189999   4.5189999
  31.8662500  30.0567459
 TTTTTTTTTTTTTTTTTTTTTTTTTTTTTT MOQGAD      TELAPSE      299.61 TCPU      278.99
 TTTTTTTTTTTTTTTTTTTTTTTTTTTTTT SHELLXN     TELAPSE      402.93 TCPU      379.93
 TTTTTTTTTTTTTTTTTTTTTTTTTTTTTT MONMO3      TELAPSE      412.25 TCPU      389.19
 NUMERICALLY INTEGRATED DENSITY    487.9998238661
 TTTTTTTTTTTTTTTTTTTTTTTTTTTTTT NUMDFT      TELAPSE      419.90 TCPU      396.81
 CYC   2 ETOT(AU) -9.224796275004E+03 DETOT  1.44E+01 tst  5.07E-01 PX  4.02E+00
 TTTTTTTTTTTTTTTTTTTTTTTTTTTTTT DIIS        TELAPSE      420.07 TCPU      396.98
 DIIS TEST: 0.10492E+03 AT SCF   CYCLE   2 - DIIS ACTIVE - HISTORY:     2 CYCLES
 TTTTTTTTTTTTTTTTTTTTTTTTTTTTTT FDIK        TELAPSE      434.23 TCPU      409.90
 INSULATING STATE
 TOP OF VALENCE BANDS -    BAND    244; K    6; EIG -1.7296980E-01 AU
 TOP OF VALENCE BANDS -    BAND    244; K    1; EIG -1.7438047E-01 AU
 BOTTOM OF VIRTUAL BANDS - BAND    245; K    4; EIG -1.0846155E-01 AU
 INDIRECT ENERGY BAND GAP:   1.7554 eV
 BOTTOM OF VIRTUAL BANDS - BAND    245; K    1; EIG -1.0518658E-01 AU
 TTTTTTTTTTTTTTTTTTTTTTTTTTTTTT PDIG        TELAPSE      434.96 TCPU      410.63
 CHARGE NORMALIZATION FACTOR   1.00000000
 TOTAL ATOMIC CHARGES:
   1.2219447   1.2219447   1.2219447   1.2219447  16.8009749  16.8009749
  16.8009749  16.8009749  16.9237446  16.9237446  16.9237446  16.9237446
   1.2598136   1.2598136   1.2598136   1.2598136   5.9350258   5.9350258
   5.9350258   5.9350258   6.0542063   6.0542063   6.0542063   6.0542063
   5.9910167   5.9910167   5.9910167   5.9910167   6.7003431   6.7003431
   6.7003431   6.7003431   5.6336688   5.6336688   5.6336688   5.6336688
   5.4189977   5.4189977   5.4189977   5.4189977   6.3163771   6.3163771
   6.3163771   6.3163771   7.0357074   7.0357074   7.0357074   7.0357074
   6.7384142   6.7384142   6.7384142   6.7384142   7.1050677   7.1050677
   7.1050677   7.1050677   7.9159316   7.9159316   7.9159316   7.9159316
  29.8803892  29.9146746
 TTTTTTTTTTTTTTTTTTTTTTTTTTTTTT MOQGAD      TELAPSE      435.02 TCPU      410.68
 TTTTTTTTTTTTTTTTTTTTTTTTTTTTTT SHELLXN     TELAPSE      536.72 TCPU      511.90
 TTTTTTTTTTTTTTTTTTTTTTTTTTTTTT MONMO3      TELAPSE      545.19 TCPU      520.34
 NUMERICALLY INTEGRATED DENSITY    487.9998222918
 TTTTTTTTTTTTTTTTTTTTTTTTTTTTTT NUMDFT      TELAPSE      552.95 TCPU      528.08
 CYC   3 ETOT(AU) -9.237948183092E+03 DETOT -1.32E+01 tst  3.88E-01 PX  3.31E+00
 TTTTTTTTTTTTTTTTTTTTTTTTTTTTTT DIIS        TELAPSE      553.14 TCPU      528.27
 DIIS TEST: 0.24698E+02 AT SCF   CYCLE   3 - DIIS ACTIVE - HISTORY:     3 CYCLES
 TTTTTTTTTTTTTTTTTTTTTTTTTTTTTT FDIK        TELAPSE      566.99 TCPU      539.84
 INSULATING STATE
 TOP OF VALENCE BANDS -    BAND    244; K    3; EIG -1.5624222E-01 AU
 TOP OF VALENCE BANDS -    BAND    244; K    1; EIG -1.6178650E-01 AU
 BOTTOM OF VIRTUAL BANDS - BAND    245; K    1; EIG -1.0851851E-01 AU
 INDIRECT ENERGY BAND GAP:   1.2986 eV
 TTTTTTTTTTTTTTTTTTTTTTTTTTTTTT PDIG        TELAPSE      567.71 TCPU      540.55
 CHARGE NORMALIZATION FACTOR   1.00000000
 TOTAL ATOMIC CHARGES:
   1.1462599   1.1462599   1.1462599   1.1462599  17.0432827  17.0432827
  17.0432827  17.0432827  17.1941607  17.1941607  17.1941607  17.1941607
   1.2832691   1.2832691   1.2832691   1.2832691   6.2594185   6.2594185
   6.2594185   6.2594185   5.7021521   5.7021521   5.7021521   5.7021521
   6.3042651   6.3042651   6.3042651   6.3042651   5.5969235   5.5969235
   5.5969235   5.5969235   5.8428479   5.8428479   5.8428479   5.8428479
   5.7715149   5.7715149   5.7715149   5.7715149   7.3759881   7.3759881
   7.3759881   7.3759881   7.0824641   7.0824641   7.0824641   7.0824641
   7.1246914   7.1246914   7.1246914   7.1246914   6.9586322   6.9586322
   6.9586322   6.9586322   6.9418316   6.9418316   6.9418316   6.9418316
  28.7071080  28.7820857
 TTTTTTTTTTTTTTTTTTTTTTTTTTTTTT MOQGAD      TELAPSE      567.76 TCPU      540.60
 TTTTTTTTTTTTTTTTTTTTTTTTTTTTTT SHELLXN     TELAPSE      671.49 TCPU      641.89
 TTTTTTTTTTTTTTTTTTTTTTTTTTTTTT MONMO3      TELAPSE      680.14 TCPU      650.52
 NUMERICALLY INTEGRATED DENSITY    487.9998280740
 TTTTTTTTTTTTTTTTTTTTTTTTTTTTTT NUMDFT      TELAPSE      687.81 TCPU      658.18
 CYC   4 ETOT(AU) -9.241789475351E+03 DETOT -3.84E+00 tst  6.01E-02 PX  7.23E-01
 TTTTTTTTTTTTTTTTTTTTTTTTTTTTTT DIIS        TELAPSE      688.00 TCPU      658.36
 DIIS TEST: 0.34403E+01 AT SCF   CYCLE   4 - DIIS ACTIVE - HISTORY:     4 CYCLES
 TTTTTTTTTTTTTTTTTTTTTTTTTTTTTT FDIK        TELAPSE      701.82 TCPU      672.03
 INSULATING STATE
 TOP OF VALENCE BANDS -    BAND    244; K    4; EIG -1.4121930E-01 AU
 TOP OF VALENCE BANDS -    BAND    244; K    1; EIG -1.4816391E-01 AU
 BOTTOM OF VIRTUAL BANDS - BAND    245; K    1; EIG -1.2149556E-01 AU
 INDIRECT ENERGY BAND GAP:   0.5367 eV
 TTTTTTTTTTTTTTTTTTTTTTTTTTTTTT PDIG        TELAPSE      702.55 TCPU      672.76
 CHARGE NORMALIZATION FACTOR   1.00000000
 TOTAL ATOMIC CHARGES:
   1.1667840   1.1667840   1.1667840   1.1667840  17.0044557  17.0044557
  17.0044557  17.0044557  16.7558584  16.7558584  16.7558584  16.7558584
   1.2303243   1.2303243   1.2303243   1.2303243   6.0789367   6.0789367
   6.0789367   6.0789367   5.8096773   5.8096773   5.8096773   5.8096773
   6.1583003   6.1583003   6.1583003   6.1583003   6.2778060   6.2778060
   6.2778060   6.2778060   5.8764233   5.8764233   5.8764233   5.8764233
   5.6879462   5.6879462   5.6879462   5.6879462   7.2268530   7.2268530
   7.2268530   7.2268530   6.9694885   6.9694885   6.9694885   6.9694885
   7.3051696   7.3051696   7.3051696   7.3051696   7.0995137   7.0995137
   7.0995137   7.0995137   6.9279496   6.9279496   6.9279496   6.9279496
  28.9062111  28.7918420
 TTTTTTTTTTTTTTTTTTTTTTTTTTTTTT MOQGAD      TELAPSE      702.61 TCPU      672.81
 TTTTTTTTTTTTTTTTTTTTTTTTTTTTTT SHELLXN     TELAPSE      806.27 TCPU      774.06
 TTTTTTTTTTTTTTTTTTTTTTTTTTTTTT MONMO3      TELAPSE      814.67 TCPU      782.43
 NUMERICALLY INTEGRATED DENSITY    487.9998370227
 TTTTTTTTTTTTTTTTTTTTTTTTTTTTTT NUMDFT      TELAPSE      822.32 TCPU      790.06
 CYC   5 ETOT(AU) -9.242038137901E+03 DETOT -2.49E-01 tst  4.30E-03 PX  2.19E-01
 TTTTTTTTTTTTTTTTTTTTTTTTTTTTTT DIIS        TELAPSE      822.52 TCPU      790.25
 DIIS TEST: 0.16732E+01 AT SCF   CYCLE   5 - DIIS ACTIVE - HISTORY:     5 CYCLES
 TTTTTTTTTTTTTTTTTTTTTTTTTTTTTT FDIK        TELAPSE      837.31 TCPU      802.84
 INSULATING STATE
 TOP OF VALENCE BANDS -    BAND    244; K    4; EIG -1.4799788E-01 AU
 TOP OF VALENCE BANDS -    BAND    244; K    1; EIG -1.5492278E-01 AU
 BOTTOM OF VIRTUAL BANDS - BAND    245; K    1; EIG -1.1263446E-01 AU
 INDIRECT ENERGY BAND GAP:   0.9623 eV
 TTTTTTTTTTTTTTTTTTTTTTTTTTTTTT PDIG        TELAPSE      838.03 TCPU      803.56
 CHARGE NORMALIZATION FACTOR   1.00000000
 TOTAL ATOMIC CHARGES:
   1.1655563   1.1655563   1.1655563   1.1655563  16.9288872  16.9288872
  16.9288872  16.9288872  17.0945079  17.0945079  17.0945079  17.0945079
   1.2350260   1.2350260   1.2350260   1.2350260   6.1411311   6.1411311
   6.1411311   6.1411311   5.8738229   5.8738229   5.8738229   5.8738229
   6.2355753   6.2355753   6.2355753   6.2355753   5.9042665   5.9042665
   5.9042665   5.9042665   5.7922915   5.7922915   5.7922915   5.7922915
   5.7459729   5.7459729   5.7459729   5.7459729   7.1417704   7.1417704
   7.1417704   7.1417704   7.1221859   7.1221859   7.1221859   7.1221859
   7.0508454   7.0508454   7.0508454   7.0508454   7.0278398   7.0278398
   7.0278398   7.0278398   7.0732157   7.0732157   7.0732157   7.0732157
  28.9482165  28.9202032
 TTTTTTTTTTTTTTTTTTTTTTTTTTTTTT MOQGAD      TELAPSE      838.08 TCPU      803.61
 TTTTTTTTTTTTTTTTTTTTTTTTTTTTTT SHELLXN     TELAPSE      940.55 TCPU      904.60
 TTTTTTTTTTTTTTTTTTTTTTTTTTTTTT MONMO3      TELAPSE      949.69 TCPU      913.71
 NUMERICALLY INTEGRATED DENSITY    487.9998299345
 TTTTTTTTTTTTTTTTTTTTTTTTTTTTTT NUMDFT      TELAPSE      957.37 TCPU      921.36
 CYC   6 ETOT(AU) -9.242285347405E+03 DETOT -2.47E-01 tst  2.92E-03 PX  1.34E-01
 TTTTTTTTTTTTTTTTTTTTTTTTTTTTTT DIIS        TELAPSE      957.55 TCPU      921.54
 DIIS TEST: 0.25228E+00 AT SCF   CYCLE   6 - DIIS ACTIVE - HISTORY:     6 CYCLES
 TTTTTTTTTTTTTTTTTTTTTTTTTTTTTT FDIK        TELAPSE      970.16 TCPU      931.66
 INSULATING STATE
 TOP OF VALENCE BANDS -    BAND    244; K    4; EIG -1.4641749E-01 AU
 TOP OF VALENCE BANDS -    BAND    244; K    1; EIG -1.5288348E-01 AU
 BOTTOM OF VIRTUAL BANDS - BAND    245; K    1; EIG -1.1191262E-01 AU
 INDIRECT ENERGY BAND GAP:   0.9389 eV
 TTTTTTTTTTTTTTTTTTTTTTTTTTTTTT PDIG        TELAPSE      970.89 TCPU      932.38
 CHARGE NORMALIZATION FACTOR   1.00000000
 TOTAL ATOMIC CHARGES:
   1.1662961   1.1662961   1.1662961   1.1662961  17.0200840  17.0200840
  17.0200840  17.0200840  16.9923304  16.9923304  16.9923304  16.9923304
   1.2407533   1.2407533   1.2407533   1.2407533   6.1637902   6.1637902
   6.1637902   6.1637902   5.8191228   5.8191228   5.8191228   5.8191228
   6.2008238   6.2008238   6.2008238   6.2008238   5.9442519   5.9442519
   5.9442519   5.9442519   5.8410123   5.8410123   5.8410123   5.8410123
   5.6833682   5.6833682   5.6833682   5.6833682   7.1946274   7.1946274
   7.1946274   7.1946274   7.0171299   7.0171299   7.0171299   7.0171299
   7.1366850   7.1366850   7.1366850   7.1366850   7.0141549   7.0141549
   7.0141549   7.0141549   7.1020247   7.1020247   7.1020247   7.1020247
  28.9437799  28.9104009
 TTTTTTTTTTTTTTTTTTTTTTTTTTTTTT MOQGAD      TELAPSE      970.94 TCPU      932.44
 TTTTTTTTTTTTTTTTTTTTTTTTTTTTTT SHELLXN     TELAPSE     1074.79 TCPU     1033.64
 TTTTTTTTTTTTTTTTTTTTTTTTTTTTTT MONMO3      TELAPSE     1083.24 TCPU     1042.06
 NUMERICALLY INTEGRATED DENSITY    487.9998312179
 TTTTTTTTTTTTTTTTTTTTTTTTTTTTTT NUMDFT      TELAPSE     1090.95 TCPU     1049.74
[...]
  61 ZN   4     2.9242     5.5260    5 CL   0-1 1    6 CL  -1-1 0    7 CL   0 0 1
                                     8 CL   0-1 0
  61 ZN   4     2.9959     5.6614   45 N   -1-1 0   46 N    0-1 1   47 N    0-1 0
                                    48 N    0 0 1
  61 ZN   4     3.3224     6.2784   21 C    0-1 1   22 C   -1-1 0   23 C    0 0 1
                                    24 C    0-1 0
  61 ZN   4     3.6409     6.8804   33 C    0-1 1   34 C   -1-1 0   35 C    0 0 1
                                    36 C    0-1 0
  61 ZN   4     3.8372     7.2512   17 C    0-1 1   18 C   -1-1 0   19 C    0 0 1
                                    20 C    0-1 0

  62 ZN   4     2.0401     3.8552   49 N    1 1 0   50 N    1 1 0   51 N    0 0 0
                                    52 N    0 0 0
  62 ZN   4     2.7607     5.2170   53 N    0 1 0   54 N    1 0 0   55 N    0 0-1
                                    56 N    1 1 1
  62 ZN   4     3.2664     6.1726   21 C    1 1 1   22 C    0 0-1   23 C    0 1 0
                                    24 C    1 0 0
  62 ZN   4     3.7666     7.1178    1 H    1 1 0    2 H    1 1 0    3 H    0 0 0
                                     4 H    0 0 0
  62 ZN   4     3.9853     7.5312   17 C    1 1 1   18 C    0 0-1   19 C    0 1 0
                                    20 C    1 0 0
  62 ZN   4     3.9853     7.5312   45 N    0 1 0   46 N    1 0 0   47 N    0 0-1
                                    48 N    1 1 1


 FINAL OPTIMIZED GEOMETRY - DIMENSIONALITY OF THE SYSTEM      3
 (NON PERIODIC DIRECTION: LATTICE PARAMETER FORMALLY SET TO 500)
 *******************************************************************************
 LATTICE PARAMETERS (ANGSTROMS AND DEGREES) - BOHR = 0.5291772083 ANGSTROM
 PRIMITIVE CELL - CENTRING CODE 6/0 VOLUME=   794.298340 - DENSITY  2.057 g/cm^3
         A              B              C           ALPHA      BETA       GAMMA 
    10.28916982    10.28916982    10.28916982   117.760323 117.760323  93.925084
 *******************************************************************************
 ATOMS IN THE ASYMMETRIC UNIT   17 - ATOMS IN THE UNIT CELL:   62
     ATOM                 X/A                 Y/B                 Z/C    
 *******************************************************************************
      1 T   1 H    -6.855856077105E-02 -2.706438607119E-01  3.672795068351E-01
      2 F   1 H     3.620766324529E-01 -4.358380676062E-01 -3.672795068351E-01
      3 F   1 H     2.706438607119E-01 -3.620766324529E-01  2.020852999409E-01
      4 F   1 H     4.358380676062E-01  6.855856077105E-02 -2.020852999409E-01
      5 T  17 CL   -2.863415824404E-01  8.126157622871E-02 -3.486556860291E-01
      6 F  17 CL    4.299172622578E-01  6.231410358872E-02  3.486556860291E-01
      7 F  17 CL   -8.126157622871E-02 -4.299172622578E-01 -3.676031586691E-01
      8 F  17 CL   -6.231410358872E-02  2.863415824404E-01  3.676031586691E-01
      9 T  17 CL    2.227424617940E-01 -2.099258560091E-01 -3.016067144511E-01
     10 F  17 CL    9.168085844206E-02 -4.756508237549E-01  3.016067144511E-01
     11 F  17 CL    2.099258560091E-01 -9.168085844206E-02  4.326683178031E-01
     12 F  17 CL    4.756508237549E-01 -2.227424617940E-01 -4.326683178031E-01
     13 T   1 H     1.694140259837E-01 -3.394391823902E-03 -5.862037424595E-02
     14 F   1 H     5.522598242205E-02  2.280344002296E-01  5.862037424595E-02
     15 F   1 H     3.394391823902E-03 -5.522598242205E-02  1.728084178076E-01
     16 F   1 H    -2.280344002296E-01 -1.694140259837E-01 -1.728084178076E-01
     17 T   6 C    -1.727151265283E-01 -1.160229923483E-01  4.810493476467E-01
     18 F   6 C     4.029276600050E-01  3.462355258250E-01 -4.810493476467E-01
     19 F   6 C     1.160229923483E-01 -4.029276600050E-01 -5.669213417995E-02
     20 F   6 C    -3.462355258250E-01  1.727151265283E-01  5.669213417995E-02
     21 T   6 C    -2.913575841285E-01 -1.275387219081E-01  3.198643830552E-01
     22 F   6 C    -4.474031049633E-01  3.887780328163E-01 -3.198643830552E-01
     23 F   6 C     1.275387219081E-01  4.474031049633E-01 -1.638188622204E-01
     24 F   6 C    -3.887780328163E-01  2.913575841285E-01  1.638188622204E-01
     25 T   6 C    -5.954022202327E-02 -1.875454221537E-01  4.888945853208E-01
     26 F   6 C     3.235599925256E-01  4.515651926560E-01 -4.888945853208E-01
     27 F   6 C     1.875454221537E-01 -3.235599925256E-01  1.280052001304E-01
     28 F   6 C    -4.515651926560E-01  5.954022202327E-02 -1.280052001304E-01
     29 T   6 C     7.360461575660E-02 -3.880113357208E-02 -1.907160514499E-01
     30 F   6 C     1.519149178779E-01  2.643206672065E-01  1.907160514499E-01
     31 F   6 C     3.880113357208E-02 -1.519149178779E-01  1.124057493287E-01
     32 F   6 C    -2.643206672065E-01 -7.360461575660E-02 -1.124057493287E-01
     33 T   6 C    -1.542783602175E-01 -1.346284441136E-02 -3.561060860382E-01
     34 F   6 C     3.426432416268E-01  2.018277258207E-01  3.561060860382E-01
     35 F   6 C     1.346284441136E-02 -3.426432416268E-01 -1.408155158061E-01
     36 F   6 C    -2.018277258207E-01  1.542783602175E-01  1.408155158061E-01
     37 T   6 C     1.992331369306E-01  4.094668762236E-01  3.435649383974E-01
     38 F   6 C     6.590193782618E-02 -1.443318014667E-01 -3.435649383974E-01
     39 F   6 C    -4.094668762236E-01 -6.590193782618E-02 -2.102337392929E-01
     40 F   6 C     1.443318014667E-01 -1.992331369306E-01  2.102337392929E-01
     41 T   7 N    -3.062624664936E-01  1.240546393465E-03  3.148852057361E-01
     42 F   7 N    -3.136446593426E-01  3.788523277703E-01 -3.148852057361E-01
     43 F   7 N    -1.240546393465E-03  3.136446593426E-01 -3.075030128871E-01
     44 F   7 N    -3.788523277703E-01  3.062624664936E-01  3.075030128871E-01
     45 T   7 N    -4.210293481877E-01 -5.548272448604E-02  1.415894887823E-01
     46 F   7 N    -1.970722132684E-01  4.373811630300E-01 -1.415894887823E-01
     47 F   7 N     5.548272448604E-02  1.970722132684E-01 -3.655466237016E-01
     48 F   7 N    -4.373811630300E-01  4.210293481877E-01  3.655466237016E-01
     49 T   7 N    -3.959577928627E-01 -2.601415984946E-01  1.546948695997E-01
     50 F   7 N    -4.148364680942E-01  4.493473375376E-01 -1.546948695997E-01
     51 F   7 N     2.601415984946E-01  4.148364680942E-01 -1.358161943681E-01
     52 F   7 N    -4.493473375376E-01  3.959577928627E-01  1.358161943681E-01
     53 T   7 N    -4.747094314801E-01 -2.108892662900E-01  4.538061890330E-02
     54 F   7 N    -2.562698851933E-01  4.799099496166E-01 -4.538061890330E-02
     55 F   7 N     2.108892662900E-01  2.562698851933E-01 -2.638201651901E-01
     56 F   7 N    -4.799099496166E-01  4.747094314801E-01  2.638201651901E-01
     57 T   7 N    -3.834060972514E-02  2.270844001538E-02 -1.997850266356E-01
     58 F   7 N     2.224934666510E-01  1.614444169105E-01  1.997850266356E-01
     59 F   7 N    -2.270844001538E-02 -2.224934666510E-01 -6.104904974052E-02
     60 F   7 N    -1.614444169105E-01  3.834060972514E-02  6.104904974052E-02
     61 T  30 ZN   -2.500000000000E-01  2.500000000000E-01 -5.000000000000E-01
     62 T  30 ZN   -5.000000000000E-01 -5.000000000000E-01  1.717796031782E-18

 TRANSFORMATION MATRIX PRIMITIVE-CRYSTALLOGRAPHIC CELL
  0.0000  1.0000  1.0000  1.0000  0.0000  1.0000  1.0000  1.0000  0.0000

 *******************************************************************************
 CRYSTALLOGRAPHIC CELL (VOLUME=       1588.59668041)
         A              B              C           ALPHA      BETA       GAMMA 
    10.63549866    10.63549866    14.04423011    90.000000  90.000000  90.000000

 COORDINATES IN THE CRYSTALLOGRAPHIC CELL
     ATOM                 X/A                 Y/B                 Z/C    
 *******************************************************************************
      1 T   1 H     8.259710344715E-02  2.846824033880E-01 -3.532409641591E-01
      2 F   1 H    -8.259710344715E-02 -2.846824033880E-01 -3.532409641591E-01
      3 F   1 H     2.846824033880E-01 -8.259710344715E-02  3.532409641591E-01
      4 F   1 H    -2.846824033880E-01  8.259710344715E-02  3.532409641591E-01
      5 T  17 CL    9.473736319996E-03 -3.581294223491E-01  7.178783990872E-02
      6 F  17 CL   -9.473736319996E-03  3.581294223491E-01  7.178783990872E-02
      7 F  17 CL   -3.581294223491E-01 -9.473736319996E-03 -7.178783990872E-02
      8 F  17 CL    3.581294223491E-01  9.473736319996E-03 -7.178783990872E-02
      9 T  17 CL   -3.671375161271E-01  6.553080167597E-02  1.572116601180E-01
     10 F  17 CL    3.671375161271E-01 -6.553080167597E-02  1.572116601180E-01
     11 F  17 CL    6.553080167597E-02  3.671375161271E-01 -1.572116601180E-01
     12 F  17 CL   -6.553080167597E-02 -3.671375161271E-01 -1.572116601180E-01
     13 T   1 H    -1.157143960268E-01  5.709402178082E-02  1.123200042029E-01
     14 F   1 H     1.157143960268E-01 -5.709402178082E-02  1.123200042029E-01
     15 F   1 H     5.709402178082E-02  1.157143960268E-01 -1.123200042029E-01
     16 F   1 H    -5.709402178082E-02 -1.157143960268E-01 -1.123200042029E-01
     17 T   6 C    -2.311292590867E-01 -2.878213932666E-01  1.151062667384E-01
     18 F   6 C     2.311292590867E-01  2.878213932666E-01  1.151062667384E-01
     19 F   6 C    -2.878213932666E-01  2.311292590867E-01 -1.151062667384E-01
     20 F   6 C     2.878213932666E-01 -2.311292590867E-01 -1.151062667384E-01
     21 T   6 C    -2.581583773622E-01 -4.219772395826E-01  1.306196554541E-01
     22 F   6 C     2.581583773622E-01  4.219772395826E-01  1.306196554541E-01
     23 F   6 C    -4.219772395826E-01  2.581583773622E-01 -1.306196554541E-01
     24 F   6 C     4.219772395826E-01 -2.581583773622E-01 -1.306196554541E-01
     25 T   6 C    -3.195553074048E-01 -1.915501072744E-01  1.320098852512E-01
     26 F   6 C     3.195553074048E-01  1.915501072744E-01  1.320098852512E-01
     27 F   6 C    -1.915501072744E-01  3.195553074048E-01 -1.320098852512E-01
     28 F   6 C     1.915501072744E-01 -3.195553074048E-01 -1.320098852512E-01
     29 T   6 C    -1.515609003893E-01 -3.915515106063E-02  1.127597668172E-01
     30 F   6 C     1.515609003893E-01  3.915515106063E-02  1.127597668172E-01
     31 F   6 C    -3.915515106063E-02  1.515609003893E-01 -1.127597668172E-01
     32 F   6 C     3.915515106063E-02 -1.515609003893E-01 -1.127597668172E-01
     33 T   6 C    -1.076452851160E-01 -2.484608009221E-01  9.418244070467E-02
     34 F   6 C     1.076452851160E-01  2.484608009221E-01  9.418244070467E-02
     35 F   6 C    -2.484608009221E-01  1.076452851160E-01 -9.418244070467E-02
     36 F   6 C     2.484608009221E-01 -1.076452851160E-01 -9.418244070467E-02
     37 T   6 C     2.768993388451E-01  6.666559955223E-02  1.325675373784E-01
     38 F   6 C    -2.768993388451E-01 -6.666559955223E-02  1.325675373784E-01
     39 F   6 C     6.666559955223E-02 -2.768993388451E-01 -1.325675373784E-01
     40 F   6 C    -6.666559955223E-02  2.768993388451E-01 -1.325675373784E-01
     41 T   7 N    -1.888058906884E-01 -4.963089035755E-01  1.900464370819E-01
     42 F   7 N     1.888058906884E-01  4.963089035755E-01  1.900464370819E-01
     43 F   7 N    -4.963089035755E-01  1.888058906884E-01 -1.900464370819E-01
     44 F   7 N     4.963089035755E-01 -1.888058906884E-01 -1.900464370819E-01
     45 T   7 N    -2.464319437580E-01  3.880214325403E-01  1.909492192720E-01
     46 F   7 N     2.464319437580E-01 -3.880214325403E-01  1.909492192720E-01
     47 F   7 N     3.880214325403E-01  2.464319437580E-01 -1.909492192720E-01
     48 F   7 N    -3.880214325403E-01 -2.464319437580E-01 -1.909492192720E-01
     49 T   7 N     1.452555319839E-01  9.439337615771E-03 -4.053971304785E-01
     50 F   7 N    -1.452555319839E-01 -9.439337615771E-03 -4.053971304785E-01
     51 F   7 N     9.439337615771E-03 -1.452555319839E-01  4.053971304785E-01
     52 F   7 N    -9.439337615771E-03  1.452555319839E-01  4.053971304785E-01
     53 T   7 N    -3.453996079533E-01  3.907802268566E-01  1.345103416633E-01
     54 F   7 N     3.453996079533E-01 -3.907802268566E-01  1.345103416633E-01
     55 F   7 N     3.907802268566E-01  3.453996079533E-01 -1.345103416633E-01
     56 F   7 N    -3.907802268566E-01 -3.453996079533E-01 -1.345103416633E-01
     57 T   7 N    -6.936798844755E-02 -1.304170381881E-01  9.207642846294E-02
     58 F   7 N     6.936798844755E-02  1.304170381881E-01  9.207642846294E-02
     59 F   7 N    -1.304170381881E-01  6.936798844755E-02 -9.207642846294E-02
     60 F   7 N     1.304170381881E-01 -6.936798844755E-02 -9.207642846294E-02
     61 T  30 ZN    4.626932236752E-17  5.000000000000E-01  2.500000000000E-01
     62 T  30 ZN    0.000000000000E+00  1.717796031782E-18 -5.000000000000E-01

 T = ATOM BELONGING TO THE ASYMMETRIC UNIT
 INFORMATION **** fort.34 **** GEOMETRY OUTPUT FILE

 DIRECT LATTICE VECTORS CARTESIAN COMPONENTS (ANGSTROM)
          X                    Y                    Z
  -0.531774932855E+01   0.531774932855E+01   0.702211505325E+01
   0.531774932855E+01  -0.531774932855E+01   0.702211505325E+01
   0.531774932855E+01   0.531774932855E+01  -0.702211505325E+01


 CARTESIAN COORDINATES - PRIMITIVE CELL
 *******************************************************************************
 *      ATOM          X(ANGSTROM)         Y(ANGSTROM)         Z(ANGSTROM)
 *******************************************************************************
    1     1 H     8.784613827917E-01  3.027739318930E+00 -4.960997383693E+00
    2     1 H    -8.784613827917E-01 -3.027739318930E+00 -4.960997383693E+00
    3     1 H     3.027739318930E+00 -8.784613827917E-01  4.960997383693E+00
    4     1 H    -3.027739318930E+00  8.784613827917E-01  4.960997383693E+00
    5    17 CL    1.007579099089E-01 -3.808884990458E+00  1.008204942527E+00
    6    17 CL   -1.007579099089E-01  3.808884990458E+00  1.008204942527E+00
    7    17 CL   -3.808884990458E+00 -1.007579099089E-01 -1.008204942527E+00
    8    17 CL    3.808884990458E+00  1.007579099089E-01 -1.008204942527E+00
    9    17 CL   -3.904690559737E+00  6.969527532228E-01  2.207916730123E+00
   10    17 CL    3.904690559737E+00 -6.969527532228E-01  2.207916730123E+00
   11    17 CL    6.969527532228E-01  3.904690559737E+00 -2.207916730123E+00
   12    17 CL   -6.969527532228E-01 -3.904690559737E+00 -2.207916730123E+00
   13     1 H    -1.230680303549E+00  6.072233919778E-01  1.577447984589E+00
   14     1 H     1.230680303549E+00 -6.072233919778E-01  1.577447984589E+00
   15     1 H     6.072233919778E-01  1.230680303549E+00 -1.577447984589E+00
   16     1 H    -6.072233919778E-01 -1.230680303549E+00 -1.577447984589E+00
   17     6 C    -2.458174924631E+00 -3.061124041569E+00  1.616578896774E+00
   18     6 C     2.458174924631E+00  3.061124041569E+00  1.616578896774E+00
   19     6 C    -3.061124041569E+00  2.458174924631E+00 -1.616578896774E+00
   20     6 C     3.061124041569E+00 -2.458174924631E+00 -1.616578896774E+00
   21     6 C    -2.745643075752E+00 -4.487938364904E+00  1.834452497629E+00
   22     6 C     2.745643075752E+00  4.487938364904E+00  1.834452497629E+00
   23     6 C    -4.487938364904E+00  2.745643075752E+00 -1.834452497629E+00
   24     6 C     4.487938364904E+00 -2.745643075752E+00 -1.834452497629E+00
   25     6 C    -3.398630042770E+00 -2.037230908683E+00  1.853977204800E+00
   26     6 C     3.398630042770E+00  2.037230908683E+00  1.853977204800E+00
   27     6 C    -2.037230908683E+00  3.398630042770E+00 -1.853977204800E+00
   28     6 C     2.037230908683E+00 -3.398630042770E+00 -1.853977204800E+00
   29     6 C    -1.611925752558E+00 -4.164345565235E-01  1.583624111937E+00
   30     6 C     1.611925752558E+00  4.164345565235E-01  1.583624111937E+00
   31     6 C    -4.164345565235E-01  1.611925752558E+00 -1.583624111937E+00
   32     6 C     4.164345565235E-01 -1.611925752558E+00 -1.583624111937E+00
   33     6 C    -1.144861285294E+00 -2.642504514547E+00  1.322719869249E+00
   34     6 C     1.144861285294E+00  2.642504514547E+00  1.322719869249E+00
   35     6 C    -2.642504514547E+00  1.144861285294E+00 -1.322719869249E+00
   36     6 C     2.642504514547E+00 -1.144861285294E+00 -1.322719869249E+00
   37     6 C     2.944962546437E+00  7.090218945119E-01  1.861808999595E+00
   38     6 C    -2.944962546437E+00 -7.090218945119E-01  1.861808999595E+00
   39     6 C     7.090218945119E-01 -2.944962546437E+00 -1.861808999595E+00
   40     6 C    -7.090218945119E-01  2.944962546437E+00 -1.861808999595E+00
   41     7 N    -2.008044796868E+00  5.357005979611E+00  2.669055893300E+00
   42     7 N     2.008044796868E+00 -5.357005979611E+00  2.669055893300E+00
   43     7 N     5.357005979611E+00  2.008044796868E+00 -2.669055893300E+00
   44     7 N    -5.357005979611E+00 -2.008044796868E+00 -2.669055893300E+00
   45     7 N    -2.620926606902E+00  4.126801424705E+00  2.681734774113E+00
   46     7 N     2.620926606902E+00 -4.126801424705E+00  2.681734774113E+00
   47     7 N     4.126801424705E+00  2.620926606902E+00 -2.681734774113E+00
   48     7 N    -4.126801424705E+00 -2.620926606902E+00 -2.681734774113E+00
   49     7 N     1.544865015350E+00  1.003920625364E-01 -5.693490584956E+00
   50     7 N    -1.544865015350E+00 -1.003920625364E-01 -5.693490584956E+00
   51     7 N     1.003920625364E-01 -1.544865015350E+00  5.693490584956E+00
   52     7 N    -1.003920625364E-01  1.544865015350E+00  5.693490584956E+00
   53     7 N    -3.673497066547E+00  4.156142577951E+00  1.889094190024E+00
   54     7 N     3.673497066547E+00 -4.156142577951E+00  1.889094190024E+00
   55     7 N     4.156142577951E+00  3.673497066547E+00 -1.889094190024E+00
   56     7 N    -4.156142577951E+00 -3.673497066547E+00 -1.889094190024E+00
   57     7 N    -7.377631479790E-01 -1.387050234511E+00  1.293142548719E+00
   58     7 N     7.377631479790E-01  1.387050234511E+00  1.293142548719E+00
   59     7 N    -1.387050234511E+00  7.377631479790E-01 -1.293142548719E+00
   60     7 N     1.387050234511E+00 -7.377631479790E-01 -1.293142548719E+00
   61    30 ZN    4.920973159042E-16  5.317749328545E+00 -1.053317257988E+01
   62    30 ZN    0.000000000000E+00  1.826961738917E-17  7.022115053252E+00

 ****    4 SYMMOPS - TRANSLATORS IN FRACTIONAL UNITS
 **** MATRICES AND TRANSLATORS IN THE CRYSTALLOGRAPHIC REFERENCE FRAME
   V INV                    ROTATION MATRICES                   TRANSLATORS
   1   1  1.00  0.00  0.00  0.00  1.00  0.00  0.00  0.00  1.00  0.00  0.00  0.00
   2   2 -0.00  1.00 -1.00  1.00  0.00 -1.00 -0.00  0.00 -1.00  0.00  0.00  0.00
   3   4  0.00 -1.00  0.00  0.00 -1.00  1.00  1.00 -1.00  0.00  0.00  0.00  0.00
   4   3 -1.00  0.00  1.00 -1.00  0.00 -0.00 -1.00  1.00 -0.00  0.00  0.00  0.00
 TTTTTTTTTTTTTTTTTTTTTTTTTTTTTT END         TELAPSE    98431.90 TCPU    95624.25
 EEEEEEEEEE TERMINATION  DATE 20 11 2023 TIME 15:15:57.8
NODE    0 CPU TIME =     95624.254
NODE    1 CPU TIME =     96166.324
NODE    2 CPU TIME =     96562.943
NODE    3 CPU TIME =     96110.801
NODE    4 CPU TIME =     96607.150
NODE    5 CPU TIME =     96038.533
NODE    6 CPU TIME =     96477.091
NODE    7 CPU TIME =     96283.588
NODE    8 CPU TIME =     96207.862
NODE    9 CPU TIME =     96072.316
NODE   10 CPU TIME =     96160.146
NODE   11 CPU TIME =     96131.450
NODE   12 CPU TIME =     95993.358
NODE   13 CPU TIME =     95968.590
NODE   14 CPU TIME =     96052.612
NODE   15 CPU TIME =     95877.721
NODE   16 CPU TIME =     95983.831
NODE   17 CPU TIME =     95907.303
NODE   18 CPU TIME =     96109.671
NODE   19 CPU TIME =     95965.074
NODE   20 CPU TIME =     96147.178
NODE   21 CPU TIME =     95662.077
NODE   22 CPU TIME =     95963.711
NODE   23 CPU TIME =     95828.228
    TOTAL CPU TIME =   2305901.812
trying normal rsh (/usr/bin/rsh)
exec: No such file or directory
trying normal rsh (/usr/bin/rsh)
exec: No such file or directory
trying normal rsh (/usr/bin/rsh)
exec: No such file or directory
trying normal rsh (/usr/bin/rsh)
exec: No such file or directory
