Loading crystal17/1.0.2/intel/19.0
  Loading requirement: intel/19.0 ompi/4.0.1/intel/19.0
 PROCESS            0  OF           24  WORKING
 PROCESS            1  OF           24  WORKING
 PROCESS            2  OF           24  WORKING
 PROCESS            4  OF           24  WORKING
 PROCESS            5  OF           24  WORKING
 PROCESS            6  OF           24  WORKING
 PROCESS            7  OF           24  WORKING
 PROCESS            8  OF           24  WORKING
 PROCESS            9  OF           24  WORKING
 PROCESS           10  OF           24  WORKING
 PROCESS           11  OF           24  WORKING
 PROCESS           12  OF           24  WORKING
 PROCESS           13  OF           24  WORKING
 PROCESS           15  OF           24  WORKING
 PROCESS           16  OF           24  WORKING
 PROCESS           17  OF           24  WORKING
 PROCESS           18  OF           24  WORKING
 PROCESS           19  OF           24  WORKING
 PROCESS           20  OF           24  WORKING
 PROCESS           21  OF           24  WORKING
 PROCESS           22  OF           24  WORKING
 PROCESS           23  OF           24  WORKING
 PROCESS            3  OF           24  WORKING
 PROCESS           14  OF           24  WORKING

         
 *******************************************************************************
 *                                                                             *
 *                               CRYSTAL17                                     *
 *                      public : 1.0.2 - March 1st, 2018                       *
 *                       HTTP://WWW.CRYSTAL.UNITO.IT                           *
 *                                                                             *
 *                              MAIN AUTHORS                                   *
 *                                                                             *
 *  R. DOVESI(1,11), V.R. SAUNDERS(2), C. ROETTI(1,11), R. ORLANDO(1,11),      *
 *  C.M. ZICOVICH-WILSON(1,3), F. PASCALE(4), B. CIVALLERI(1,11),              *
 *  K. DOLL(5), N.M. HARRISON(2,6), I.J. BUSH(7), Ph. D'ARCO(8),               *
 *  M. LLUNELL(9), M. CAUSA'(10), Y. NOEL(8), L. MASCHIO(1,11), A. ERBA(1,11)  *
 *  M. RE'RAT(14), S. CASASSA(1,11)                                            *
 *                                                                             *
 *        CONTRIBUTIONS TO THE CODE HAVE ALSO BEEN GIVEN BY                    *
 *                                                                             *
 *  M. FERRABONE(1,11), M. DE LA PIERRE(1,11), M. FERRERO(1,11),               *
 *  J. BAIMA(1,11), E. ALBANESE(1,11), M.F. PEINTINGER(12), R. BAST(13),       *
 *  B. KIRTMAN(15), V. LACIVITA(1,11), R. DEMICHELIS(1,16)                     *
 *  G. BRANDEBURG(17), S. SALUSTRO(1,11), G. SANSONE(1,11)                     *
 *  M.T. RUGGIERO(18)                                                          *
 *                                                                             *
 * (1) THEORETICAL CHEMISTRY GROUP - UNIVERSITA' DI TORINO - TORINO (ITALY)    *
 * (2) COMPUTATIONAL SCIENCE & ENGINEERING DEPARTMENT - STFC DARESBURY (UK)    *
 * (3) UNIVERSIDAD AUTONOMA DEL ESTADO DE MORELOS - CUERNAVACA (MEXICO)        *
 * (4) UNIVERSITE' DE LORRAINE - NANCY (FRANCE)                                *
 * (5) UNIVERSITAET STUTTGART- STUTTGART (GERMANY)                             *
 * (6) IMPERIAL COLLEGE - LONDON (UK)                                          *
 * (7) OXFORD E-RESEARCH CENTRE - OXFORD (UK)                                  *
 * (8) UPMC - SORBONNE UNIVERSITES - PARIS (FRANCE)                            *
 * (9) UNIVERSIDAD DE BARCELONA - BARCELONA (SPAIN)                            *
 *(10) UNIVERSITA' DI NAPOLI "FEDERICO II" - NAPOLI (ITALY)                    *
 *(11) NIS - NANOSTRUCTURED INTERFACES AND SURFACES - TORINO (ITALY)           *
 *(12) MPI FUER CHEMISCHE ENERGIEKONVERSION - MUELHEIM AN DER RUHR (GERMANY)   *
 *(13) UNIVERSITY OF TROMSO - TROMSO (NORWAY)                                  *
 *(14) UNIVERSITE' DE PAU ET DES PAYS DE L'ADOUR - PAU (FRANCE)                *
 *(15) UNIVERSITY OF CALIFORNIA SANTA BARBARA - SANTA BARBARA (USA)            *
 *(16) CURTIN UNIVERSITY - PERTH (AUSTRALIA)                                   *
 *(17) UNIVERSITY COLLEGE LONDON - LONDON (UK)                                 *
 *(18) CAMBRIDGE UNIVERSITY - CAMBRIDGE (UK)                                   *
 *                                                                             *
 *******************************************************************************
 EEEEEEEEEE STARTING  DATE 19 11 2023 TIME 13:18:48.6
 C:\Users\wilso\AppData\Local\Temp\tmp_p\newconn.mol                             

 CRYSTAL CALCULATION
 (INPUT ACCORDING TO THE INTERNATIONAL TABLES FOR X-RAY CRYSTALLOGRAPHY)
 CRYSTAL FAMILY                       :  TETRAGONAL  
 CRYSTAL CLASS  (GROTH - 1921)        :  TETRAGONAL DISPHENOIDAL              

 SPACE GROUP (NONCENTROSYMMETRIC)     :  I -4            

 LATTICE PARAMETERS  (ANGSTROMS AND DEGREES) - CONVENTIONAL CELL
        A           B           C        ALPHA        BETA       GAMMA
    10.15800    10.15800    13.29400    90.00000    90.00000    90.00000


 NUMBER OF IRREDUCIBLE ATOMS IN THE CONVENTIONAL CELL:  124

 INPUT COORDINATES

 ATOM AT. N.              COORDINATES
   1   1     5.576100000000E-01  7.373700000000E-01  1.366700000000E-01
   2   1     4.423900000000E-01  2.626300000000E-01  1.366700000000E-01
   3   1     7.373700000000E-01  4.423900000000E-01  8.633300000000E-01
   4   1     2.626300000000E-01  5.576100000000E-01  8.633300000000E-01
   5   1     5.761000000000E-02  2.373700000000E-01  6.366700000000E-01
   6   1     9.423900000000E-01  7.626300000000E-01  6.366700000000E-01
   7   1     2.373700000000E-01  9.423900000000E-01  3.633300000000E-01
   8   1     7.626300000000E-01  5.761000000000E-02  3.633300000000E-01
   9  17     9.759200000000E-01  6.751900000000E-01  9.083000000000E-02
  10  17     2.408000000000E-02  3.248100000000E-01  9.083000000000E-02
  11  17     6.751900000000E-01  2.408000000000E-02  9.091700000000E-01
  12  17     3.248100000000E-01  9.759200000000E-01  9.091700000000E-01
  13  17     4.759200000000E-01  1.751900000000E-01  5.908300000000E-01
  14  17     5.240800000000E-01  8.248100000000E-01  5.908300000000E-01
  15  17     1.751900000000E-01  5.240800000000E-01  4.091700000000E-01
  16  17     8.248100000000E-01  4.759200000000E-01  4.091700000000E-01
  17   1     6.058200000000E-01  9.805800000000E-01  1.369900000000E-01
  18   1     3.941800000000E-01  1.942000000000E-02  1.369900000000E-01
  19   1     9.805800000000E-01  3.941800000000E-01  8.630100000000E-01
  20   1     1.942000000000E-02  6.058200000000E-01  8.630100000000E-01
  21   1     1.058200000000E-01  4.805800000000E-01  6.369900000000E-01
  22   1     8.941800000000E-01  5.194200000000E-01  6.369900000000E-01
  23   1     4.805800000000E-01  8.941800000000E-01  3.630100000000E-01
  24   1     5.194200000000E-01  1.058200000000E-01  3.630100000000E-01
  25  17     8.420800000000E-01  5.709000000000E-02  1.240200000000E-01
  26  17     1.579200000000E-01  9.429100000000E-01  1.240200000000E-01
  27  17     5.709000000000E-02  1.579200000000E-01  8.759800000000E-01
  28  17     9.429100000000E-01  8.420800000000E-01  8.759800000000E-01
  29  17     3.420800000000E-01  5.570900000000E-01  6.240200000000E-01
  30  17     6.579200000000E-01  4.429100000000E-01  6.240200000000E-01
  31  17     5.570900000000E-01  6.579200000000E-01  3.759800000000E-01
  32  17     4.429100000000E-01  3.420800000000E-01  3.759800000000E-01
  33   6     2.646500000000E-01  1.859800000000E-01  6.165500000000E-01
  34   6     7.353500000000E-01  8.140200000000E-01  6.165500000000E-01
  35   6     1.859800000000E-01  7.353500000000E-01  3.834500000000E-01
  36   6     8.140200000000E-01  2.646500000000E-01  3.834500000000E-01
  37   6     7.646500000000E-01  6.859800000000E-01  1.165500000000E-01
  38   6     2.353500000000E-01  3.140200000000E-01  1.165500000000E-01
  39   6     6.859800000000E-01  2.353500000000E-01  8.834500000000E-01
  40   6     3.140200000000E-01  7.646500000000E-01  8.834500000000E-01
  41   6     2.514000000000E-01  4.317000000000E-02  6.230000000000E-01
  42   6     7.486000000000E-01  9.568300000000E-01  6.230000000000E-01
  43   6     4.317000000000E-02  7.486000000000E-01  3.770000000000E-01
  44   6     9.568300000000E-01  2.514000000000E-01  3.770000000000E-01
  45   6     7.514000000000E-01  5.431700000000E-01  1.230000000000E-01
  46   6     2.486000000000E-01  4.568300000000E-01  1.230000000000E-01
  47   6     5.431700000000E-01  2.486000000000E-01  8.770000000000E-01
  48   6     4.568300000000E-01  7.514000000000E-01  8.770000000000E-01
  49   6     6.583700000000E-01  7.736700000000E-01  1.273400000000E-01
  50   6     3.416300000000E-01  2.263300000000E-01  1.273400000000E-01
  51   6     7.736700000000E-01  3.416300000000E-01  8.726600000000E-01
  52   6     2.263300000000E-01  6.583700000000E-01  8.726600000000E-01
  53   6     1.583700000000E-01  2.736700000000E-01  6.273400000000E-01
  54   6     8.416300000000E-01  7.263300000000E-01  6.273400000000E-01
  55   6     2.736700000000E-01  8.416300000000E-01  3.726600000000E-01
  56   6     7.263300000000E-01  1.583700000000E-01  3.726600000000E-01
  57   6     8.156900000000E-01  9.525900000000E-01  1.204300000000E-01
  58   6     1.843100000000E-01  4.741000000000E-02  1.204300000000E-01
  59   6     9.525900000000E-01  1.843100000000E-01  8.795700000000E-01
  60   6     4.741000000000E-02  8.156900000000E-01  8.795700000000E-01
  61   6     3.156900000000E-01  4.525900000000E-01  6.204300000000E-01
  62   6     6.843100000000E-01  5.474100000000E-01  6.204300000000E-01
  63   6     4.525900000000E-01  6.843100000000E-01  3.795700000000E-01
  64   6     5.474100000000E-01  3.156900000000E-01  3.795700000000E-01
  65   6     3.914300000000E-01  2.396500000000E-01  6.044300000000E-01
  66   6     6.085700000000E-01  7.603500000000E-01  6.044300000000E-01
  67   6     2.396500000000E-01  6.085700000000E-01  3.955700000000E-01
  68   6     7.603500000000E-01  3.914300000000E-01  3.955700000000E-01
  69   6     8.914300000000E-01  7.396500000000E-01  1.044300000000E-01
  70   6     1.085700000000E-01  2.603500000000E-01  1.044300000000E-01
  71   6     7.396500000000E-01  1.085700000000E-01  8.955700000000E-01
  72   6     2.603500000000E-01  8.914300000000E-01  8.955700000000E-01
  73   6     3.150000000000E-01  9.141000000000E-02  1.282200000000E-01
  74   6     6.850000000000E-01  9.085900000000E-01  1.282200000000E-01
  75   6     9.141000000000E-02  6.850000000000E-01  8.717800000000E-01
  76   6     9.085900000000E-01  3.150000000000E-01  8.717800000000E-01
  77   6     8.150000000000E-01  5.914100000000E-01  6.282200000000E-01
  78   6     1.850000000000E-01  4.085900000000E-01  6.282200000000E-01
  79   6     5.914100000000E-01  1.850000000000E-01  3.717800000000E-01
  80   6     4.085900000000E-01  8.150000000000E-01  3.717800000000E-01
  81   7     8.407700000000E-01  4.628300000000E-01  1.672900000000E-01
  82   7     1.592300000000E-01  5.371700000000E-01  1.672900000000E-01
  83   7     4.628300000000E-01  1.592300000000E-01  8.327100000000E-01
  84   7     5.371700000000E-01  8.407700000000E-01  8.327100000000E-01
  85   7     3.407700000000E-01  9.628300000000E-01  6.672900000000E-01
  86   7     6.592300000000E-01  3.717000000000E-02  6.672900000000E-01
  87   7     9.628300000000E-01  6.592300000000E-01  3.327100000000E-01
  88   7     3.717000000000E-02  3.407700000000E-01  3.327100000000E-01
  89   7     2.940400000000E-01  8.358500000000E-01  6.597700000000E-01
  90   7     7.059600000000E-01  1.641500000000E-01  6.597700000000E-01
  91   7     8.358500000000E-01  7.059600000000E-01  3.402300000000E-01
  92   7     1.641500000000E-01  2.940400000000E-01  3.402300000000E-01
  93   7     7.940400000000E-01  3.358500000000E-01  1.597700000000E-01
  94   7     2.059600000000E-01  6.641500000000E-01  1.597700000000E-01
  95   7     3.358500000000E-01  2.059600000000E-01  8.402300000000E-01
  96   7     6.641500000000E-01  7.940400000000E-01  8.402300000000E-01
  97   7     1.518600000000E-01  9.677900000000E-01  5.884000000000E-01
  98   7     8.481400000000E-01  3.221000000000E-02  5.884000000000E-01
  99   7     9.677900000000E-01  8.481400000000E-01  4.116000000000E-01
 100   7     3.221000000000E-02  1.518600000000E-01  4.116000000000E-01
 101   7     6.518600000000E-01  4.677900000000E-01  8.840000000000E-02
 102   7     3.481400000000E-01  5.322100000000E-01  8.840000000000E-02
 103   7     4.677900000000E-01  3.481400000000E-01  9.116000000000E-01
 104   7     5.322100000000E-01  6.518600000000E-01  9.116000000000E-01
 105   7     1.800200000000E-01  8.388700000000E-01  6.128200000000E-01
 106   7     8.199800000000E-01  1.611300000000E-01  6.128200000000E-01
 107   7     8.388700000000E-01  8.199800000000E-01  3.871800000000E-01
 108   7     1.611300000000E-01  1.800200000000E-01  3.871800000000E-01
 109   7     6.800200000000E-01  3.388700000000E-01  1.128200000000E-01
 110   7     3.199800000000E-01  6.611300000000E-01  1.128200000000E-01
 111   7     3.388700000000E-01  3.199800000000E-01  8.871800000000E-01
 112   7     6.611300000000E-01  6.800200000000E-01  8.871800000000E-01
 113   7     9.174200000000E-01  8.687700000000E-01  1.079100000000E-01
 114   7     8.258000000000E-02  1.312300000000E-01  1.079100000000E-01
 115   7     8.687700000000E-01  8.258000000000E-02  8.920900000000E-01
 116   7     1.312300000000E-01  9.174200000000E-01  8.920900000000E-01
 117   7     4.174200000000E-01  3.687700000000E-01  6.079100000000E-01
 118   7     5.825800000000E-01  6.312300000000E-01  6.079100000000E-01
 119   7     3.687700000000E-01  5.825800000000E-01  3.920900000000E-01
 120   7     6.312300000000E-01  4.174200000000E-01  3.920900000000E-01
 121  30     0.000000000000E+00  5.000000000000E-01  2.500000000000E-01
 122  30     5.000000000000E-01  0.000000000000E+00  7.500000000000E-01
 123  30     0.000000000000E+00  0.000000000000E+00  5.000000000000E-01
 124  30     5.000000000000E-01  5.000000000000E-01  0.000000000000E+00

 *******************************************************************************

 << INFORMATION >>: FROM NOW ON, ALL COORDINATES REFER TO THE PRIMITIVE CELL

 *******************************************************************************

 LATTICE PARAMETERS  (ANGSTROMS AND DEGREES) - PRIMITIVE CELL
       A          B          C        ALPHA      BETA     GAMMA        VOLUME
    9.78647    9.78647    9.78647   117.47208 117.47208  94.43726    685.870456

 INPUT LIST - ATOM N.   2 NOT IRREDUCIBLE

 INPUT LIST - ATOM N.   3 NOT IRREDUCIBLE

 INPUT LIST - ATOM N.   4 NOT IRREDUCIBLE

 INPUT LIST - ATOM N.   1 NOT IRREDUCIBLE

 INPUT LIST - ATOM N.   2 NOT IRREDUCIBLE

 INPUT LIST - ATOM N.   3 NOT IRREDUCIBLE

 INPUT LIST - ATOM N.   4 NOT IRREDUCIBLE

 INPUT LIST - ATOM N.   6 NOT IRREDUCIBLE

 INPUT LIST - ATOM N.   7 NOT IRREDUCIBLE

 INPUT LIST - ATOM N.   8 NOT IRREDUCIBLE

 INPUT LIST - ATOM N.   5 NOT IRREDUCIBLE

 INPUT LIST - ATOM N.   6 NOT IRREDUCIBLE

 INPUT LIST - ATOM N.   7 NOT IRREDUCIBLE

 INPUT LIST - ATOM N.   8 NOT IRREDUCIBLE

 INPUT LIST - ATOM N.  10 NOT IRREDUCIBLE

 INPUT LIST - ATOM N.  11 NOT IRREDUCIBLE

 INPUT LIST - ATOM N.  12 NOT IRREDUCIBLE

 INPUT LIST - ATOM N.   9 NOT IRREDUCIBLE

 INPUT LIST - ATOM N.  10 NOT IRREDUCIBLE

 INPUT LIST - ATOM N.  11 NOT IRREDUCIBLE

 INPUT LIST - ATOM N.  12 NOT IRREDUCIBLE

 INPUT LIST - ATOM N.  14 NOT IRREDUCIBLE

 INPUT LIST - ATOM N.  15 NOT IRREDUCIBLE

 INPUT LIST - ATOM N.  16 NOT IRREDUCIBLE

 INPUT LIST - ATOM N.  13 NOT IRREDUCIBLE

 INPUT LIST - ATOM N.  14 NOT IRREDUCIBLE

 INPUT LIST - ATOM N.  15 NOT IRREDUCIBLE

 INPUT LIST - ATOM N.  16 NOT IRREDUCIBLE

 INPUT LIST - ATOM N.  18 NOT IRREDUCIBLE

 INPUT LIST - ATOM N.  19 NOT IRREDUCIBLE

 INPUT LIST - ATOM N.  20 NOT IRREDUCIBLE

 INPUT LIST - ATOM N.  17 NOT IRREDUCIBLE

 INPUT LIST - ATOM N.  18 NOT IRREDUCIBLE

 INPUT LIST - ATOM N.  19 NOT IRREDUCIBLE

 INPUT LIST - ATOM N.  20 NOT IRREDUCIBLE

 INPUT LIST - ATOM N.  22 NOT IRREDUCIBLE

 INPUT LIST - ATOM N.  23 NOT IRREDUCIBLE

 INPUT LIST - ATOM N.  24 NOT IRREDUCIBLE

 INPUT LIST - ATOM N.  21 NOT IRREDUCIBLE

 INPUT LIST - ATOM N.  22 NOT IRREDUCIBLE

 INPUT LIST - ATOM N.  23 NOT IRREDUCIBLE

 INPUT LIST - ATOM N.  24 NOT IRREDUCIBLE

 INPUT LIST - ATOM N.  26 NOT IRREDUCIBLE

 INPUT LIST - ATOM N.  27 NOT IRREDUCIBLE

 INPUT LIST - ATOM N.  28 NOT IRREDUCIBLE

 INPUT LIST - ATOM N.  25 NOT IRREDUCIBLE

 INPUT LIST - ATOM N.  26 NOT IRREDUCIBLE

 INPUT LIST - ATOM N.  27 NOT IRREDUCIBLE

 INPUT LIST - ATOM N.  28 NOT IRREDUCIBLE

 INPUT LIST - ATOM N.  30 NOT IRREDUCIBLE

 INPUT LIST - ATOM N.  31 NOT IRREDUCIBLE

 INPUT LIST - ATOM N.  32 NOT IRREDUCIBLE

 INPUT LIST - ATOM N.  29 NOT IRREDUCIBLE

 INPUT LIST - ATOM N.  30 NOT IRREDUCIBLE

 INPUT LIST - ATOM N.  31 NOT IRREDUCIBLE

 INPUT LIST - ATOM N.  32 NOT IRREDUCIBLE

 INPUT LIST - ATOM N.  34 NOT IRREDUCIBLE

 INPUT LIST - ATOM N.  35 NOT IRREDUCIBLE

 INPUT LIST - ATOM N.  36 NOT IRREDUCIBLE

 INPUT LIST - ATOM N.  33 NOT IRREDUCIBLE

 INPUT LIST - ATOM N.  34 NOT IRREDUCIBLE

 INPUT LIST - ATOM N.  35 NOT IRREDUCIBLE

 INPUT LIST - ATOM N.  36 NOT IRREDUCIBLE

 INPUT LIST - ATOM N.  38 NOT IRREDUCIBLE

 INPUT LIST - ATOM N.  39 NOT IRREDUCIBLE

 INPUT LIST - ATOM N.  40 NOT IRREDUCIBLE

 INPUT LIST - ATOM N.  37 NOT IRREDUCIBLE

 INPUT LIST - ATOM N.  38 NOT IRREDUCIBLE

 INPUT LIST - ATOM N.  39 NOT IRREDUCIBLE

 INPUT LIST - ATOM N.  40 NOT IRREDUCIBLE

 INPUT LIST - ATOM N.  42 NOT IRREDUCIBLE

 INPUT LIST - ATOM N.  43 NOT IRREDUCIBLE

 INPUT LIST - ATOM N.  44 NOT IRREDUCIBLE

 INPUT LIST - ATOM N.  41 NOT IRREDUCIBLE

 INPUT LIST - ATOM N.  42 NOT IRREDUCIBLE

 INPUT LIST - ATOM N.  43 NOT IRREDUCIBLE

 INPUT LIST - ATOM N.  44 NOT IRREDUCIBLE

 INPUT LIST - ATOM N.  46 NOT IRREDUCIBLE

 INPUT LIST - ATOM N.  47 NOT IRREDUCIBLE

 INPUT LIST - ATOM N.  48 NOT IRREDUCIBLE

 INPUT LIST - ATOM N.  45 NOT IRREDUCIBLE

 INPUT LIST - ATOM N.  46 NOT IRREDUCIBLE

 INPUT LIST - ATOM N.  47 NOT IRREDUCIBLE

 INPUT LIST - ATOM N.  48 NOT IRREDUCIBLE

 INPUT LIST - ATOM N.  50 NOT IRREDUCIBLE

 INPUT LIST - ATOM N.  51 NOT IRREDUCIBLE

 INPUT LIST - ATOM N.  52 NOT IRREDUCIBLE

 INPUT LIST - ATOM N.  49 NOT IRREDUCIBLE

 INPUT LIST - ATOM N.  50 NOT IRREDUCIBLE

 INPUT LIST - ATOM N.  51 NOT IRREDUCIBLE

 INPUT LIST - ATOM N.  52 NOT IRREDUCIBLE

 INPUT LIST - ATOM N.  54 NOT IRREDUCIBLE

 INPUT LIST - ATOM N.  55 NOT IRREDUCIBLE

 INPUT LIST - ATOM N.  56 NOT IRREDUCIBLE

 INPUT LIST - ATOM N.  53 NOT IRREDUCIBLE

 INPUT LIST - ATOM N.  54 NOT IRREDUCIBLE

 INPUT LIST - ATOM N.  55 NOT IRREDUCIBLE

 INPUT LIST - ATOM N.  56 NOT IRREDUCIBLE

 INPUT LIST - ATOM N.  58 NOT IRREDUCIBLE

 INPUT LIST - ATOM N.  59 NOT IRREDUCIBLE

 INPUT LIST - ATOM N.  60 NOT IRREDUCIBLE

 INPUT LIST - ATOM N.  57 NOT IRREDUCIBLE

 INPUT LIST - ATOM N.  58 NOT IRREDUCIBLE

 INPUT LIST - ATOM N.  59 NOT IRREDUCIBLE

 INPUT LIST - ATOM N.  60 NOT IRREDUCIBLE

 INPUT LIST - ATOM N.  61 NOT IRREDUCIBLE

 INPUT LIST - ATOM N.  62 NOT IRREDUCIBLE

 COORDINATES OF THE EQUIVALENT ATOMS (FRACTIONAL UNITS)

 N. ATOM EQUIV AT. N.          X                  Y                  Z

   1   1   1    1 H    -1.25960000000E-01 -3.05720000000E-01  2.94980000000E-01
   2   1   2    1 H     3.99300000000E-01 -4.20940000000E-01 -2.94980000000E-01
   3   1   3    1 H     3.05720000000E-01 -3.99300000000E-01  1.79760000000E-01
   4   1   4    1 H     4.20940000000E-01  1.25960000000E-01 -1.79760000000E-01








   5   9   1   17 CL   -2.33980000000E-01  6.67500000000E-02 -3.48890000000E-01
   6   9   2   17 CL    4.15640000000E-01  1.14910000000E-01  3.48890000000E-01
   7   9   3   17 CL   -6.67500000000E-02 -4.15640000000E-01 -3.00730000000E-01
   8   9   4   17 CL   -1.14910000000E-01  2.33980000000E-01  3.00730000000E-01








   9  17   1    1 H     1.17570000000E-01 -2.57190000000E-01 -4.13600000000E-01
  10  17   2    1 H     1.56410000000E-01 -4.68830000000E-01  4.13600000000E-01
  11  17   3    1 H     2.57190000000E-01 -1.56410000000E-01  3.74760000000E-01
  12  17   4    1 H     4.68830000000E-01 -1.17570000000E-01 -3.74760000000E-01

 NUMBER OF SYMMETRY OPERATORS         :    4
 *******************************************************************************
 * GEOMETRY EDITING - INPUT COORDINATES ARE GIVEN IN ANGSTROM         
 *******************************************************************************

 GEOMETRY NOW FULLY CONSISTENT WITH THE GROUP
 *******************************************************************************
 *  GEOMETRY EDITING
 *  THE SYMMETRY OF THE CRYSTAL IS KEPT AND APPLIED TO THE PERTURBATION
 *******************************************************************************
 INFORMATION **** NEW DEFAULT **** FINALRUN 4 FOR GEOMETRY OPTIMIZATIONS
 INFORMATION **** NEW DEFAULT **** OPTGEOM OPTIMIZES BOTH ATOMIC COORDINATES AND CELL PARAMETERS
 INFORMATION **** NEW DEFAULT **** TOL. ON ATOMIC DISP TO REDEFINE REF. GEOMETRY: 0.8 Angs
 INFORMATION **** NEW DEFAULT **** N POINTS TO REDEFINE REF. GEOMETRY: N OF OPT DEGS OF FREEDOM
 INFORMATION **** NEW DEFAULT **** TOL. ON ENERGY TO REDEFINE REF. GEOMETRY: 10**-3*(5*N. ATOMS)

 IMPORTANT INFORMATION:
 THE COORDINATE SYSTEM ADOPTED IN THE OPTIMIZATION IS NOT IN
 GENERAL HOMOGENEOUS UNITS. FOR THIS REASON THE GRADIENT AND 
 HESSIAN MATRIX IN TERMS OF THIS SYSTEM ARE GIVEN WITHOUT
 UNITS. FOR MORE DETAILS SEE THE MANUAL.

 *******************************************************************************
 COMBINED CELL/ATOM OPTIMIZATION CONTROL

 INITIAL TRUST RADIUS         0.50000 MAXIMUM TRUST RADIUS               4.00000
 MAXIMUM GRADIENT COMPONENT   0.00045 MAXIMUM DISPLACEMENT COMPONENT     0.00180
 R.M.S. OF GRADIENT COMPONENT 0.00030 R.M.S. OF DISPLACEMENT COMPONENTS  0.00120
 THRESHOLD ON ENERGY CHANGE 0.100E-06 EXTRAPOLATING POLYNOMIAL ORDER           2
 MAXIMUM ALLOWED NUMBER OF STEPS   -1 SORTING OF ENERGY POINTS:               NO
 ANALYTICAL  GRADIENT                 HESSIAN UPDATING                      BFGS
 STEP SIZE NUMERICAL GRADIENT 0.00100
 INITIAL HESSIAN MATRIX: SCHLEGEL MODEL 2
 *******************************************************************************


 GCALCO - MAX INDICES DIRECT LATTICE VECTOR    14    14    16
 NO.OF VECTORS CREATED 6999 STARS  481 RMAX   197.96270 BOHR

 GEOMETRY FOR WAVE FUNCTION - DIMENSIONALITY OF THE SYSTEM    3
 (NON PERIODIC DIRECTION: LATTICE PARAMETER FORMALLY SET TO 500)
 *******************************************************************************
 LATTICE PARAMETERS (ANGSTROMS AND DEGREES) - BOHR = 0.5291772083 ANGSTROM
 PRIMITIVE CELL - CENTRING CODE 6/0 VOLUME=   685.870456 - DENSITY  2.382 g/cm^3
         A              B              C           ALPHA      BETA       GAMMA 
     9.78647490     9.78647490     9.78647490   117.472078 117.472078  94.437262
 *******************************************************************************
 ATOMS IN THE ASYMMETRIC UNIT   17 - ATOMS IN THE UNIT CELL:   62
     ATOM                 X/A                 Y/B                 Z/C    
 *******************************************************************************
      1 T   1 H    -1.259600000000E-01 -3.057200000000E-01  2.949800000000E-01
      2 F   1 H     3.993000000000E-01 -4.209400000000E-01 -2.949800000000E-01
      3 F   1 H     3.057200000000E-01 -3.993000000000E-01  1.797600000000E-01
      4 F   1 H     4.209400000000E-01  1.259600000000E-01 -1.797600000000E-01
      5 T  17 CL   -2.339800000000E-01  6.675000000000E-02 -3.488900000000E-01
      6 F  17 CL    4.156400000000E-01  1.149100000000E-01  3.488900000000E-01
      7 F  17 CL   -6.675000000000E-02 -4.156400000000E-01 -3.007300000000E-01
      8 F  17 CL   -1.149100000000E-01  2.339800000000E-01  3.007300000000E-01
      9 T   1 H     1.175700000000E-01 -2.571900000000E-01 -4.136000000000E-01
     10 F   1 H     1.564100000000E-01 -4.688300000000E-01  4.136000000000E-01
     11 F   1 H     2.571900000000E-01 -1.564100000000E-01  3.747600000000E-01
     12 F   1 H     4.688300000000E-01 -1.175700000000E-01 -3.747600000000E-01
     13 T  17 CL    1.811100000000E-01 -3.390000000000E-02 -1.008300000000E-01
     14 F  17 CL    6.693000000000E-02  2.819400000000E-01  1.008300000000E-01
     15 F  17 CL    3.390000000000E-02 -6.693000000000E-02  2.150100000000E-01
     16 F  17 CL   -2.819400000000E-01 -1.811100000000E-01 -2.150100000000E-01
     17 T   6 C    -1.974700000000E-01 -1.188000000000E-01  4.506300000000E-01
     18 F   6 C     4.305700000000E-01  3.519000000000E-01 -4.506300000000E-01
     19 F   6 C     1.188000000000E-01 -4.305700000000E-01 -7.867000000000E-02
     20 F   6 C    -3.519000000000E-01  1.974700000000E-01  7.867000000000E-02
     21 T   6 C    -3.338300000000E-01 -1.256000000000E-01  2.945700000000E-01
     22 F   6 C    -4.201700000000E-01  3.716000000000E-01 -2.945700000000E-01
     23 F   6 C     1.256000000000E-01  4.201700000000E-01 -2.082300000000E-01
     24 F   6 C    -3.716000000000E-01  3.338300000000E-01  2.082300000000E-01
     25 T   6 C    -9.899000000000E-02 -2.142900000000E-01  4.320400000000E-01
     26 F   6 C     3.536700000000E-01  4.689700000000E-01 -4.320400000000E-01
     27 F   6 C     2.142900000000E-01 -3.536700000000E-01  1.153000000000E-01
     28 F   6 C    -4.689700000000E-01  9.899000000000E-02 -1.153000000000E-01
     29 T   6 C     7.302000000000E-02 -6.388000000000E-02 -2.317200000000E-01
     30 F   6 C     1.678400000000E-01  3.047400000000E-01  2.317200000000E-01
     31 F   6 C     6.388000000000E-02 -1.678400000000E-01  1.369000000000E-01
     32 F   6 C    -3.047400000000E-01 -7.302000000000E-02 -1.369000000000E-01
     33 T   6 C    -1.559200000000E-01 -4.140000000000E-03 -3.689200000000E-01
     34 F   6 C     3.647800000000E-01  2.130000000000E-01  3.689200000000E-01
     35 F   6 C     4.140000000000E-03 -3.647800000000E-01 -1.517800000000E-01
     36 F   6 C    -2.130000000000E-01  1.559200000000E-01  1.517800000000E-01
     37 T   6 C     2.196300000000E-01  4.432200000000E-01  4.064100000000E-01
     38 F   6 C     3.681000000000E-02 -1.867800000000E-01 -4.064100000000E-01
     39 F   6 C    -4.432200000000E-01 -3.681000000000E-02 -2.235900000000E-01
     40 F   6 C     1.867800000000E-01 -2.196300000000E-01  2.235900000000E-01
     41 T   7 N    -3.698800000000E-01  8.060000000000E-03  3.036000000000E-01
     42 F   7 N    -2.955400000000E-01  3.265200000000E-01 -3.036000000000E-01
     43 F   7 N    -8.060000000000E-03  2.955400000000E-01 -3.779400000000E-01
     44 F   7 N    -3.265200000000E-01  3.698800000000E-01  3.779400000000E-01
     45 T   7 N     4.956200000000E-01 -4.619000000000E-02  1.298900000000E-01
     46 F   7 N    -1.760800000000E-01  3.657300000000E-01 -1.298900000000E-01
     47 F   7 N     4.619000000000E-02  1.760800000000E-01 -4.581900000000E-01
     48 F   7 N    -3.657300000000E-01 -4.956200000000E-01  4.581900000000E-01
     49 T   7 N    -4.438100000000E-01 -2.597400000000E-01  1.196500000000E-01
     50 F   7 N    -3.793900000000E-01  4.365400000000E-01 -1.196500000000E-01
     51 F   7 N     2.597400000000E-01  3.793900000000E-01 -1.840700000000E-01
     52 F   7 N    -4.365400000000E-01  4.438100000000E-01  1.840700000000E-01
     53 T   7 N     4.516900000000E-01 -2.071600000000E-01  1.889000000000E-02
     54 F   7 N    -2.260500000000E-01  4.328000000000E-01 -1.889000000000E-02
     55 F   7 N     2.071600000000E-01  2.260500000000E-01 -3.411500000000E-01
     56 F   7 N    -4.328000000000E-01 -4.516900000000E-01  3.411500000000E-01
     57 T   7 N    -2.332000000000E-02  2.533000000000E-02 -2.138100000000E-01
     58 F   7 N     2.391400000000E-01  1.904900000000E-01  2.138100000000E-01
     59 F   7 N    -2.533000000000E-02 -2.391400000000E-01 -4.865000000000E-02
     60 F   7 N    -1.904900000000E-01  2.332000000000E-02  4.865000000000E-02
     61 T  30 ZN   -2.500000000000E-01  2.500000000000E-01  5.000000000000E-01
     62 T  30 ZN   -5.000000000000E-01  5.000000000000E-01  0.000000000000E+00

 TRANSFORMATION MATRIX PRIMITIVE-CRYSTALLOGRAPHIC CELL
  0.0000  1.0000  1.0000  1.0000  0.0000  1.0000  1.0000  1.0000  0.0000

 *******************************************************************************
 CRYSTALLOGRAPHIC CELL (VOLUME=       1371.74091142)
         A              B              C           ALPHA      BETA       GAMMA 
    10.15800000    10.15800000    13.29400000    90.000000  90.000000  90.000000

 COORDINATES IN THE CRYSTALLOGRAPHIC CELL
     ATOM                 X/A                 Y/B                 Z/C    
 *******************************************************************************
      1 T   1 H     5.761000000000E-02  2.373700000000E-01 -3.633300000000E-01
      2 F   1 H    -5.761000000000E-02 -2.373700000000E-01 -3.633300000000E-01
      3 F   1 H     2.373700000000E-01 -5.761000000000E-02  3.633300000000E-01
      4 F   1 H    -2.373700000000E-01  5.761000000000E-02  3.633300000000E-01
      5 T  17 CL   -2.408000000000E-02 -3.248100000000E-01  9.083000000000E-02
      6 F  17 CL    2.408000000000E-02  3.248100000000E-01  9.083000000000E-02
      7 F  17 CL   -3.248100000000E-01  2.408000000000E-02 -9.083000000000E-02
      8 F  17 CL    3.248100000000E-01 -2.408000000000E-02 -9.083000000000E-02
      9 T   1 H    -3.941800000000E-01 -1.942000000000E-02  1.369900000000E-01
     10 F   1 H     3.941800000000E-01  1.942000000000E-02  1.369900000000E-01
     11 F   1 H    -1.942000000000E-02  3.941800000000E-01 -1.369900000000E-01
     12 F   1 H     1.942000000000E-02 -3.941800000000E-01 -1.369900000000E-01
     13 T  17 CL   -1.579200000000E-01  5.709000000000E-02  1.240200000000E-01
     14 F  17 CL    1.579200000000E-01 -5.709000000000E-02  1.240200000000E-01
     15 F  17 CL    5.709000000000E-02  1.579200000000E-01 -1.240200000000E-01
     16 F  17 CL   -5.709000000000E-02 -1.579200000000E-01 -1.240200000000E-01
     17 T   6 C    -2.353500000000E-01 -3.140200000000E-01  1.165500000000E-01
     18 F   6 C     2.353500000000E-01  3.140200000000E-01  1.165500000000E-01
     19 F   6 C    -3.140200000000E-01  2.353500000000E-01 -1.165500000000E-01
     20 F   6 C     3.140200000000E-01 -2.353500000000E-01 -1.165500000000E-01
     21 T   6 C    -2.486000000000E-01 -4.568300000000E-01  1.230000000000E-01
     22 F   6 C     2.486000000000E-01  4.568300000000E-01  1.230000000000E-01
     23 F   6 C    -4.568300000000E-01  2.486000000000E-01 -1.230000000000E-01
     24 F   6 C     4.568300000000E-01 -2.486000000000E-01 -1.230000000000E-01
     25 T   6 C    -3.416300000000E-01 -2.263300000000E-01  1.273400000000E-01
     26 F   6 C     3.416300000000E-01  2.263300000000E-01  1.273400000000E-01
     27 F   6 C    -2.263300000000E-01  3.416300000000E-01 -1.273400000000E-01
     28 F   6 C     2.263300000000E-01 -3.416300000000E-01 -1.273400000000E-01
     29 T   6 C    -1.843100000000E-01 -4.741000000000E-02  1.204300000000E-01
     30 F   6 C     1.843100000000E-01  4.741000000000E-02  1.204300000000E-01
     31 F   6 C    -4.741000000000E-02  1.843100000000E-01 -1.204300000000E-01
     32 F   6 C     4.741000000000E-02 -1.843100000000E-01 -1.204300000000E-01
     33 T   6 C    -1.085700000000E-01 -2.603500000000E-01  1.044300000000E-01
     34 F   6 C     1.085700000000E-01  2.603500000000E-01  1.044300000000E-01
     35 F   6 C    -2.603500000000E-01  1.085700000000E-01 -1.044300000000E-01
     36 F   6 C     2.603500000000E-01 -1.085700000000E-01 -1.044300000000E-01
     37 T   6 C     3.150000000000E-01  9.141000000000E-02  1.282200000000E-01
     38 F   6 C    -3.150000000000E-01 -9.141000000000E-02  1.282200000000E-01
     39 F   6 C     9.141000000000E-02 -3.150000000000E-01 -1.282200000000E-01
     40 F   6 C    -9.141000000000E-02  3.150000000000E-01 -1.282200000000E-01
     41 T   7 N    -1.592300000000E-01  4.628300000000E-01  1.672900000000E-01
     42 F   7 N     1.592300000000E-01 -4.628300000000E-01  1.672900000000E-01
     43 F   7 N     4.628300000000E-01  1.592300000000E-01 -1.672900000000E-01
     44 F   7 N    -4.628300000000E-01 -1.592300000000E-01 -1.672900000000E-01
     45 T   7 N    -2.059600000000E-01  3.358500000000E-01  1.597700000000E-01
     46 F   7 N     2.059600000000E-01 -3.358500000000E-01  1.597700000000E-01
     47 F   7 N     3.358500000000E-01  2.059600000000E-01 -1.597700000000E-01
     48 F   7 N    -3.358500000000E-01 -2.059600000000E-01 -1.597700000000E-01
     49 T   7 N     1.518600000000E-01 -3.221000000000E-02 -4.116000000000E-01
     50 F   7 N    -1.518600000000E-01  3.221000000000E-02 -4.116000000000E-01
     51 F   7 N    -3.221000000000E-02 -1.518600000000E-01  4.116000000000E-01
     52 F   7 N     3.221000000000E-02  1.518600000000E-01  4.116000000000E-01
     53 T   7 N    -3.199800000000E-01  3.388700000000E-01  1.128200000000E-01
     54 F   7 N     3.199800000000E-01 -3.388700000000E-01  1.128200000000E-01
     55 F   7 N     3.388700000000E-01  3.199800000000E-01 -1.128200000000E-01
     56 F   7 N    -3.388700000000E-01 -3.199800000000E-01 -1.128200000000E-01
     57 T   7 N    -8.258000000000E-02 -1.312300000000E-01  1.079100000000E-01
     58 F   7 N     8.258000000000E-02  1.312300000000E-01  1.079100000000E-01
     59 F   7 N    -1.312300000000E-01  8.258000000000E-02 -1.079100000000E-01
     60 F   7 N     1.312300000000E-01 -8.258000000000E-02 -1.079100000000E-01
     61 T  30 ZN    4.626932236752E-17  5.000000000000E-01  2.500000000000E-01
     62 T  30 ZN    0.000000000000E+00  0.000000000000E+00  5.000000000000E-01

 T = ATOM BELONGING TO THE ASYMMETRIC UNIT

 ****    4 SYMMOPS - TRANSLATORS IN FRACTIONAL UNITS
 **** MATRICES AND TRANSLATORS IN THE CRYSTALLOGRAPHIC REFERENCE FRAME
   V INV                    ROTATION MATRICES                   TRANSLATORS
   1   1  1.00  0.00  0.00  0.00  1.00  0.00  0.00  0.00  1.00  0.00  0.00  0.00
   2   2  0.00  1.00 -1.00  1.00 -0.00 -1.00 -0.00  0.00 -1.00  0.00  0.00  0.00
   3   4 -0.00 -1.00  0.00  0.00 -1.00  1.00  1.00 -1.00  0.00  0.00  0.00  0.00
   4   3 -1.00 -0.00  1.00 -1.00  0.00 -0.00 -1.00  1.00 -0.00  0.00  0.00  0.00

 DIRECT LATTICE VECTORS CARTESIAN COMPONENTS (ANGSTROM)
          X                    Y                    Z
  -0.507900000000E+01   0.507900000000E+01   0.664700000000E+01
   0.507900000000E+01  -0.507900000000E+01   0.664700000000E+01
   0.507900000000E+01   0.507900000000E+01  -0.664700000000E+01


 CARTESIAN COORDINATES - PRIMITIVE CELL
 *******************************************************************************
 *      ATOM          X(ANGSTROM)         Y(ANGSTROM)         Z(ANGSTROM)
 *******************************************************************************
    1     1 H     5.852023800000E-01  2.411204460000E+00 -4.830109020000E+00
    2     1 H    -5.852023800000E-01 -2.411204460000E+00 -4.830109020000E+00
    3     1 H     2.411204460000E+00 -5.852023800000E-01  4.830109020000E+00
    4     1 H    -2.411204460000E+00  5.852023800000E-01  4.830109020000E+00
    5    17 CL   -2.446046400000E-01 -3.299419980000E+00  1.207494020000E+00
    6    17 CL    2.446046400000E-01  3.299419980000E+00  1.207494020000E+00
    7    17 CL   -3.299419980000E+00  2.446046400000E-01 -1.207494020000E+00
    8    17 CL    3.299419980000E+00 -2.446046400000E-01 -1.207494020000E+00
    9     1 H    -4.004080440000E+00 -1.972683600000E-01  1.821145060000E+00
   10     1 H     4.004080440000E+00  1.972683600000E-01  1.821145060000E+00
   11     1 H    -1.972683600000E-01  4.004080440000E+00 -1.821145060000E+00
   12     1 H     1.972683600000E-01 -4.004080440000E+00 -1.821145060000E+00
   13    17 CL   -1.604151360000E+00  5.799202200000E-01  1.648721880000E+00
   14    17 CL    1.604151360000E+00 -5.799202200000E-01  1.648721880000E+00
   15    17 CL    5.799202200000E-01  1.604151360000E+00 -1.648721880000E+00
   16    17 CL   -5.799202200000E-01 -1.604151360000E+00 -1.648721880000E+00
   17     6 C    -2.390685300000E+00 -3.189815160000E+00  1.549415700000E+00
   18     6 C     2.390685300000E+00  3.189815160000E+00  1.549415700000E+00
   19     6 C    -3.189815160000E+00  2.390685300000E+00 -1.549415700000E+00
   20     6 C     3.189815160000E+00 -2.390685300000E+00 -1.549415700000E+00
   21     6 C    -2.525278800000E+00 -4.640479140000E+00  1.635162000000E+00
   22     6 C     2.525278800000E+00  4.640479140000E+00  1.635162000000E+00
   23     6 C    -4.640479140000E+00  2.525278800000E+00 -1.635162000000E+00
   24     6 C     4.640479140000E+00 -2.525278800000E+00 -1.635162000000E+00
   25     6 C    -3.470277540000E+00 -2.299060140000E+00  1.692857960000E+00
   26     6 C     3.470277540000E+00  2.299060140000E+00  1.692857960000E+00
   27     6 C    -2.299060140000E+00  3.470277540000E+00 -1.692857960000E+00
   28     6 C     2.299060140000E+00 -3.470277540000E+00 -1.692857960000E+00
   29     6 C    -1.872220980000E+00 -4.815907800000E-01  1.600996420000E+00
   30     6 C     1.872220980000E+00  4.815907800000E-01  1.600996420000E+00
   31     6 C    -4.815907800000E-01  1.872220980000E+00 -1.600996420000E+00
   32     6 C     4.815907800000E-01 -1.872220980000E+00 -1.600996420000E+00
   33     6 C    -1.102854060000E+00 -2.644635300000E+00  1.388292420000E+00
   34     6 C     1.102854060000E+00  2.644635300000E+00  1.388292420000E+00
   35     6 C    -2.644635300000E+00  1.102854060000E+00 -1.388292420000E+00
   36     6 C     2.644635300000E+00 -1.102854060000E+00 -1.388292420000E+00
   37     6 C     3.199770000000E+00  9.285427800000E-01  1.704556680000E+00
   38     6 C    -3.199770000000E+00 -9.285427800000E-01  1.704556680000E+00
   39     6 C     9.285427800000E-01 -3.199770000000E+00 -1.704556680000E+00
   40     6 C    -9.285427800000E-01  3.199770000000E+00 -1.704556680000E+00
   41     7 N    -1.617458340000E+00  4.701427140000E+00  2.223953260000E+00
   42     7 N     1.617458340000E+00 -4.701427140000E+00  2.223953260000E+00
   43     7 N     4.701427140000E+00  1.617458340000E+00 -2.223953260000E+00
   44     7 N    -4.701427140000E+00 -1.617458340000E+00 -2.223953260000E+00
   45     7 N    -2.092141680000E+00  3.411564300000E+00  2.123982380000E+00
   46     7 N     2.092141680000E+00 -3.411564300000E+00  2.123982380000E+00
   47     7 N     3.411564300000E+00  2.092141680000E+00 -2.123982380000E+00
   48     7 N    -3.411564300000E+00 -2.092141680000E+00 -2.123982380000E+00
   49     7 N     1.542593880000E+00 -3.271891800000E-01 -5.471810400000E+00
   50     7 N    -1.542593880000E+00  3.271891800000E-01 -5.471810400000E+00
   51     7 N    -3.271891800000E-01 -1.542593880000E+00  5.471810400000E+00
   52     7 N     3.271891800000E-01  1.542593880000E+00  5.471810400000E+00
   53     7 N    -3.250356840000E+00  3.442241460000E+00  1.499829080000E+00
   54     7 N     3.250356840000E+00 -3.442241460000E+00  1.499829080000E+00
   55     7 N     3.442241460000E+00  3.250356840000E+00 -1.499829080000E+00
   56     7 N    -3.442241460000E+00 -3.250356840000E+00 -1.499829080000E+00
   57     7 N    -8.388476400000E-01 -1.333034340000E+00  1.434555540000E+00
   58     7 N     8.388476400000E-01  1.333034340000E+00  1.434555540000E+00
   59     7 N    -1.333034340000E+00  8.388476400000E-01 -1.434555540000E+00
   60     7 N     1.333034340000E+00 -8.388476400000E-01 -1.434555540000E+00
   61    30 ZN    4.700037766092E-16  5.079000000000E+00 -9.970500000000E+00
   62    30 ZN    0.000000000000E+00  0.000000000000E+00  6.647000000000E+00

 *******************************************************************************
 STARTING BASIS SET HANDLING 
 *******************************************************************************

 Loading internal basis set: POB-DZVPP           

 Please cite in your publication:
 Peintinger, M. F., Oliveira, D. V. and Bredow, T. (2013), Generally applicable 
 solid-state Gaussian basis sets, in preparation                                
                                                                                
                    

 *******************************************************************************
 LOCAL ATOMIC FUNCTIONS BASIS SET
 *******************************************************************************
   ATOM   X(AU)   Y(AU)   Z(AU)  N. TYPE  EXPONENT  S COEF   P COEF   D/F/G COEF
 *******************************************************************************
   1 H    1.106   4.557  -9.128
                                  1 S  
                                         2.263E+01 1.441E-02 0.000E+00 0.000E+00
                                         3.236E+00 1.072E-01 0.000E+00 0.000E+00
                                         7.304E-01 3.846E-01 0.000E+00 0.000E+00
                                  2 S  
                                         1.417E-01 1.000E+00 0.000E+00 0.000E+00
                           3-     5 P  
                                         3.944E-01 0.000E+00 1.000E+00 0.000E+00
                           6-     8 P  
                                         1.006E-01 0.000E+00 1.000E+00 0.000E+00
   2 H   -1.106  -4.557  -9.128
   3 H    4.557  -1.106   9.128
   4 H   -4.557   1.106   9.128
   5 CL  -0.462  -6.235   2.282
                                 33 S  
                                         1.045E+04 1.971E-03 0.000E+00 0.000E+00
                                         1.572E+03 1.475E-02 0.000E+00 0.000E+00
                                         3.571E+02 6.668E-02 0.000E+00 0.000E+00
                                         1.003E+02 1.723E-01 0.000E+00 0.000E+00
                                         3.081E+01 1.588E-01 0.000E+00 0.000E+00
                                 34 S  
                                         5.192E+01-1.001E-01 0.000E+00 0.000E+00
                                         5.705E+00 6.084E-01 0.000E+00 0.000E+00
                                         2.351E+00 5.435E-01 0.000E+00 0.000E+00
                                 35 S  
                                         4.886E-01 1.000E+00 0.000E+00 0.000E+00
                                 36 S  
                                         1.984E-01 1.000E+00 0.000E+00 0.000E+00
                          37-    39 P  
                                         3.077E+02 0.000E+00-8.780E-03 0.000E+00
                                         7.210E+01 0.000E+00-6.356E-02 0.000E+00
                                         2.253E+01 0.000E+00-2.402E-01 0.000E+00
                                         7.899E+00 0.000E+00-4.780E-01 0.000E+00
                                         2.877E+00 0.000E+00-3.852E-01 0.000E+00
                          40-    42 P  
                                         9.483E-01 0.000E+00 1.000E+00 0.000E+00
                          43-    45 P  
                                         2.521E-01 0.000E+00 1.000E+00 0.000E+00
                          46-    50 D  
                                         9.722E-01 0.000E+00 0.000E+00 1.000E+00
                          51-    55 D  
                                         2.060E-01 0.000E+00 0.000E+00 1.000E+00
   6 CL   0.462   6.235   2.282
   7 CL  -6.235   0.462  -2.282
   8 CL   6.235  -0.462  -2.282
   9 H   -7.567  -0.373   3.441
  10 H    7.567   0.373   3.441
  11 H   -0.373   7.567  -3.441
  12 H    0.373  -7.567  -3.441
  13 CL  -3.031   1.096   3.116
  14 CL   3.031  -1.096   3.116
  15 CL   1.096   3.031  -3.116
  16 CL  -1.096  -3.031  -3.116
  17 C   -4.518  -6.028   2.928
                                249 S  
                                         1.238E+03 5.457E-03 0.000E+00 0.000E+00
                                         1.863E+02 4.064E-02 0.000E+00 0.000E+00
                                         4.225E+01 1.803E-01 0.000E+00 0.000E+00
                                         1.168E+01 4.632E-01 0.000E+00 0.000E+00
                                         3.593E+00 4.409E-01 0.000E+00 0.000E+00
                                250 S  
                                         5.281E+00 1.000E+00 0.000E+00 0.000E+00
                                251 S  
                                         4.447E-01 1.000E+00 0.000E+00 0.000E+00
                         252-   254 P  
                                         9.468E+00 0.000E+00 3.839E-02 0.000E+00
                                         2.010E+00 0.000E+00 2.112E-01 0.000E+00
                                         5.477E-01 0.000E+00 5.133E-01 0.000E+00
                         255-   257 P  
                                         1.604E-01 0.000E+00 1.000E+00 0.000E+00
                         258-   262 D  
                                         6.070E-01 0.000E+00 0.000E+00 1.000E+00
                         263-   267 D  
                                         2.939E-01 0.000E+00 0.000E+00 1.000E+00
  18 C    4.518   6.028   2.928
  19 C   -6.028   4.518  -2.928
  20 C    6.028  -4.518  -2.928
  21 C   -4.772  -8.769   3.090
  22 C    4.772   8.769   3.090
  23 C   -8.769   4.772  -3.090
  24 C    8.769  -4.772  -3.090
  25 C   -6.558  -4.345   3.199
  26 C    6.558   4.345   3.199
  27 C   -4.345   6.558  -3.199
  28 C    4.345  -6.558  -3.199
  29 C   -3.538  -0.910   3.025
  30 C    3.538   0.910   3.025
  31 C   -0.910   3.538  -3.025
  32 C    0.910  -3.538  -3.025
  33 C   -2.084  -4.998   2.623
  34 C    2.084   4.998   2.623
  35 C   -4.998   2.084  -2.623
  36 C    4.998  -2.084  -2.623
  37 C    6.047   1.755   3.221
  38 C   -6.047  -1.755   3.221
  39 C    1.755  -6.047  -3.221
  40 C   -1.755   6.047  -3.221
  41 N   -3.057   8.884   4.203
                                705 S  
                                         1.713E+03-5.393E-03 0.000E+00 0.000E+00
                                         2.576E+02-4.022E-02 0.000E+00 0.000E+00
                                         5.846E+01-1.793E-01 0.000E+00 0.000E+00
                                         1.620E+01-4.638E-01 0.000E+00 0.000E+00
                                         5.005E+00-4.417E-01 0.000E+00 0.000E+00
                                706 S  
                                         6.217E-01 1.000E+00 0.000E+00 0.000E+00
                                707 S  
                                         2.921E-01 1.000E+00 0.000E+00 0.000E+00
                         708-   710 P  
                                         1.357E+01 0.000E+00-4.007E-02 0.000E+00
                                         2.926E+00 0.000E+00-2.181E-01 0.000E+00
                                         7.993E-01 0.000E+00-5.129E-01 0.000E+00
                         711-   713 P  
                                         2.244E-01 0.000E+00 1.000E+00 0.000E+00
                         714-   718 D  
                                         3.118E-01 0.000E+00 0.000E+00 1.000E+00
  42 N    3.057  -8.884   4.203
  43 N    8.884   3.057  -4.203
  44 N   -8.884  -3.057  -4.203
  45 N   -3.954   6.447   4.014
  46 N    3.954  -6.447   4.014
  47 N    6.447   3.954  -4.014
  48 N   -6.447  -3.954  -4.014
  49 N    2.915  -0.618 -10.340
  50 N   -2.915   0.618 -10.340
  51 N   -0.618  -2.915  10.340
  52 N    0.618   2.915  10.340
  53 N   -6.142   6.505   2.834
  54 N    6.142  -6.505   2.834
  55 N    6.505   6.142  -2.834
  56 N   -6.505  -6.142  -2.834
  57 N   -1.585  -2.519   2.711
  58 N    1.585   2.519   2.711
  59 N   -2.519   1.585  -2.711
  60 N    2.519  -1.585  -2.711
  61 ZN   0.000   9.598 -18.842
                                985 S  
                                         8.200E+04 1.421E-03 0.000E+00 0.000E+00
                                         1.231E+04 1.089E-02 0.000E+00 0.000E+00
                                         2.801E+03 5.406E-02 0.000E+00 0.000E+00
                                         7.910E+02 1.885E-01 0.000E+00 0.000E+00
                                         2.576E+02 3.835E-01 0.000E+00 0.000E+00
                                         8.881E+01 2.972E-01 0.000E+00 0.000E+00
                                986 S  
                                         1.719E+02-1.105E-01 0.000E+00 0.000E+00
                                         2.030E+01 6.461E-01 0.000E+00 0.000E+00
                                         8.346E+00 4.422E-01 0.000E+00 0.000E+00
                                987 S  
                                         1.485E+01-2.271E-01 0.000E+00 0.000E+00
                                         2.450E+00 7.243E-01 0.000E+00 0.000E+00
                                         9.985E-01 4.484E-01 0.000E+00 0.000E+00
                                988 S  
                                         1.493E+00 1.000E+00 0.000E+00 0.000E+00
                                989 S  
                                         1.830E-01 1.000E+00 0.000E+00 0.000E+00
                         990-   992 P  
                                         1.072E+03 0.000E+00 9.277E-03 0.000E+00
                                         2.527E+02 0.000E+00 6.954E-02 0.000E+00
                                         8.010E+01 0.000E+00 2.716E-01 0.000E+00
                                         2.890E+01 0.000E+00 5.340E-01 0.000E+00
                                         1.077E+01 0.000E+00 3.450E-01 0.000E+00
                         993-   995 P  
                                         5.645E+00 0.000E+00 3.413E-01 0.000E+00
                                         2.168E+00 0.000E+00 5.639E-01 0.000E+00
                                         8.054E-01 0.000E+00 2.368E-01 0.000E+00
                         996-   998 P  
                                         2.721E-01 0.000E+00 1.000E+00 0.000E+00
                         999-  1003 D  
                                         5.609E+01 0.000E+00 0.000E+00 2.959E-02
                                         1.575E+01 0.000E+00 0.000E+00 1.587E-01
                                         5.312E+00 0.000E+00 0.000E+00 3.798E-01
                                         1.774E+00 0.000E+00 0.000E+00 4.690E-01
                        1004-  1008 D  
                                         5.073E-01 0.000E+00 0.000E+00 1.000E+00
                        1009-  1015 F  
                                         2.814E+00 0.000E+00 0.000E+00 1.000E+00
                        1016-  1022 F  
                                         1.300E+00 0.000E+00 0.000E+00 1.000E+00
  62 ZN   0.000   0.000  12.561

 *******************************************************************************
 FINISHED BASIS SET HANDLING 
 *******************************************************************************

 INFORMATION **** SET_MPP **** PCRYSTAL CALCULATION
 INFORMATION **** READM2 **** NEW DEFAULT: FOCK/KS MATRIX MIXING SET TO 30 %
 INFORMATION **** READM2 **** NEW DEFAULT: FULL DIRECT SCF MODE
 INFORMATION **** READM2 **** NEW DEFAULT: COULOMB BIPOLAR BUFFER SET TO 32 Mb
 INFORMATION **** READM2 **** NEW DEFAULT: EXCHANGE BIPOLAR BUFFER SET TO 32 Mb

 *******************************************************************************
 NEW DEFAULT: DFT INTEGRATION GRID INCREASED TO XLGRID
 NEW DEFAULT: DIIS ACCELERATOR ACTIVE
 USE KEYWORD NODIIS TO TURN IT OFF
 *******************************************************************************

 INFORMATION **** DFTD3_INPUT **** PERFORM DISPERSION CORRECTION DFT-D3(BJ) IN THE BECKE-JOHNSON DAMPING SCHEME

 PLEASE CITE:
 (1) DFT-D3 Reference
  S. Grimme, J. Antony, S. Ehrlich, and H. Krieg, J. Chem. Phys. 132 (2010), 154104
 (2) BJ-Damping Reference
  S. Grimme, S. Ehrlich, and L. Goerigk, J. Comput. Chem. 32 (2011), 1456-1465
 (3) General DFT-D Review
  S. Grimme, A. Hansen, J. G. Brandenburg, and C. Bannwarth,
  Chem. Rev. 116 (2016), 5105-5154

 INFORMATION **** BIPOSIZE **** COULOMB BIPOLAR BUFFER SET TO    30000000
 INFORMATION **** EXCHSIZE **** EXCHANGE BIPOLAR BUFFER SIZE SET TO    30000000
 INFORMATION **** TOLINTEG **** COULOMB AND EXCHANGE SERIES TOLERANCES MODIFIED
 INFORMATION **** MAXCYCLE **** MAX NUMBER OF SCF CYCLES SET TO          50
 *******************************************************************************
 N. OF ATOMS PER CELL        62  COULOMB OVERLAP TOL         (T1) 10**  -12
 NUMBER OF SHELLS           416  COULOMB PENETRATION TOL     (T2) 10**  -12
 NUMBER OF AO              1060  EXCHANGE OVERLAP TOL        (T3) 10**   20
 N. OF ELECTRONS PER CELL   488  EXCHANGE PSEUDO OVP (F(G))  (T4) 10**   20
 CORE ELECTRONS PER CELL    204  EXCHANGE PSEUDO OVP (P(G))  (T5) 10**   20
 N. OF SYMMETRY OPERATORS     4  POLE ORDER IN MONO ZONE                  4
 *******************************************************************************
 TYPE OF CALCULATION :  RESTRICTED CLOSED SHELL
 KOHN-SHAM HAMILTONIAN

 (EXCHANGE)[CORRELATION] FUNCTIONAL:(PERDEW-BURKE-ERNZERHOF)[PERDEW-BURKE-ERNZERHOF]


 CAPPA:IS1  3;IS2  3;IS3  3; K PTS MONK NET   6; SYMMOPS:K SPACE   8;G SPACE   4

 *******************************************************************************
 MAX NUMBER OF SCF CYCLES      50  CONVERGENCE ON DELTAP        10**-16
 WEIGHT OF F(I) IN F(I+1)      30% CONVERGENCE ON ENERGY        10**- 7
 SHRINK. FACT.(MONKH.)    3  3  3  NUMBER OF K POINTS IN THE IBZ      6
 SHRINKING FACTOR(GILAT NET)    3  NUMBER OF K POINTS(GILAT NET)      6
 *******************************************************************************
 *** K POINTS COORDINATES (OBLIQUE COORDINATES IN UNITS OF IS =  3)
   1-R(  0  0  0)   2-C(  1  0  0)   3-C(  1  1  0)   4-C(  2  1  0)
   5-C(  2  1  1)   6-C(  2  2  1)

 DIRECT LATTICE VECTORS COMPON. (A.U.)     RECIP. LATTICE VECTORS COMPON. (A.U.) 
        X            Y            Z              X            Y            Z
   -9.5979190    9.5979190   12.5610096      0.0000000    0.3273202    0.2501067
    9.5979190   -9.5979190   12.5610096      0.3273202    0.0000000    0.2501067
    9.5979190    9.5979190  -12.5610096      0.3273202    0.3273202    0.0000000

 DISK SPACE FOR EIGENVECTORS (FTN 10)    12359600 REALS

 SYMMETRY ADAPTION OF THE BLOCH FUNCTIONS ENABLED
 TTTTTTTTTTTTTTTTTTTTTTTTTTTTTT gordsh1     TELAPSE        1.89 TCPU        0.05

 MATRIX SIZE: P(G) 2038980, F(G) 1020500, P(G) IRR  257875, F(G) IRR  257875
 MAX G-VECTOR INDEX FOR 1- AND 2-ELECTRON INTEGRALS  63

 TTTTTTTTTTTTTTTTTTTTTTTTTTTTTT INPUT       TELAPSE        1.93 TCPU        0.08

 NEIGHBORS OF THE NON-EQUIVALENT ATOMS

 N = NUMBER OF NEIGHBORS AT DISTANCE R
    ATOM  N     R/ANG      R/AU   NEIGHBORS (ATOM LABELS AND CELL INDICES)
   1 H    1     1.0950     2.0692   25 C    0 0 1
   1 H    1     2.1707     4.1021   38 C    0 0 1
   1 H    1     2.1834     4.1260   17 C    0 0 1
   1 H    1     2.5186     4.7595    9 H    0 0 1
   1 H    1     2.5548     4.8279   54 N    0-1 0
   1 H    1     2.7928     5.2776   21 C    0 0 1

   5 CL   1     1.0945     2.0684   33 C    0 0 0
   5 CL   1     2.0667     3.9055   57 N    0 0 0
   5 CL   1     2.1759     4.1119   17 C    0 0 0
   5 CL   1     2.5126     4.7480   46 N    0 0 0
   5 CL   1     2.5429     4.8053   42 N    0 0 0
   5 CL   1     2.6801     5.0646   21 C    0 0 0

   9 H    1     1.0933     2.0660   38 C    0 0 0
   9 H    1     2.1620     4.0855   29 C    0 0 0
   9 H    1     2.1723     4.1051   25 C    0 0 0
   9 H    1     2.1857     4.1305   10 H    0-1-1
   9 H    1     2.5186     4.7595    1 H    0 0-1
   9 H    1     2.5285     4.7782   13 CL   0 0 0

  13 CL   1     1.0959     2.0709   29 C    0 0 0
  13 CL   1     2.0715     3.9145   57 N    0 0 0
  13 CL   1     2.1965     4.1508   38 C    0 0 0
  13 CL   1     2.5285     4.7782    9 H    0 0 0
  13 CL   1     2.5654     4.8479   58 N    0 0 0
  13 CL   1     2.9124     5.5037   45 N    0 0 0

  17 C    1     1.4070     2.6588   25 C    0 0 0
  17 C    1     1.4077     2.6602   33 C    0 0 0
  17 C    1     1.4594     2.7579   21 C    0 0 0
  17 C    1     2.1759     4.1119    5 CL   0 0 0
  17 C    1     2.1834     4.1260    1 H    0 0-1
  17 C    1     2.4067     4.5479   38 C    0 0 0

  21 C    1     1.3492     2.5496   49 N    0 0-1
  21 C    1     1.3553     2.5611   41 N   -1 0-1
  21 C    1     1.4594     2.7579   17 C    0 0 0
  21 C    1     2.2025     4.1620   53 N   -1 0-1
  21 C    1     2.2049     4.1667   45 N   -1 0-1
  21 C    1     2.4633     4.6549   33 C    0 0 0

  25 C    1     1.0950     2.0692    1 H    0 0-1
  25 C    1     1.3970     2.6400   38 C    0 0 0
  25 C    1     1.4070     2.6588   17 C    0 0 0
  25 C    1     2.1723     4.1051    9 H    0 0 0
  25 C    1     2.4118     4.5577   33 C    0 0 0
  25 C    1     2.4219     4.5767   29 C    0 0 0

  29 C    1     1.0959     2.0709   13 CL   0 0 0
  29 C    1     1.3493     2.5497   57 N    0 0 0
  29 C    1     1.4046     2.6543   38 C    0 0 0
  29 C    1     2.1620     4.0855    9 H    0 0 0
  29 C    1     2.3056     4.3570   33 C    0 0 0
  29 C    1     2.4219     4.5767   25 C    0 0 0

  33 C    1     1.0945     2.0684    5 CL   0 0 0
  33 C    1     1.3387     2.5298   57 N    0 0 0
  33 C    1     1.4077     2.6602   17 C    0 0 0
  33 C    1     2.3056     4.3570   29 C    0 0 0
  33 C    1     2.4118     4.5577   25 C    0 0 0
  33 C    1     2.4633     4.6549   21 C    0 0 0

  37 C    1     1.0933     2.0660   10 H    0 0 0
  37 C    1     1.3970     2.6400   26 C    0 0 0
  37 C    1     1.4046     2.6543   30 C    0 0 0
  37 C    1     2.1707     4.1021    2 H    1 1 1
  37 C    1     2.1965     4.1508   14 CL   0 0 0
  37 C    1     2.4067     4.5479   18 C    0 0 0

  41 N    1     1.3553     2.5611   21 C    1 0 1
  41 N    1     1.3781     2.6042   45 N    0 0 0
  41 N    1     1.9919     3.7642   61 ZN   1 1 0
  41 N    1     2.1855     4.1299   53 N    0 0 0
  41 N    1     2.1874     4.1336   49 N    1 0 0
  41 N    1     2.4882     4.7020   17 C    1 0 1

  45 N    1     1.3160     2.4870   53 N    0 0 0
  45 N    1     1.3781     2.6042   41 N    0 0 0
  45 N    1     2.1869     4.1326   49 N    1 0 0
  45 N    1     2.2049     4.1667   21 C    1 0 1
  45 N    1     2.5126     4.7480    6 CL   0 0 0
  45 N    1     2.9124     5.5037   13 CL   0 0 0

  49 N    1     1.3492     2.5496   21 C    0 0 1
  49 N    1     1.3792     2.6063   53 N   -1 0 0
  49 N    1     1.9667     3.7164   62 ZN  -1-1 0
  49 N    1     2.1869     4.1326   45 N   -1 0 0
  49 N    1     2.1874     4.1336   41 N   -1 0 0
  49 N    1     2.5229     4.7676   17 C    0 0 1

  53 N    1     1.3160     2.4870   45 N    0 0 0
  53 N    1     1.3792     2.6063   49 N    1 0 0
  53 N    1     2.1855     4.1299   41 N    0 0 0
  53 N    1     2.2025     4.1620   21 C    1 0 1
  53 N    1     2.5548     4.8279    2 H    1 0 0
  53 N    1     2.8762     5.4352   62 ZN   0-1 0

  57 N    1     1.3387     2.5298   33 C    0 0 0
  57 N    1     1.3493     2.5497   29 C    0 0 0
  57 N    1     2.0667     3.9055    5 CL   0 0 0
  57 N    1     2.0715     3.9145   13 CL   0 0 0
  57 N    1     2.4105     4.5552   38 C    0 0 0
  57 N    1     2.4226     4.5781   17 C    0 0 0

  61 ZN   4     1.9919     3.7642   41 N   -1-1 0   42 N    0-1 1   43 N    0-1 0
                                    44 N    0 0 1
  61 ZN   4     2.7756     5.2452    5 CL   0-1 1    6 CL  -1-1 0    7 CL   0 0 1
                                     8 CL   0-1 0
  61 ZN   4     2.9319     5.5406   45 N   -1-1 0   46 N    0-1 1   47 N    0-1 0
                                    48 N    0 0 1
  61 ZN   4     3.0692     5.7999   21 C    0-1 1   22 C   -1-1 0   23 C    0 0 1
                                    24 C    0-1 0
  61 ZN   4     3.2996     6.2354   33 C    0-1 1   34 C   -1-1 0   35 C    0 0 1
                                    36 C    0-1 0
  61 ZN   4     3.5259     6.6629   17 C    0-1 1   18 C   -1-1 0   19 C    0 0 1
                                    20 C    0-1 0

  62 ZN   4     1.9667     3.7164   49 N    1 1 0   50 N    1 1 0   51 N    0 0 0
                                    52 N    0 0 0
  62 ZN   4     2.8762     5.4352   53 N    0 1 0   54 N    1 0 0   55 N    0 0-1
                                    56 N    1 1 1
  62 ZN   4     3.0639     5.7900   21 C    1 1 1   22 C    0 0-1   23 C    0 1 0
                                    24 C    1 0 0
  62 ZN   4     3.0753     5.8115    1 H    1 1 0    2 H    1 1 0    3 H    0 0 0
                                     4 H    0 0 0
  62 ZN   4     3.6307     6.8610   25 C    1 1 1   26 C    0 0-1   27 C    0 1 0
                                    28 C    1 0 0
  62 ZN   4     3.6327     6.8649   17 C    1 1 1   18 C    0 0-1   19 C    0 1 0
                                    20 C    1 0 0


 SYMMETRY ALLOWED ELASTIC DISTORTION 1
  0.5773503  0.0000000  0.0000000
  0.0000000  0.5773503  0.0000000
  0.0000000  0.0000000  0.5773503

 SYMMETRY ALLOWED ELASTIC DISTORTION 2
  0.4082483  0.0000000  0.0000000
  0.0000000  0.4082483  0.0000000
  0.0000000  0.0000000 -0.8164966

 SYMMETRY ALLOWED INTERNAL DEGREE(S) OF FREEDOM:  45
 TTTTTTTTTTTTTTTTTTTTTTTTTTTTTT SYMM        TELAPSE        1.96 TCPU        0.10
 TTTTTTTTTTTTTTTTTTTTTTTTTTTTTT INT_SCREEN  TELAPSE        1.96 TCPU        0.11

 *******************************************************************************
 *                             OPTIMIZATION STARTS                             *
 *******************************************************************************
 RECLASIFICATION OF INDICES FOR INTEGRAL CALC ACCORDING TO DIFFERENT CRITERIA:
           FIXDELTE                  FIXDELTX              FIXDELTN
          0.10000000               0.80000000                 47
 DEFAULT MAX NUM OF POINTS  100
 *******************************************************************************

 *******************************************************************************
 COORDINATE AND CELL OPTIMIZATION - POINT    1
 INFORMATION **** EXCBUF **** EXCH. BIPO BUFFER: WORDS USED =           0

 DFT PARAMETERS

     ATOM       ELECTRONS   NET CHARGE   R(ANGSTROM)
   1   1  H       1.0000      0.0000     1.11000000
   5  17  CL     17.0000      0.0000     0.99000000
  17   6  C       6.0000      0.0000     0.77000000
  41   7  N       7.0000      0.0000     0.74000000
  61  30  ZN     30.0000      0.0000     1.37000000

 SIZE OF GRID=     452758
 TTTTTTTTTTTTTTTTTTTTTTTTTTTTTT MAKE_GRID2  TELAPSE        3.50 TCPU        1.63
 BECKE WEIGHT FUNCTION
 RADSAFE =     2.00
 TOLERANCES - DENSITY:10**- 6; POTENTIAL:10**- 9; GRID WGT:10**-14

 RADIAL INTEGRATION  - INTERVALS (POINTS,UPPER LIMIT):            1( 75,  4.0*R)

 ANGULAR INTEGRATION - INTERVALS (ACCURACY LEVEL [N. POINTS] UPPER LIMIT):
  1(  4[  86]   0.2)  2(  8[ 194]   0.5)  3( 12[ 350]   0.9)  4( 16[ 974]   3.5)
  5( 12[ 350]9999.0)
 TTTTTTTTTTTTTTTTTTTTTTTTTTTTTT INT_CALC    TELAPSE        3.55 TCPU        1.69

 *******************************************************************************
 C:\Users\wilso\AppData\Local\Temp\tmp_p\newconn.mol                             
 CRYSTAL - SCF - TYPE OF CALCULATION :  RESTRICTED CLOSED SHELL
 *******************************************************************************

 CAPPA:IS1  3;IS2  3;IS3  3; K PTS MONK NET   6; SYMMOPS:K SPACE   8;G SPACE   4

 TTTTTTTTTTTTTTTTTTTTTTTTTTTTTT SDIK        TELAPSE        3.78 TCPU        1.91

 AAAAAAAAAAAAAAAAAAAAAAAAAAAAAAAAAAAAAAAAAAAAAAAAAAAAAAAAAAAAAAAAAAAAAAAAAAAAAAA
         ATOMIC WAVEFUNCTION(S)


 NUCLEAR CHARGE  1.0  SYMMETRY SPECIES            S
 N. ELECTRONS    1.0  NUMBER OF PRIMITIVE GTOS    4
                      NUMBER OF CONTRACTED GTOS   2
                      NUMBER OF CLOSED SHELLS     0
                      OPEN SHELL OCCUPATION       1

  ZNUC SCFIT  TOTAL HF ENERGY   KINETIC ENERGY   VIRIAL THEOREM ACCURACY
   1.0   1   -4.946643675E-01  4.917913167E-01 -2.005842012E+00  9.4E-17

 NUCLEAR CHARGE 17.0  SYMMETRY SPECIES            S    P
 N. ELECTRONS   17.0  NUMBER OF PRIMITIVE GTOS   10    7
                      NUMBER OF CONTRACTED GTOS   4    3
                      NUMBER OF CLOSED SHELLS     3    1
                      OPEN SHELL OCCUPATION       0    5

  ZNUC SCFIT  TOTAL HF ENERGY   KINETIC ENERGY   VIRIAL THEOREM ACCURACY
  17.0   9   -4.593005957E+02  4.593991532E+02 -1.999785464E+00  2.3E-06

 NUCLEAR CHARGE  6.0  SYMMETRY SPECIES            S    P
 N. ELECTRONS    6.0  NUMBER OF PRIMITIVE GTOS    7    4
                      NUMBER OF CONTRACTED GTOS   3    2
                      NUMBER OF CLOSED SHELLS     2    0
                      OPEN SHELL OCCUPATION       0    2

  ZNUC SCFIT  TOTAL HF ENERGY   KINETIC ENERGY   VIRIAL THEOREM ACCURACY
   6.0   6   -3.750912652E+01  3.905246519E+01 -1.960480378E+00  3.7E-06

 NUCLEAR CHARGE  7.0  SYMMETRY SPECIES            S    P
 N. ELECTRONS    7.0  NUMBER OF PRIMITIVE GTOS    7    4
                      NUMBER OF CONTRACTED GTOS   3    2
                      NUMBER OF CLOSED SHELLS     2    0
                      OPEN SHELL OCCUPATION       0    3

  ZNUC SCFIT  TOTAL HF ENERGY   KINETIC ENERGY   VIRIAL THEOREM ACCURACY
   7.0   9   -5.432196661E+01  5.425066284E+01 -2.001314339E+00  1.2E-06

 NUCLEAR CHARGE 30.0  SYMMETRY SPECIES            S    P    D
 N. ELECTRONS   30.0  NUMBER OF PRIMITIVE GTOS   14    9    5
                      NUMBER OF CONTRACTED GTOS   5    3    2
                      NUMBER OF CLOSED SHELLS     4    2    1
                      OPEN SHELL OCCUPATION       0    0    0

  ZNUC SCFIT  TOTAL HF ENERGY   KINETIC ENERGY   VIRIAL THEOREM ACCURACY
  30.0  10   -1.777404290E+03  1.777325716E+03 -2.000044209E+00  2.5E-06

 AAAAAAAAAAAAAAAAAAAAAAAAAAAAAAAAAAAAAAAAAAAAAAAAAAAAAAAAAAAAAAAAAAAAAAAAAAAAAAA

 CHARGE NORMALIZATION FACTOR   1.00000000
 TOTAL ATOMIC CHARGES:
   1.0000000   1.0000000   1.0000000   1.0000000  17.0000000  17.0000000
  17.0000000  17.0000000   1.0000000   1.0000000   1.0000000   1.0000000
  17.0000000  17.0000000  17.0000000  17.0000000   6.0000000   6.0000000
   6.0000000   6.0000000   6.0000000   6.0000000   6.0000000   6.0000000
   6.0000000   6.0000000   6.0000000   6.0000000   6.0000000   6.0000000
   6.0000000   6.0000000   6.0000000   6.0000000   6.0000000   6.0000000
   6.0000000   6.0000000   6.0000000   6.0000000   7.0000000   7.0000000
   7.0000000   7.0000000   7.0000000   7.0000000   7.0000000   7.0000000
   7.0000000   7.0000000   7.0000000   7.0000000   7.0000000   7.0000000
   7.0000000   7.0000000   7.0000000   7.0000000   7.0000000   7.0000000
  30.0000000  30.0000000
 TTTTTTTTTTTTTTTTTTTTTTTTTTTTTT MOQGAD      TELAPSE        5.50 TCPU        3.62
 TTTTTTTTTTTTTTTTTTTTTTTTTTTTTT SHELLXN     TELAPSE      103.89 TCPU       91.44
 TTTTTTTTTTTTTTTTTTTTTTTTTTTTTT MONMO3      TELAPSE      111.10 TCPU       98.64
 NUMERICALLY INTEGRATED DENSITY    488.0000156204
 TTTTTTTTTTTTTTTTTTTTTTTTTTTTTT NUMDFT      TELAPSE      113.76 TCPU      101.29
 CYC   0 ETOT(AU) -9.261142206802E+03 DETOT -9.26E+03 tst  0.00E+00 PX  1.00E+00
 TTTTTTTTTTTTTTTTTTTTTTTTTTTTTT DIIS        TELAPSE      113.85 TCPU      101.38
 TTTTTTTTTTTTTTTTTTTTTTTTTTTTTT FDIK        TELAPSE      156.78 TCPU      137.97
 INSULATING STATE
 TOP OF VALENCE BANDS -    BAND    244; K    4; EIG -1.3230046E-01 AU
 TOP OF VALENCE BANDS -    BAND    244; K    1; EIG -1.3233154E-01 AU
 BOTTOM OF VIRTUAL BANDS - BAND    245; K    5; EIG -1.0706553E-01 AU
 INDIRECT ENERGY BAND GAP:   0.6867 eV
 BOTTOM OF VIRTUAL BANDS - BAND    245; K    1; EIG -1.0290524E-01 AU
 TTTTTTTTTTTTTTTTTTTTTTTTTTTTTT PDIG        TELAPSE      157.51 TCPU      138.70
 CHARGE NORMALIZATION FACTOR   1.00000000
 TOTAL ATOMIC CHARGES:
   1.1916762   1.1916762   1.1916762   1.1916762  16.6397599  16.6397599
  16.6397599  16.6397599   1.1015542   1.1015542   1.1015542   1.1015542
  16.5477957  16.5477957  16.5477957  16.5477957   6.2137874   6.2137874
   6.2137874   6.2137874   5.5131225   5.5131225   5.5131225   5.5131225
   6.1292592   6.1292592   6.1292592   6.1292592   5.9558841   5.9558841
   5.9558841   5.9558841   6.0142806   6.0142806   6.0142806   6.0142806
   6.2169215   6.2169215   6.2169215   6.2169215   7.3771082   7.3771082
   7.3771082   7.3771082   7.1625264   7.1625264   7.1625264   7.1625264
   7.3778122   7.3778122   7.3778122   7.3778122   7.1749319   7.1749319
   7.1749319   7.1749319   7.5457226   7.5457226   7.5457226   7.5457226
  27.5436571  27.8077727
 TTTTTTTTTTTTTTTTTTTTTTTTTTTTTT MOQGAD      TELAPSE      157.57 TCPU      138.76
 TTTTTTTTTTTTTTTTTTTTTTTTTTTTTT SHELLXN     TELAPSE      265.04 TCPU      241.64
 TTTTTTTTTTTTTTTTTTTTTTTTTTTTTT MONMO3      TELAPSE      275.89 TCPU      252.45
 NUMERICALLY INTEGRATED DENSITY    488.0000476153
 TTTTTTTTTTTTTTTTTTTTTTTTTTTTTT NUMDFT      TELAPSE      283.70 TCPU      260.24
 CYC   1 ETOT(AU) -9.239795285278E+03 DETOT  2.13E+01 tst  0.00E+00 PX  1.00E+00
 TTTTTTTTTTTTTTTTTTTTTTTTTTTTTT DIIS        TELAPSE      283.88 TCPU      260.42
 DIIS TEST: 0.17293E+02 AT SCF   CYCLE   1 - MIX   30 %
 TTTTTTTTTTTTTTTTTTTTTTTTTTTTTT FDIK        TELAPSE      298.60 TCPU      272.90
 POSSIBLY CONDUCTING STATE - EFERMI(AU) -8.8891478E-02 (RES. CHARGE  2.48E-10;IT. 16)
 TTTTTTTTTTTTTTTTTTTTTTTTTTTTTT PDIG        TELAPSE      299.32 TCPU      273.62
 CHARGE NORMALIZATION FACTOR   1.00000000
 TOTAL ATOMIC CHARGES:
   1.2556670   1.2556670   1.2556670   1.2556670  17.5492837  17.5492837
  17.5492837  17.5492837   1.1747743   1.1747743   1.1747743   1.1747743
  16.6873770  16.6873770  16.6873770  16.6873770   6.2971332   6.2971332
   6.2971332   6.2971332   6.5490528   6.5490528   6.5490528   6.5490528
   6.2472249   6.2472249   6.2472249   6.2472249   5.8277527   5.8277527
   5.8277527   5.8277527   5.9193094   5.9193094   5.9193094   5.9193094
   5.7558458   5.7558458   5.7558458   5.7558458   7.6229217   7.6229217
   7.6229217   7.6229217   7.0867163   7.0867163   7.0867163   7.0867163
   7.0747546   7.0747546   7.0747546   7.0747546   6.7995249   6.7995249
   6.7995249   6.7995249   4.7515970   4.7515970   4.7515970   4.7515970
  31.7495824  29.8546764
 TTTTTTTTTTTTTTTTTTTTTTTTTTTTTT MOQGAD      TELAPSE      299.38 TCPU      273.67
 TTTTTTTTTTTTTTTTTTTTTTTTTTTTTT SHELLXN     TELAPSE      406.84 TCPU      376.57
 TTTTTTTTTTTTTTTTTTTTTTTTTTTTTT MONMO3      TELAPSE      414.64 TCPU      384.34
 NUMERICALLY INTEGRATED DENSITY    488.0000246342
 TTTTTTTTTTTTTTTTTTTTTTTTTTTTTT NUMDFT      TELAPSE      422.40 TCPU      392.08
 CYC   2 ETOT(AU) -9.226731820125E+03 DETOT  1.31E+01 tst  1.12E-01 PX  3.90E+00
 TTTTTTTTTTTTTTTTTTTTTTTTTTTTTT DIIS        TELAPSE      422.58 TCPU      392.25
 DIIS TEST: 0.10180E+03 AT SCF   CYCLE   2 - DIIS ACTIVE - HISTORY:     2 CYCLES
 TTTTTTTTTTTTTTTTTTTTTTTTTTTTTT FDIK        TELAPSE      437.81 TCPU      404.96
 INSULATING STATE
 TOP OF VALENCE BANDS -    BAND    244; K    1; EIG -1.5469967E-01 AU
 BOTTOM OF VIRTUAL BANDS - BAND    245; K    1; EIG -1.1241315E-01 AU
 DIRECT ENERGY BAND GAP:   1.1507 eV
 TTTTTTTTTTTTTTTTTTTTTTTTTTTTTT PDIG        TELAPSE      438.53 TCPU      405.68
 CHARGE NORMALIZATION FACTOR   1.00000000
 TOTAL ATOMIC CHARGES:
   1.2299757   1.2299757   1.2299757   1.2299757  16.8955673  16.8955673
  16.8955673  16.8955673   1.0324641   1.0324641   1.0324641   1.0324641
  17.3621460  17.3621460  17.3621460  17.3621460   5.8923019   5.8923019
   5.8923019   5.8923019   6.1177981   6.1177981   6.1177981   6.1177981
   6.0279841   6.0279841   6.0279841   6.0279841   6.0525462   6.0525462
   6.0525462   6.0525462   5.6476986   5.6476986   5.6476986   5.6476986
   5.9437616   5.9437616   5.9437616   5.9437616   6.3631819   6.3631819
   6.3631819   6.3631819   6.9734933   6.9734933   6.9734933   6.9734933
   6.7792126   6.7792126   6.7792126   6.7792126   7.1005001   7.1005001
   7.1005001   7.1005001   7.6275620   7.6275620   7.6275620   7.6275620
  29.9345652  29.8806611
 TTTTTTTTTTTTTTTTTTTTTTTTTTTTTT MOQGAD      TELAPSE      438.58 TCPU      405.74
 TTTTTTTTTTTTTTTTTTTTTTTTTTTTTT SHELLXN     TELAPSE      543.94 TCPU      508.59
 TTTTTTTTTTTTTTTTTTTTTTTTTTTTTT MONMO3      TELAPSE      554.93 TCPU      519.53
 NUMERICALLY INTEGRATED DENSITY    488.0000458492
 TTTTTTTTTTTTTTTTTTTTTTTTTTTTTT NUMDFT      TELAPSE      562.71 TCPU      527.28
 CYC   3 ETOT(AU) -9.238964270788E+03 DETOT -1.22E+01 tst  2.22E+00 PX  3.15E+00
 TTTTTTTTTTTTTTTTTTTTTTTTTTTTTT DIIS        TELAPSE      562.89 TCPU      527.46
 DIIS TEST: 0.19369E+02 AT SCF   CYCLE   3 - DIIS ACTIVE - HISTORY:     3 CYCLES
 TTTTTTTTTTTTTTTTTTTTTTTTTTTTTT FDIK        TELAPSE      578.62 TCPU      540.96
 INSULATING STATE
 TOP OF VALENCE BANDS -    BAND    244; K    1; EIG -1.6529456E-01 AU
 BOTTOM OF VIRTUAL BANDS - BAND    245; K    4; EIG -9.0643185E-02 AU
 INDIRECT ENERGY BAND GAP:   2.0314 eV
 BOTTOM OF VIRTUAL BANDS - BAND    245; K    1; EIG -8.7383870E-02 AU
 TTTTTTTTTTTTTTTTTTTTTTTTTTTTTT PDIG        TELAPSE      579.34 TCPU      541.67
 CHARGE NORMALIZATION FACTOR   1.00000000
 TOTAL ATOMIC CHARGES:
   1.1425532   1.1425532   1.1425532   1.1425532  16.9732659  16.9732659
  16.9732659  16.9732659   1.0789631   1.0789631   1.0789631   1.0789631
  16.6586986  16.6586986  16.6586986  16.6586986   6.3791690   6.3791690
   6.3791690   6.3791690   5.7283340   5.7283340   5.7283340   5.7283340
   6.1835144   6.1835144   6.1835144   6.1835144   5.6736213   5.6736213
   5.6736213   5.6736213   5.8500996   5.8500996   5.8500996   5.8500996
   6.2320905   6.2320905   6.2320905   6.2320905   7.4027395   7.4027395
   7.4027395   7.4027395   7.0896263   7.0896263   7.0896263   7.0896263
   7.1200497   7.1200497   7.1200497   7.1200497   6.9824578   6.9824578
   6.9824578   6.9824578   7.1090746   7.1090746   7.1090746   7.1090746
  28.7695957  28.8133746
 TTTTTTTTTTTTTTTTTTTTTTTTTTTTTT MOQGAD      TELAPSE      579.39 TCPU      541.73
 TTTTTTTTTTTTTTTTTTTTTTTTTTTTTT SHELLXN     TELAPSE      682.91 TCPU      644.88
 TTTTTTTTTTTTTTTTTTTTTTTTTTTTTT MONMO3      TELAPSE      694.03 TCPU      655.97
 NUMERICALLY INTEGRATED DENSITY    488.0000472714
 TTTTTTTTTTTTTTTTTTTTTTTTTTTTTT NUMDFT      TELAPSE      701.78 TCPU      663.70
 CYC   4 ETOT(AU) -9.242159051516E+03 DETOT -3.19E+00 tst  5.65E-02 PX  7.37E-01
 TTTTTTTTTTTTTTTTTTTTTTTTTTTTTT DIIS        TELAPSE      701.99 TCPU      663.90
 DIIS TEST: 0.24080E+01 AT SCF   CYCLE   4 - DIIS ACTIVE - HISTORY:     4 CYCLES
 TTTTTTTTTTTTTTTTTTTTTTTTTTTTTT FDIK        TELAPSE      715.71 TCPU      675.49
 INSULATING STATE
 TOP OF VALENCE BANDS -    BAND    244; K    1; EIG -1.6226839E-01 AU
 BOTTOM OF VIRTUAL BANDS - BAND    245; K    4; EIG -9.5785064E-02 AU
 INDIRECT ENERGY BAND GAP:   1.8091 eV
 BOTTOM OF VIRTUAL BANDS - BAND    245; K    1; EIG -9.2594385E-02 AU
 TTTTTTTTTTTTTTTTTTTTTTTTTTTTTT PDIG        TELAPSE      716.43 TCPU      676.21
 CHARGE NORMALIZATION FACTOR   1.00000000
 TOTAL ATOMIC CHARGES:
   1.1782162   1.1782162   1.1782162   1.1782162  16.9582340  16.9582340
  16.9582340  16.9582340   1.0823852   1.0823852   1.0823852   1.0823852
  16.8242138  16.8242138  16.8242138  16.8242138   6.0811911   6.0811911
   6.0811911   6.0811911   5.8198705   5.8198705   5.8198705   5.8198705
   6.1946116   6.1946116   6.1946116   6.1946116   5.9481826   5.9481826
   5.9481826   5.9481826   5.8445757   5.8445757   5.8445757   5.8445757
   6.0169113   6.0169113   6.0169113   6.0169113   7.1270413   7.1270413
   7.1270413   7.1270413   7.0358469   7.0358469   7.0358469   7.0358469
   7.2631448   7.2631448   7.2631448   7.2631448   7.1752871   7.1752871
   7.1752871   7.1752871   7.0142930   7.0142930   7.0142930   7.0142930
  28.9094685  28.8345108
 TTTTTTTTTTTTTTTTTTTTTTTTTTTTTT MOQGAD      TELAPSE      716.49 TCPU      676.27
 TTTTTTTTTTTTTTTTTTTTTTTTTTTTTT SHELLXN     TELAPSE      822.12 TCPU      779.28
 TTTTTTTTTTTTTTTTTTTTTTTTTTTTTT MONMO3      TELAPSE      833.22 TCPU      790.33
 NUMERICALLY INTEGRATED DENSITY    488.0000416400
 TTTTTTTTTTTTTTTTTTTTTTTTTTTTTT NUMDFT      TELAPSE      840.99 TCPU      798.07
 CYC   5 ETOT(AU) -9.242396802115E+03 DETOT -2.38E-01 tst  1.56E-03 PX  1.30E-01
 TTTTTTTTTTTTTTTTTTTTTTTTTTTTTT DIIS        TELAPSE      841.21 TCPU      798.29
 DIIS TEST: 0.78292E+00 AT SCF   CYCLE   5 - DIIS ACTIVE - HISTORY:     5 CYCLES
 TTTTTTTTTTTTTTTTTTTTTTTTTTTTTT FDIK        TELAPSE      855.85 TCPU      810.72
 INSULATING STATE
 TOP OF VALENCE BANDS -    BAND    244; K    1; EIG -1.7130082E-01 AU
 BOTTOM OF VIRTUAL BANDS - BAND    245; K    4; EIG -9.4237944E-02 AU
 INDIRECT ENERGY BAND GAP:   2.0970 eV
 BOTTOM OF VIRTUAL BANDS - BAND    245; K    1; EIG -9.2988641E-02 AU
 TTTTTTTTTTTTTTTTTTTTTTTTTTTTTT PDIG        TELAPSE      856.56 TCPU      811.43
 CHARGE NORMALIZATION FACTOR   1.00000000
 TOTAL ATOMIC CHARGES:
   1.1610191   1.1610191   1.1610191   1.1610191  16.9552194  16.9552194
  16.9552194  16.9552194   1.0645045   1.0645045   1.0645045   1.0645045
  16.7836689  16.7836689  16.7836689  16.7836689   6.2040169   6.2040169
   6.2040169   6.2040169   5.8547671   5.8547671   5.8547671   5.8547671
   6.1508608   6.1508608   6.1508608   6.1508608   5.8561560   5.8561560
   5.8561560   5.8561560   5.8472025   5.8472025   5.8472025   5.8472025
   6.0991210   6.0991210   6.0991210   6.0991210   7.2390885   7.2390885
   7.2390885   7.2390885   7.1560425   7.1560425   7.1560425   7.1560425
   7.0186798   7.0186798   7.0186798   7.0186798   6.9754003   6.9754003
   6.9754003   6.9754003   7.1726633   7.1726633   7.1726633   7.1726633
  28.9515375  28.8948196
 TTTTTTTTTTTTTTTTTTTTTTTTTTTTTT MOQGAD      TELAPSE      856.62 TCPU      811.49
 TTTTTTTTTTTTTTTTTTTTTTTTTTTTTT SHELLXN     TELAPSE      959.92 TCPU      914.45
 TTTTTTTTTTTTTTTTTTTTTTTTTTTTTT MONMO3      TELAPSE      971.20 TCPU      925.71
 NUMERICALLY INTEGRATED DENSITY    488.0000441938
 TTTTTTTTTTTTTTTTTTTTTTTTTTTTTT NUMDFT      TELAPSE      978.95 TCPU      933.44
 CYC   6 ETOT(AU) -9.242472522764E+03 DETOT -7.57E-02 tst  7.55E-04 PX  7.51E-02
 TTTTTTTTTTTTTTTTTTTTTTTTTTTTTT DIIS        TELAPSE      979.15 TCPU      933.63
 DIIS TEST: 0.36266E+00 AT SCF   CYCLE   6 - DIIS ACTIVE - HISTORY:     6 CYCLES
 TTTTTTTTTTTTTTTTTTTTTTTTTTTTTT FDIK        TELAPSE      991.00 TCPU      944.02
 INSULATING STATE
 TOP OF VALENCE BANDS -    BAND    244; K    1; EIG -1.7070020E-01 AU
 BOTTOM OF VIRTUAL BANDS - BAND    245; K    3; EIG -9.0329714E-02 AU
 INDIRECT ENERGY BAND GAP:   2.1870 eV
 BOTTOM OF VIRTUAL BANDS - BAND    245; K    1; EIG -8.8357635E-02 AU
 TTTTTTTTTTTTTTTTTTTTTTTTTTTTTT PDIG        TELAPSE      991.73 TCPU      944.75
 CHARGE NORMALIZATION FACTOR   1.00000000
 TOTAL ATOMIC CHARGES:
   1.1629627   1.1629627   1.1629627   1.1629627  16.9309282  16.9309282
  16.9309282  16.9309282   1.0663086   1.0663086   1.0663086   1.0663086
  16.7889736  16.7889736  16.7889736  16.7889736   6.2365340   6.2365340
   6.2365340   6.2365340   5.8426055   5.8426055   5.8426055   5.8426055
   6.1768857   6.1768857   6.1768857   6.1768857   5.8316809   5.8316809
   5.8316809   5.8316809   5.8293934   5.8293934   5.8293934   5.8293934
   6.1429000   6.1429000   6.1429000   6.1429000   7.1436953   7.1436953
   7.1436953   7.1436953   7.0349813   7.0349813   7.0349813   7.0349813
   7.1290636   7.1290636   7.1290636   7.1290636   7.0768839   7.0768839
   7.0768839   7.0768839   7.1413644   7.1413644   7.1413644   7.1413644
  28.9373815  28.9219742
 TTTTTTTTTTTTTTTTTTTTTTTTTTTTTT MOQGAD      TELAPSE      991.78 TCPU      944.80
 TTTTTTTTTTTTTTTTTTTTTTTTTTTTTT SHELLXN     TELAPSE     1095.18 TCPU     1047.87
 TTTTTTTTTTTTTTTTTTTTTTTTTTTTTT MONMO3      TELAPSE     1106.52 TCPU     1059.17
 NUMERICALLY INTEGRATED DENSITY    488.0000463005
 TTTTTTTTTTTTTTTTTTTTTTTTTTTTTT NUMDFT      TELAPSE     1114.26 TCPU     1066.89
 CYC   7 ETOT(AU) -9.242513247943E+03 DETOT -4.07E-02 tst  2.17E-04 PX  4.06E-02
[...]
  61 ZN   4     2.9877     5.6460    5 CL   0-1 1    6 CL  -1-1 0    7 CL   0 0 1
                                     8 CL   0-1 0
  61 ZN   4     3.0191     5.7053   45 N   -1-1 0   46 N    0-1 1   47 N    0-1 0
                                    48 N    0 0 1
  61 ZN   4     3.2931     6.2230   21 C    0-1 1   22 C   -1-1 0   23 C    0 0 1
                                    24 C    0-1 0
  61 ZN   4     3.6730     6.9410   33 C    0-1 1   34 C   -1-1 0   35 C    0 0 1
                                    36 C    0-1 0
  61 ZN   4     3.8303     7.2382   17 C    0-1 1   18 C   -1-1 0   19 C    0 0 1
                                    20 C    0-1 0

  62 ZN   4     2.0168     3.8112   49 N    1 1 0   50 N    1 1 0   51 N    0 0 0
                                    52 N    0 0 0
  62 ZN   4     2.8778     5.4382   53 N    0 1 0   54 N    1 0 0   55 N    0 0-1
                                    56 N    1 1 1
  62 ZN   4     3.1606     5.9727   21 C    1 1 1   22 C    0 0-1   23 C    0 1 0
                                    24 C    1 0 0
  62 ZN   4     3.1656     5.9821    1 H    1 1 0    2 H    1 1 0    3 H    0 0 0
                                     4 H    0 0 0
  62 ZN   4     3.7094     7.0097   17 C    1 1 1   18 C    0 0-1   19 C    0 1 0
                                    20 C    1 0 0
  62 ZN   4     3.7292     7.0473   25 C    1 1 1   26 C    0 0-1   27 C    0 1 0
                                    28 C    1 0 0


 FINAL OPTIMIZED GEOMETRY - DIMENSIONALITY OF THE SYSTEM      3
 (NON PERIODIC DIRECTION: LATTICE PARAMETER FORMALLY SET TO 500)
 *******************************************************************************
 LATTICE PARAMETERS (ANGSTROMS AND DEGREES) - BOHR = 0.5291772083 ANGSTROM
 PRIMITIVE CELL - CENTRING CODE 6/0 VOLUME=   778.101127 - DENSITY  2.099 g/cm^3
         A              B              C           ALPHA      BETA       GAMMA 
    10.16061580    10.16061580    10.16061580   116.253642 116.253642  96.621425
 *******************************************************************************
 ATOMS IN THE ASYMMETRIC UNIT   17 - ATOMS IN THE UNIT CELL:   62
     ATOM                 X/A                 Y/B                 Z/C    
 *******************************************************************************
      1 T   1 H    -1.291360303830E-01 -3.038718648112E-01  2.779787673529E-01
      2 F   1 H     4.181493678359E-01 -4.071147977359E-01 -2.779787673529E-01
      3 F   1 H     3.038718648112E-01 -4.181493678359E-01  1.747358344283E-01
      4 F   1 H     4.071147977359E-01  1.291360303830E-01 -1.747358344283E-01
      5 T  17 CL   -2.698416376341E-01  6.112816455895E-02 -3.478073941494E-01
      6 F  17 CL    4.089355587084E-01  7.796575651531E-02  3.478073941494E-01
      7 F  17 CL   -6.112816455895E-02 -4.089355587084E-01 -3.309698021931E-01
      8 F  17 CL   -7.796575651531E-02  2.698416376341E-01  3.309698021931E-01
      9 T   1 H     1.146634436148E-01 -2.599052501681E-01 -4.579950561254E-01
     10 F   1 H     1.980898059574E-01 -4.273415002598E-01  4.579950561254E-01
     11 F   1 H     2.599052501681E-01 -1.980898059574E-01  3.745686937829E-01
     12 F   1 H     4.273415002598E-01 -1.146634436148E-01 -3.745686937829E-01
     13 T  17 CL    2.458220142141E-01 -4.799513706772E-02 -9.142032479698E-02
     14 F  17 CL    4.342518772925E-02  3.372423390111E-01  9.142032479698E-02
     15 F  17 CL    4.799513706772E-02 -4.342518772925E-02  2.938171512818E-01
     16 F  17 CL   -3.372423390111E-01 -2.458220142141E-01 -2.938171512818E-01
     17 T   6 C    -1.925264899586E-01 -1.344606739013E-01  4.379416698845E-01
     18 F   6 C     4.275976562142E-01  3.695318401569E-01 -4.379416698845E-01
     19 F   6 C     1.344606739013E-01 -4.275976562142E-01 -5.806581605735E-02
     20 F   6 C    -3.695318401569E-01  1.925264899586E-01  5.806581605735E-02
     21 T   6 C    -3.161213542567E-01 -1.316801569590E-01  2.949824437094E-01
     22 F   6 C    -4.266626006684E-01  3.888962020340E-01 -2.949824437094E-01
     23 F   6 C     1.316801569590E-01  4.266626006684E-01 -1.844411972976E-01
     24 F   6 C    -3.888962020340E-01  3.161213542567E-01  1.844411972976E-01
     25 T   6 C    -9.850790658424E-02 -2.214813503841E-01  4.113039386696E-01
     26 F   6 C     3.672147109463E-01  4.901881547461E-01 -4.113039386696E-01
     27 F   6 C     2.214813503841E-01 -3.672147109463E-01  1.229734437998E-01
     28 F   6 C    -4.901881547461E-01  9.850790658424E-02 -1.229734437998E-01
     29 T   6 C     7.364459433132E-02 -8.676183832798E-02 -2.751322058630E-01
     30 F   6 C     1.883703675350E-01  3.487768001943E-01  2.751322058630E-01
     31 F   6 C     8.676183832798E-02 -1.883703675350E-01  1.604064326593E-01
     32 F   6 C    -3.487768001943E-01 -7.364459433132E-02 -1.604064326593E-01
     33 T   6 C    -1.485434706741E-01 -3.720106144763E-02 -3.873977140019E-01
     34 F   6 C     3.501966525543E-01  2.388542433279E-01  3.873977140019E-01
     35 F   6 C     3.720106144763E-02 -3.501966525543E-01 -1.113424092264E-01
     36 F   6 C    -2.388542433279E-01  1.485434706741E-01  1.113424092264E-01
     37 T   6 C     2.471120399899E-01  4.811800887247E-01  4.436586927219E-01
     38 F   6 C     3.752139600279E-02 -1.965466527319E-01 -4.436586927219E-01
     39 F   6 C    -4.811800887247E-01 -3.752139600279E-02 -2.340680487347E-01
     40 F   6 C     1.965466527319E-01 -2.471120399899E-01  2.340680487347E-01
     41 T   7 N    -3.330055954687E-01  1.570593397062E-03  3.012227447585E-01
     42 F   7 N    -2.996521513614E-01  3.657716597729E-01 -3.012227447585E-01
     43 F   7 N    -1.570593397062E-03  2.996521513614E-01 -3.345761888657E-01
     44 F   7 N    -3.657716597729E-01  3.330055954687E-01  3.345761888657E-01
     45 T   7 N    -4.527132144074E-01 -4.948697485840E-02  1.334342386014E-01
     46 F   7 N    -1.829212134598E-01  4.138525469913E-01 -1.334342386014E-01
     47 F   7 N     4.948697485840E-02  1.829212134598E-01 -4.032262395490E-01
     48 F   7 N    -4.138525469913E-01  4.527132144074E-01  4.032262395490E-01
     49 T   7 N    -4.233276723571E-01 -2.609314804658E-01  1.295937748231E-01
     50 F   7 N    -3.905252552889E-01  4.470785528198E-01 -1.295937748231E-01
     51 F   7 N     2.609314804658E-01  3.905252552889E-01 -1.623961918913E-01
     52 F   7 N    -4.470785528198E-01  4.233276723571E-01  1.623961918913E-01
     53 T   7 N     4.933049521189E-01 -2.058786354716E-01  3.031066677163E-02
     54 F   7 N    -2.361893022432E-01  4.629942853473E-01 -3.031066677163E-02
     55 F   7 N     2.058786354716E-01  2.361893022432E-01 -3.008164124095E-01
     56 F   7 N    -4.629942853473E-01 -4.933049521189E-01  3.008164124095E-01
     57 T   7 N    -2.047424458852E-02 -1.282391175915E-02 -2.480660540546E-01
     58 F   7 N     2.352421422954E-01  2.275918094661E-01  2.480660540546E-01
     59 F   7 N     1.282391175915E-02 -2.352421422954E-01 -7.650332829373E-03
     60 F   7 N    -2.275918094661E-01  2.047424458852E-02  7.650332829373E-03
     61 T  30 ZN   -2.500000000000E-01  2.500000000000E-01  5.000000000000E-01
     62 T  30 ZN   -5.000000000000E-01 -5.000000000000E-01  1.647958272372E-19

 TRANSFORMATION MATRIX PRIMITIVE-CRYSTALLOGRAPHIC CELL
  0.0000  1.0000  1.0000  1.0000  0.0000  1.0000  1.0000  1.0000  0.0000

 *******************************************************************************
 CRYSTALLOGRAPHIC CELL (VOLUME=       1556.20225465)
         A              B              C           ALPHA      BETA       GAMMA 
    10.73044060    10.73044060    13.51546309    90.000000  90.000000  90.000000

 COORDINATES IN THE CRYSTALLOGRAPHIC CELL
     ATOM                 X/A                 Y/B                 Z/C    
 *******************************************************************************
      1 T   1 H     5.162146646231E-02  2.263573008906E-01 -3.554933312736E-01
      2 F   1 H    -5.162146646231E-02 -2.263573008906E-01 -3.554933312736E-01
      3 F   1 H     2.263573008906E-01 -5.162146646231E-02  3.554933312736E-01
      4 F   1 H    -2.263573008906E-01  5.162146646231E-02  3.554933312736E-01
      5 T  17 CL   -8.418795978179E-03 -3.393885981712E-01  6.954696053713E-02
      6 F  17 CL    8.418795978179E-03  3.393885981712E-01  6.954696053713E-02
      7 F  17 CL   -3.393885981712E-01  8.418795978179E-03 -6.954696053713E-02
      8 F  17 CL    3.393885981712E-01 -8.418795978179E-03 -6.954696053713E-02
      9 T   1 H    -4.162818749542E-01 -4.171318117128E-02  1.563766247861E-01
     10 F   1 H     4.162818749542E-01  4.171318117128E-02  1.563766247861E-01
     11 F   1 H    -4.171318117128E-02  4.162818749542E-01 -1.563766247861E-01
     12 F   1 H     4.171318117128E-02 -4.162818749542E-01 -1.563766247861E-01
     13 T  17 CL   -1.926187380394E-01  1.011984132424E-01  1.446236009717E-01
     14 F  17 CL    1.926187380394E-01 -1.011984132424E-01  1.446236009717E-01
     15 F  17 CL    1.011984132424E-01  1.926187380394E-01 -1.446236009717E-01
     16 F  17 CL   -1.011984132424E-01 -1.926187380394E-01 -1.446236009717E-01
     17 T   6 C    -2.519962570291E-01 -3.100620730864E-01  1.175355831278E-01
     18 F   6 C     2.519962570291E-01  3.100620730864E-01  1.175355831278E-01
     19 F   6 C    -3.100620730864E-01  2.519962570291E-01 -1.175355831278E-01
     20 F   6 C     3.100620730864E-01 -2.519962570291E-01 -1.175355831278E-01
     21 T   6 C    -2.602881794965E-01 -4.447293767941E-01  1.286080225375E-01
     22 F   6 C     2.602881794965E-01  4.447293767941E-01  1.286080225375E-01
     23 F   6 C    -4.447293767941E-01  2.602881794965E-01 -1.286080225375E-01
     24 F   6 C     4.447293767941E-01 -2.602881794965E-01 -1.286080225375E-01
     25 T   6 C    -3.558347525651E-01 -2.328613087653E-01  1.343534021810E-01
     26 F   6 C     3.558347525651E-01  2.328613087653E-01  1.343534021810E-01
     27 F   6 C    -2.328613087653E-01  3.558347525651E-01 -1.343534021810E-01
     28 F   6 C     2.328613087653E-01 -3.558347525651E-01 -1.343534021810E-01
     29 T   6 C    -2.177693192611E-01 -5.736288660184E-02  1.310074809332E-01
     30 F   6 C     2.177693192611E-01  5.736288660184E-02  1.310074809332E-01
     31 F   6 C    -5.736288660184E-02  2.177693192611E-01 -1.310074809332E-01
     32 F   6 C     5.736288660184E-02 -2.177693192611E-01 -1.310074809332E-01
     33 T   6 C    -1.380276523877E-01 -2.493700616142E-01  1.008265909401E-01
     34 F   6 C     1.380276523877E-01  2.493700616142E-01  1.008265909401E-01
     35 F   6 C    -2.493700616142E-01  1.380276523877E-01 -1.008265909401E-01
     36 F   6 C     2.493700616142E-01 -1.380276523877E-01 -1.008265909401E-01
     37 T   6 C     3.388633707283E-01  1.047953219936E-01  1.423167179964E-01
     38 F   6 C    -3.388633707283E-01 -1.047953219936E-01  1.423167179964E-01
     39 F   6 C     1.047953219936E-01 -3.388633707283E-01 -1.423167179964E-01
     40 F   6 C    -1.047953219936E-01  3.388633707283E-01 -1.423167179964E-01
     41 T   7 N    -1.821005331879E-01  4.833232779464E-01  1.836711265850E-01
     42 F   7 N     1.821005331879E-01 -4.833232779464E-01  1.836711265850E-01
     43 F   7 N     4.833232779464E-01  1.821005331879E-01 -1.836711265850E-01
     44 F   7 N    -4.833232779464E-01 -1.821005331879E-01 -1.836711265850E-01
     45 T   7 N    -2.316697609248E-01  3.651039995262E-01  1.821827860664E-01
     46 F   7 N     2.316697609248E-01 -3.651039995262E-01  1.821827860664E-01
     47 F   7 N     3.651039995262E-01  2.316697609248E-01 -1.821827860664E-01
     48 F   7 N    -3.651039995262E-01 -2.316697609248E-01 -1.821827860664E-01
     49 T   7 N     1.459949833572E-01 -1.640120853411E-02 -4.069264638230E-01
     50 F   7 N    -1.459949833572E-01  1.640120853411E-02 -4.069264638230E-01
     51 F   7 N    -1.640120853411E-02 -1.459949833572E-01  4.069264638230E-01
     52 F   7 N     1.640120853411E-02  1.459949833572E-01  4.069264638230E-01
     53 T   7 N    -3.344364604094E-01  3.647471271811E-01  1.285578249379E-01
     54 F   7 N     3.344364604094E-01 -3.647471271811E-01  1.285578249379E-01
     55 F   7 N     3.647471271811E-01  3.344364604094E-01 -1.285578249379E-01
     56 F   7 N    -3.647471271811E-01 -3.344364604094E-01 -1.285578249379E-01
     57 T   7 N    -1.202078606126E-01 -1.278581934420E-01  1.073839488535E-01
     58 F   7 N     1.202078606126E-01  1.278581934420E-01  1.073839488535E-01
     59 F   7 N    -1.278581934420E-01  1.202078606126E-01 -1.073839488535E-01
     60 F   7 N     1.278581934420E-01 -1.202078606126E-01 -1.073839488535E-01
     61 T  30 ZN    4.626932236752E-17  5.000000000000E-01  2.500000000000E-01
     62 T  30 ZN    0.000000000000E+00  1.647958272372E-19 -5.000000000000E-01

 T = ATOM BELONGING TO THE ASYMMETRIC UNIT
 INFORMATION **** fort.34 **** GEOMETRY OUTPUT FILE

 DIRECT LATTICE VECTORS CARTESIAN COMPONENTS (ANGSTROM)
          X                    Y                    Z
  -0.536522029785E+01   0.536522029785E+01   0.675773154692E+01
   0.536522029785E+01  -0.536522029785E+01   0.675773154692E+01
   0.536522029785E+01   0.536522029785E+01  -0.675773154692E+01


 CARTESIAN COORDINATES - PRIMITIVE CELL
 *******************************************************************************
 *      ATOM          X(ANGSTROM)         Y(ANGSTROM)         Z(ANGSTROM)
 *******************************************************************************
    1     1 H     5.539210793370E-01  2.428913570610E+00 -4.804656998934E+00
    2     1 H    -5.539210793370E-01 -2.428913570610E+00 -4.804656998934E+00
    3     1 H     2.428913570610E+00 -5.539210793370E-01  4.804656998934E+00
    4     1 H    -2.428913570610E+00  5.539210793370E-01  4.804656998934E+00
    5    17 CL   -9.033739013121E-02 -3.641789191536E+00  9.399593784284E-01
    6    17 CL    9.033739013121E-02  3.641789191536E+00  9.399593784284E-01
    7    17 CL   -3.641789191536E+00  9.033739013121E-02 -9.399593784284E-01
    8    17 CL    3.641789191536E+00 -9.033739013121E-02 -9.399593784284E-01
    9     1 H    -4.466887930264E+00 -4.476008126163E-01  2.113502501036E+00
   10     1 H     4.466887930264E+00  4.476008126163E-01  2.113502501036E+00
   11     1 H    -4.476008126163E-01  4.466887930264E+00 -2.113502501036E+00
   12     1 H     4.476008126163E-01 -4.466887930264E+00 -2.113502501036E+00
   13    17 CL   -2.066883926151E+00  1.085903561677E+00  1.954654941431E+00
   14    17 CL    2.066883926151E+00 -1.085903561677E+00  1.954654941431E+00
   15    17 CL    1.085903561677E+00  2.066883926151E+00 -1.954654941431E+00
   16    17 CL   -1.085903561677E+00 -2.066883926151E+00 -1.954654941431E+00
   17     6 C    -2.704030866391E+00 -3.327102656235E+00  1.588547835977E+00
   18     6 C     2.704030866391E+00  3.327102656235E+00  1.588547835977E+00
   19     6 C    -3.327102656235E+00  2.704030866391E+00 -1.588547835977E+00
   20     6 C     3.327102656235E+00 -2.704030866391E+00 -1.588547835977E+00
   21     6 C    -2.793006847851E+00 -4.772142158855E+00  1.738196982177E+00
   22     6 C     2.793006847851E+00  4.772142158855E+00  1.738196982177E+00
   23     6 C    -4.772142158855E+00  2.793006847851E+00 -1.738196982177E+00
   24     6 C     4.772142158855E+00 -2.793006847851E+00 -1.738196982177E+00
   25     6 C    -3.818263674287E+00 -2.498704440744E+00  1.815848448710E+00
   26     6 C     3.818263674287E+00  2.498704440744E+00  1.815848448710E+00
   27     6 C    -2.498704440744E+00  3.818263674287E+00 -1.815848448710E+00
   28     6 C     2.498704440744E+00 -3.818263674287E+00 -1.815848448710E+00
   29     6 C    -2.336760743899E+00 -6.155290470792E-01  1.770626773569E+00
   30     6 C     2.336760743899E+00  6.155290470792E-01  1.770626773569E+00
   31     6 C    -6.155290470792E-01  2.336760743899E+00 -1.770626773569E+00
   32     6 C     6.155290470792E-01 -2.336760743899E+00 -1.770626773569E+00
   33     6 C    -1.481097524511E+00 -2.675850632498E+00  1.362718068729E+00
   34     6 C     1.481097524511E+00  2.675850632498E+00  1.362718068729E+00
   35     6 C    -2.675850632498E+00  1.481097524511E+00 -1.362718068729E+00
   36     6 C     2.675850632498E+00 -1.481097524511E+00 -1.362718068729E+00
   37     6 C     3.636153269660E+00  1.124499977360E+00  1.923476349716E+00
   38     6 C    -3.636153269660E+00 -1.124499977360E+00  1.923476349716E+00
   39     6 C     1.124499977360E+00 -3.636153269660E+00 -1.923476349716E+00
   40     6 C    -1.124499977360E+00  3.636153269660E+00 -1.923476349716E+00
   41     7 N    -1.954018953819E+00  5.186271722525E+00  2.482400332763E+00
   42     7 N     1.954018953819E+00 -5.186271722525E+00  2.482400332763E+00
   43     7 N     5.186271722525E+00  1.954018953819E+00 -2.482400332763E+00
   44     7 N    -5.186271722525E+00 -1.954018953819E+00 -2.482400332763E+00
   45     7 N    -2.485918607425E+00  3.917726778170E+00  2.462284721414E+00
   46     7 N     2.485918607425E+00 -3.917726778170E+00  2.462284721414E+00
   47     7 N     3.917726778170E+00  2.485918607425E+00 -2.462284721414E+00
   48     7 N    -3.917726778170E+00 -2.485918607425E+00 -2.462284721414E+00
   49     7 N     1.566590496185E+00 -1.759921938730E-01 -5.499799603707E+00
   50     7 N    -1.566590496185E+00  1.759921938730E-01 -5.499799603707E+00
   51     7 N    -1.759921938730E-01 -1.566590496185E+00  5.499799603707E+00
   52     7 N     1.759921938730E-01  1.566590496185E+00  5.499799603707E+00
   53     7 N    -3.588650571461E+00  3.913897380670E+00  1.737518538372E+00
   54     7 N     3.588650571461E+00 -3.913897380670E+00  1.737518538372E+00
   55     7 N     3.913897380670E+00  3.588650571461E+00 -1.737518538372E+00
   56     7 N    -3.913897380670E+00 -3.588650571461E+00 -1.737518538372E+00
   57     7 N    -1.289883307440E+00 -1.371974749403E+00  1.451343797600E+00
   58     7 N     1.289883307440E+00  1.371974749403E+00  1.451343797600E+00
   59     7 N    -1.371974749403E+00  1.289883307440E+00 -1.451343797600E+00
   60     7 N     1.371974749403E+00 -1.289883307440E+00 -1.451343797600E+00
   61    30 ZN    4.964902150682E-16  5.365220297853E+00 -1.013659732038E+01
   62    30 ZN    0.000000000000E+00  1.768331834589E-18  6.757731546921E+00

 ****    4 SYMMOPS - TRANSLATORS IN FRACTIONAL UNITS
 **** MATRICES AND TRANSLATORS IN THE CRYSTALLOGRAPHIC REFERENCE FRAME
   V INV                    ROTATION MATRICES                   TRANSLATORS
   1   1  1.00  0.00  0.00  0.00  1.00  0.00  0.00  0.00  1.00  0.00  0.00  0.00
   2   2 -0.00  1.00 -1.00  1.00  0.00 -1.00 -0.00  0.00 -1.00  0.00  0.00  0.00
   3   4  0.00 -1.00  0.00  0.00 -1.00  1.00  1.00 -1.00  0.00  0.00  0.00  0.00
   4   3 -1.00  0.00  1.00 -1.00  0.00 -0.00 -1.00  1.00 -0.00  0.00  0.00  0.00
 TTTTTTTTTTTTTTTTTTTTTTTTTTTTTT END         TELAPSE   115133.80 TCPU   111695.28
 EEEEEEEEEE TERMINATION  DATE 20 11 2023 TIME 21:17:42.2
NODE    0 CPU TIME =    111695.282
NODE    1 CPU TIME =    112407.682
NODE    2 CPU TIME =    112470.819
NODE    3 CPU TIME =    112155.290
NODE    4 CPU TIME =    112731.370
NODE    5 CPU TIME =    112238.377
NODE    6 CPU TIME =    112371.002
NODE    7 CPU TIME =    112253.872
NODE    8 CPU TIME =    112462.885
NODE    9 CPU TIME =    112195.331
NODE   10 CPU TIME =    112048.738
NODE   11 CPU TIME =    112108.776
NODE   12 CPU TIME =    112367.962
NODE   13 CPU TIME =    112133.443
NODE   14 CPU TIME =    112048.086
NODE   15 CPU TIME =    112001.722
NODE   16 CPU TIME =    112032.035
NODE   17 CPU TIME =    111955.351
NODE   18 CPU TIME =    111982.643
NODE   19 CPU TIME =    111997.621
NODE   20 CPU TIME =    111959.861
NODE   21 CPU TIME =    111659.643
NODE   22 CPU TIME =    111696.596
NODE   23 CPU TIME =    111789.226
    TOTAL CPU TIME =   2690763.612
trying normal rsh (/usr/bin/rsh)
exec: No such file or directory
trying normal rsh (/usr/bin/rsh)
exec: No such file or directory
trying normal rsh (/usr/bin/rsh)
exec: No such file or directory
trying normal rsh (/usr/bin/rsh)
exec: No such file or directory
