Loading crystal17/1.0.2/intel/19.0
  Loading requirement: intel/19.0 ompi/4.0.1/intel/19.0
 PROCESS            4  OF           24  WORKING
 PROCESS            6  OF           24  WORKING
 PROCESS            7  OF           24  WORKING
 PROCESS           10  OF           24  WORKING
 PROCESS           11  OF           24  WORKING
 PROCESS           12  OF           24  WORKING
 PROCESS           13  OF           24  WORKING
 PROCESS           14  OF           24  WORKING
 PROCESS           15  OF           24  WORKING
 PROCESS           16  OF           24  WORKING
 PROCESS           17  OF           24  WORKING
 PROCESS           18  OF           24  WORKING
 PROCESS           19  OF           24  WORKING
 PROCESS           20  OF           24  WORKING
 PROCESS           21  OF           24  WORKING
 PROCESS           22  OF           24  WORKING
 PROCESS           23  OF           24  WORKING
 PROCESS            0  OF           24  WORKING
 PROCESS            1  OF           24  WORKING
 PROCESS            2  OF           24  WORKING
 PROCESS            5  OF           24  WORKING
 PROCESS            9  OF           24  WORKING
 PROCESS            3  OF           24  WORKING
 PROCESS            8  OF           24  WORKING

         
 *******************************************************************************
 *                                                                             *
 *                               CRYSTAL17                                     *
 *                      public : 1.0.2 - March 1st, 2018                       *
 *                       HTTP://WWW.CRYSTAL.UNITO.IT                           *
 *                                                                             *
 *                              MAIN AUTHORS                                   *
 *                                                                             *
 *  R. DOVESI(1,11), V.R. SAUNDERS(2), C. ROETTI(1,11), R. ORLANDO(1,11),      *
 *  C.M. ZICOVICH-WILSON(1,3), F. PASCALE(4), B. CIVALLERI(1,11),              *
 *  K. DOLL(5), N.M. HARRISON(2,6), I.J. BUSH(7), Ph. D'ARCO(8),               *
 *  M. LLUNELL(9), M. CAUSA'(10), Y. NOEL(8), L. MASCHIO(1,11), A. ERBA(1,11)  *
 *  M. RE'RAT(14), S. CASASSA(1,11)                                            *
 *                                                                             *
 *        CONTRIBUTIONS TO THE CODE HAVE ALSO BEEN GIVEN BY                    *
 *                                                                             *
 *  M. FERRABONE(1,11), M. DE LA PIERRE(1,11), M. FERRERO(1,11),               *
 *  J. BAIMA(1,11), E. ALBANESE(1,11), M.F. PEINTINGER(12), R. BAST(13),       *
 *  B. KIRTMAN(15), V. LACIVITA(1,11), R. DEMICHELIS(1,16)                     *
 *  G. BRANDEBURG(17), S. SALUSTRO(1,11), G. SANSONE(1,11)                     *
 *  M.T. RUGGIERO(18)                                                          *
 *                                                                             *
 * (1) THEORETICAL CHEMISTRY GROUP - UNIVERSITA' DI TORINO - TORINO (ITALY)    *
 * (2) COMPUTATIONAL SCIENCE & ENGINEERING DEPARTMENT - STFC DARESBURY (UK)    *
 * (3) UNIVERSIDAD AUTONOMA DEL ESTADO DE MORELOS - CUERNAVACA (MEXICO)        *
 * (4) UNIVERSITE' DE LORRAINE - NANCY (FRANCE)                                *
 * (5) UNIVERSITAET STUTTGART- STUTTGART (GERMANY)                             *
 * (6) IMPERIAL COLLEGE - LONDON (UK)                                          *
 * (7) OXFORD E-RESEARCH CENTRE - OXFORD (UK)                                  *
 * (8) UPMC - SORBONNE UNIVERSITES - PARIS (FRANCE)                            *
 * (9) UNIVERSIDAD DE BARCELONA - BARCELONA (SPAIN)                            *
 *(10) UNIVERSITA' DI NAPOLI "FEDERICO II" - NAPOLI (ITALY)                    *
 *(11) NIS - NANOSTRUCTURED INTERFACES AND SURFACES - TORINO (ITALY)           *
 *(12) MPI FUER CHEMISCHE ENERGIEKONVERSION - MUELHEIM AN DER RUHR (GERMANY)   *
 *(13) UNIVERSITY OF TROMSO - TROMSO (NORWAY)                                  *
 *(14) UNIVERSITE' DE PAU ET DES PAYS DE L'ADOUR - PAU (FRANCE)                *
 *(15) UNIVERSITY OF CALIFORNIA SANTA BARBARA - SANTA BARBARA (USA)            *
 *(16) CURTIN UNIVERSITY - PERTH (AUSTRALIA)                                   *
 *(17) UNIVERSITY COLLEGE LONDON - LONDON (UK)                                 *
 *(18) CAMBRIDGE UNIVERSITY - CAMBRIDGE (UK)                                   *
 *                                                                             *
 *******************************************************************************
 EEEEEEEEEE STARTING  DATE 01 12 2023 TIME 06:06:48.0
 Z:\home\sanoj\Downloads\tmp_p\newconn.mol                                       

 CRYSTAL CALCULATION
 (INPUT ACCORDING TO THE INTERNATIONAL TABLES FOR X-RAY CRYSTALLOGRAPHY)
 CRYSTAL FAMILY                       :  TETRAGONAL  
 CRYSTAL CLASS  (GROTH - 1921)        :  TETRAGONAL DISPHENOIDAL              

 SPACE GROUP (NONCENTROSYMMETRIC)     :  I -4            

 LATTICE PARAMETERS  (ANGSTROMS AND DEGREES) - CONVENTIONAL CELL
        A           B           C        ALPHA        BETA       GAMMA
    10.78073    10.78073    11.86911    90.00000    90.00000    90.00000


 NUMBER OF IRREDUCIBLE ATOMS IN THE CONVENTIONAL CELL:   17

 INPUT COORDINATES

 ATOM AT. N.              COORDINATES
   1   1     7.673000000000E-02  7.732200000000E-01  3.542400000000E-01
   2   1     4.664600000000E-01  8.336000000000E-01  4.326200000000E-01
   3   6     2.701600000000E-01  8.230900000000E-01  3.901700000000E-01
   4   6     2.553500000000E-01 -4.331000000000E-02  3.824400000000E-01
   5   6     1.712200000000E-01  7.410000000000E-01  3.695900000000E-01
   6   6     3.221800000000E-01  5.768400000000E-01  3.736400000000E-01
   7   6     3.888000000000E-01  7.737000000000E-01  4.091300000000E-01
   8   6     8.014800000000E-01  3.841400000000E-01  3.640900000000E-01
   9   7     3.447200000000E-01  3.339000000000E-02  3.419900000000E-01
  10   7     2.966700000000E-01  1.520500000000E-01  3.440700000000E-01
  11   7     1.540300000000E-01  2.496000000000E-02  4.081900000000E-01
  12   7     1.821300000000E-01  1.469200000000E-01  3.822900000000E-01
  13   7     4.139600000000E-01  6.523400000000E-01  3.986300000000E-01
  14   9     1.100800000000E-01  5.305500000000E-01  3.457800000000E-01
  15   9     3.475000000000E-01  4.572900000000E-01  3.530900000000E-01
  16  30     0.000000000000E+00  5.000000000000E-01  7.500000000000E-01
  17  30     0.000000000000E+00  0.000000000000E+00  5.000000000000E-01

 *******************************************************************************

 << INFORMATION >>: FROM NOW ON, ALL COORDINATES REFER TO THE PRIMITIVE CELL

 *******************************************************************************

 LATTICE PARAMETERS  (ANGSTROMS AND DEGREES) - PRIMITIVE CELL
       A          B          C        ALPHA      BETA     GAMMA        VOLUME
    9.66080    9.66080    9.66080   112.16997 112.16997 104.19892    689.738062

 COORDINATES OF THE EQUIVALENT ATOMS (FRACTIONAL UNITS)

 N. ATOM EQUIV AT. N.          X                  Y                  Z

   1   1   1    1 H     1.27460000000E-01  4.30970000000E-01 -1.50050000000E-01
   2   1   2    1 H    -4.18980000000E-01  2.77510000000E-01  1.50050000000E-01
   3   1   3    1 H    -4.30970000000E-01  4.18980000000E-01 -3.03510000000E-01
   4   1   4    1 H    -2.77510000000E-01 -1.27460000000E-01  3.03510000000E-01

   5   2   1    1 H     2.66220000000E-01 -1.00920000000E-01  3.00060000000E-01
   6   2   2    1 H    -4.00980000000E-01 -3.38400000000E-02 -3.00060000000E-01
   7   2   3    1 H     1.00920000000E-01  4.00980000000E-01  3.67140000000E-01
   8   2   4    1 H     3.38400000000E-02 -2.66220000000E-01 -3.67140000000E-01

   9   3   1    6 C     2.13260000000E-01 -3.39670000000E-01  9.32500000000E-02
  10   3   2    6 C    -4.32920000000E-01  1.20010000000E-01 -9.32500000000E-02
  11   3   3    6 C     3.39670000000E-01  4.32920000000E-01 -4.47070000000E-01
  12   3   4    6 C    -1.20010000000E-01 -2.13260000000E-01  4.47070000000E-01

  13   4   1    6 C     3.39130000000E-01 -3.62210000000E-01  2.12040000000E-01
  14   4   2    6 C     4.25750000000E-01  1.27090000000E-01 -2.12040000000E-01
  15   4   3    6 C     3.62210000000E-01 -4.25750000000E-01 -2.98660000000E-01
  16   4   4    6 C    -1.27090000000E-01 -3.39130000000E-01  2.98660000000E-01

  17   5   1    6 C     1.10590000000E-01 -4.59190000000E-01 -8.77800000000E-02
  18   5   2    6 C    -3.71410000000E-01  1.98370000000E-01  8.77800000000E-02
  19   5   3    6 C     4.59190000000E-01  3.71410000000E-01 -4.30220000000E-01
  20   5   4    6 C    -1.98370000000E-01 -1.10590000000E-01  4.30220000000E-01

  21   6   1    6 C    -4.95200000000E-02 -3.04180000000E-01 -1.00980000000E-01
  22   6   2    6 C    -2.03200000000E-01  5.14600000000E-02  1.00980000000E-01
  23   6   3    6 C     3.04180000000E-01  2.03200000000E-01  2.54660000000E-01
  24   6   4    6 C    -5.14600000000E-02  4.95200000000E-02 -2.54660000000E-01

  25   7   1    6 C     1.82830000000E-01 -2.02070000000E-01  1.62500000000E-01
  26   7   2    6 C    -3.64570000000E-01  2.03300000000E-02 -1.62500000000E-01
  27   7   3    6 C     2.02070000000E-01  3.64570000000E-01  3.84900000000E-01
  28   7   4    6 C    -2.03300000000E-02 -1.82830000000E-01 -3.84900000000E-01

  29   8   1    6 C    -2.51770000000E-01  1.65570000000E-01  1.85620000000E-01
  30   8   2    6 C    -2.00500000000E-02 -4.37390000000E-01 -1.85620000000E-01
  31   8   3    6 C    -1.65570000000E-01  2.00500000000E-02 -4.17340000000E-01
  32   8   4    6 C     4.37390000000E-01  2.51770000000E-01  4.17340000000E-01

  33   9   1    7 N     3.75380000000E-01 -3.13290000000E-01  3.78110000000E-01
  34   9   2    7 N     3.08600000000E-01 -2.73000000000E-03 -3.78110000000E-01
  35   9   3    7 N     3.13290000000E-01 -3.08600000000E-01 -3.11330000000E-01
  36   9   4    7 N     2.73000000000E-03 -3.75380000000E-01  3.11330000000E-01

  37  10   1    7 N     4.96120000000E-01 -3.59260000000E-01  4.48720000000E-01
  38  10   2    7 N     1.92020000000E-01  4.74000000000E-02 -4.48720000000E-01
  39  10   3    7 N     3.59260000000E-01 -1.92020000000E-01 -1.44620000000E-01
  40  10   4    7 N    -4.74000000000E-02 -4.96120000000E-01  1.44620000000E-01

  41  11   1    7 N     4.33150000000E-01 -4.37780000000E-01  1.78990000000E-01
  42  11   2    7 N     3.83230000000E-01  2.54160000000E-01 -1.78990000000E-01
  43  11   3    7 N     4.37780000000E-01 -3.83230000000E-01 -1.29070000000E-01
  44  11   4    7 N    -2.54160000000E-01 -4.33150000000E-01  1.29070000000E-01

  45  12   1    7 N    -4.70790000000E-01 -4.35580000000E-01  3.29050000000E-01
  46  12   2    7 N     2.35370000000E-01  2.00160000000E-01 -3.29050000000E-01
  47  12   3    7 N     4.35580000000E-01 -2.35370000000E-01 -3.52100000000E-02
  48  12   4    7 N    -2.00160000000E-01  4.70790000000E-01  3.52100000000E-02

  49  13   1    7 N     5.09700000000E-02 -1.87410000000E-01  6.63000000000E-02
  50  13   2    7 N    -2.53710000000E-01 -1.53300000000E-02 -6.63000000000E-02
  51  13   3    7 N     1.87410000000E-01  2.53710000000E-01  2.38380000000E-01
  52  13   4    7 N     1.53300000000E-02 -5.09700000000E-02 -2.38380000000E-01

  53  14   1    9 F    -1.23670000000E-01  4.55860000000E-01 -3.59370000000E-01
  54  14   2    9 F    -1.84770000000E-01  2.35700000000E-01  3.59370000000E-01
  55  14   3    9 F    -4.55860000000E-01  1.84770000000E-01  4.20470000000E-01
  56  14   4    9 F    -2.35700000000E-01  1.23670000000E-01 -4.20470000000E-01

  57  15   1    9 F    -1.89620000000E-01 -2.99410000000E-01 -1.95210000000E-01
  58  15   2    9 F    -1.04200000000E-01  5.59000000000E-03  1.95210000000E-01
  59  15   3    9 F     2.99410000000E-01  1.04200000000E-01  1.09790000000E-01
  60  15   4    9 F    -5.59000000000E-03  1.89620000000E-01 -1.09790000000E-01

  61  16   1   30 ZN    2.50000000000E-01 -2.50000000000E-01 -5.00000000000E-01

  62  17   1   30 ZN   -5.00000000000E-01 -5.00000000000E-01  0.00000000000E+00

 NUMBER OF SYMMETRY OPERATORS         :    4
 *******************************************************************************
 * GEOMETRY EDITING - INPUT COORDINATES ARE GIVEN IN ANGSTROM         
 *******************************************************************************

 GEOMETRY NOW FULLY CONSISTENT WITH THE GROUP

 GCALCO - MAX INDICES DIRECT LATTICE VECTOR    14    14    15
 NO.OF VECTORS CREATED 6999 STARS  488 RMAX   198.12280 BOHR

 GEOMETRY FOR WAVE FUNCTION - DIMENSIONALITY OF THE SYSTEM    3
 (NON PERIODIC DIRECTION: LATTICE PARAMETER FORMALLY SET TO 500)
 *******************************************************************************
 LATTICE PARAMETERS (ANGSTROMS AND DEGREES) - BOHR = 0.5291772083 ANGSTROM
 PRIMITIVE CELL - CENTRING CODE 6/0 VOLUME=   689.738062 - DENSITY  2.061 g/cm^3
         A              B              C           ALPHA      BETA       GAMMA 
     9.66079567     9.66079567     9.66079567   112.169968 112.169968 104.198922
 *******************************************************************************
 ATOMS IN THE ASYMMETRIC UNIT   17 - ATOMS IN THE UNIT CELL:   62
     ATOM                 X/A                 Y/B                 Z/C    
 *******************************************************************************
      1 T   1 H     1.274600000000E-01  4.309700000000E-01 -1.500500000000E-01
      2 F   1 H    -4.189800000000E-01  2.775100000000E-01  1.500500000000E-01
      3 F   1 H    -4.309700000000E-01  4.189800000000E-01 -3.035100000000E-01
      4 F   1 H    -2.775100000000E-01 -1.274600000000E-01  3.035100000000E-01
      5 T   1 H     2.662200000000E-01 -1.009200000000E-01  3.000600000000E-01
      6 F   1 H    -4.009800000000E-01 -3.384000000000E-02 -3.000600000000E-01
      7 F   1 H     1.009200000000E-01  4.009800000000E-01  3.671400000000E-01
      8 F   1 H     3.384000000000E-02 -2.662200000000E-01 -3.671400000000E-01
      9 T   6 C     2.132600000000E-01 -3.396700000000E-01  9.325000000000E-02
     10 F   6 C    -4.329200000000E-01  1.200100000000E-01 -9.325000000000E-02
     11 F   6 C     3.396700000000E-01  4.329200000000E-01 -4.470700000000E-01
     12 F   6 C    -1.200100000000E-01 -2.132600000000E-01  4.470700000000E-01
     13 T   6 C     3.391300000000E-01 -3.622100000000E-01  2.120400000000E-01
     14 F   6 C     4.257500000000E-01  1.270900000000E-01 -2.120400000000E-01
     15 F   6 C     3.622100000000E-01 -4.257500000000E-01 -2.986600000000E-01
     16 F   6 C    -1.270900000000E-01 -3.391300000000E-01  2.986600000000E-01
     17 T   6 C     1.105900000000E-01 -4.591900000000E-01 -8.778000000000E-02
     18 F   6 C    -3.714100000000E-01  1.983700000000E-01  8.778000000000E-02
     19 F   6 C     4.591900000000E-01  3.714100000000E-01 -4.302200000000E-01
     20 F   6 C    -1.983700000000E-01 -1.105900000000E-01  4.302200000000E-01
     21 T   6 C    -4.952000000000E-02 -3.041800000000E-01 -1.009800000000E-01
     22 F   6 C    -2.032000000000E-01  5.146000000000E-02  1.009800000000E-01
     23 F   6 C     3.041800000000E-01  2.032000000000E-01  2.546600000000E-01
     24 F   6 C    -5.146000000000E-02  4.952000000000E-02 -2.546600000000E-01
     25 T   6 C     1.828300000000E-01 -2.020700000000E-01  1.625000000000E-01
     26 F   6 C    -3.645700000000E-01  2.033000000000E-02 -1.625000000000E-01
     27 F   6 C     2.020700000000E-01  3.645700000000E-01  3.849000000000E-01
     28 F   6 C    -2.033000000000E-02 -1.828300000000E-01 -3.849000000000E-01
     29 T   6 C    -2.517700000000E-01  1.655700000000E-01  1.856200000000E-01
     30 F   6 C    -2.005000000000E-02 -4.373900000000E-01 -1.856200000000E-01
     31 F   6 C    -1.655700000000E-01  2.005000000000E-02 -4.173400000000E-01
     32 F   6 C     4.373900000000E-01  2.517700000000E-01  4.173400000000E-01
     33 T   7 N     3.753800000000E-01 -3.132900000000E-01  3.781100000000E-01
     34 F   7 N     3.086000000000E-01 -2.730000000000E-03 -3.781100000000E-01
     35 F   7 N     3.132900000000E-01 -3.086000000000E-01 -3.113300000000E-01
     36 F   7 N     2.730000000000E-03 -3.753800000000E-01  3.113300000000E-01
     37 T   7 N     4.961200000000E-01 -3.592600000000E-01  4.487200000000E-01
     38 F   7 N     1.920200000000E-01  4.740000000000E-02 -4.487200000000E-01
     39 F   7 N     3.592600000000E-01 -1.920200000000E-01 -1.446200000000E-01
     40 F   7 N    -4.740000000000E-02 -4.961200000000E-01  1.446200000000E-01
     41 T   7 N     4.331500000000E-01 -4.377800000000E-01  1.789900000000E-01
     42 F   7 N     3.832300000000E-01  2.541600000000E-01 -1.789900000000E-01
     43 F   7 N     4.377800000000E-01 -3.832300000000E-01 -1.290700000000E-01
     44 F   7 N    -2.541600000000E-01 -4.331500000000E-01  1.290700000000E-01
     45 T   7 N    -4.707900000000E-01 -4.355800000000E-01  3.290500000000E-01
     46 F   7 N     2.353700000000E-01  2.001600000000E-01 -3.290500000000E-01
     47 F   7 N     4.355800000000E-01 -2.353700000000E-01 -3.521000000000E-02
     48 F   7 N    -2.001600000000E-01  4.707900000000E-01  3.521000000000E-02
     49 T   7 N     5.097000000000E-02 -1.874100000000E-01  6.630000000000E-02
     50 F   7 N    -2.537100000000E-01 -1.533000000000E-02 -6.630000000000E-02
     51 F   7 N     1.874100000000E-01  2.537100000000E-01  2.383800000000E-01
     52 F   7 N     1.533000000000E-02 -5.097000000000E-02 -2.383800000000E-01
     53 T   9 F    -1.236700000000E-01  4.558600000000E-01 -3.593700000000E-01
     54 F   9 F    -1.847700000000E-01  2.357000000000E-01  3.593700000000E-01
     55 F   9 F    -4.558600000000E-01  1.847700000000E-01  4.204700000000E-01
     56 F   9 F    -2.357000000000E-01  1.236700000000E-01 -4.204700000000E-01
     57 T   9 F    -1.896200000000E-01 -2.994100000000E-01 -1.952100000000E-01
     58 F   9 F    -1.042000000000E-01  5.590000000000E-03  1.952100000000E-01
     59 F   9 F     2.994100000000E-01  1.042000000000E-01  1.097900000000E-01
     60 F   9 F    -5.590000000000E-03  1.896200000000E-01 -1.097900000000E-01
     61 T  30 ZN    2.500000000000E-01 -2.500000000000E-01 -5.000000000000E-01
     62 T  30 ZN    5.000000000000E-01  5.000000000000E-01  0.000000000000E+00

 TRANSFORMATION MATRIX PRIMITIVE-CRYSTALLOGRAPHIC CELL
  0.0000  1.0000  1.0000  1.0000  0.0000  1.0000  1.0000  1.0000  0.0000

 *******************************************************************************
 CRYSTALLOGRAPHIC CELL (VOLUME=       1379.47612493)
         A              B              C           ALPHA      BETA       GAMMA 
    10.78072573    10.78072573    11.86911107    90.000000  90.000000  90.000000

 COORDINATES IN THE CRYSTALLOGRAPHIC CELL
     ATOM                 X/A                 Y/B                 Z/C    
 *******************************************************************************
      1 T   1 H     7.673000000000E-02 -2.267800000000E-01  3.542400000000E-01
      2 F   1 H    -7.673000000000E-02  2.267800000000E-01  3.542400000000E-01
      3 F   1 H    -2.267800000000E-01 -7.673000000000E-02 -3.542400000000E-01
      4 F   1 H     2.267800000000E-01  7.673000000000E-02 -3.542400000000E-01
      5 T   1 H    -3.354000000000E-02  3.336000000000E-01 -6.738000000000E-02
      6 F   1 H     3.354000000000E-02 -3.336000000000E-01 -6.738000000000E-02
      7 F   1 H     3.336000000000E-01  3.354000000000E-02  6.738000000000E-02
      8 F   1 H    -3.336000000000E-01 -3.354000000000E-02  6.738000000000E-02
      9 T   6 C    -2.298400000000E-01  3.230900000000E-01 -1.098300000000E-01
     10 F   6 C     2.298400000000E-01 -3.230900000000E-01 -1.098300000000E-01
     11 F   6 C     3.230900000000E-01  2.298400000000E-01  1.098300000000E-01
     12 F   6 C    -3.230900000000E-01 -2.298400000000E-01  1.098300000000E-01
     13 T   6 C     2.553500000000E-01 -4.331000000000E-02  3.824400000000E-01
     14 F   6 C    -2.553500000000E-01  4.331000000000E-02  3.824400000000E-01
     15 F   6 C    -4.331000000000E-02 -2.553500000000E-01 -3.824400000000E-01
     16 F   6 C     4.331000000000E-02  2.553500000000E-01 -3.824400000000E-01
     17 T   6 C    -3.287800000000E-01  2.410000000000E-01 -1.304100000000E-01
     18 F   6 C     3.287800000000E-01 -2.410000000000E-01 -1.304100000000E-01
     19 F   6 C     2.410000000000E-01  3.287800000000E-01  1.304100000000E-01
     20 F   6 C    -2.410000000000E-01 -3.287800000000E-01  1.304100000000E-01
     21 T   6 C    -1.778200000000E-01  7.684000000000E-02 -1.263600000000E-01
     22 F   6 C     1.778200000000E-01 -7.684000000000E-02 -1.263600000000E-01
     23 F   6 C     7.684000000000E-02  1.778200000000E-01  1.263600000000E-01
     24 F   6 C    -7.684000000000E-02 -1.778200000000E-01  1.263600000000E-01
     25 T   6 C    -1.112000000000E-01  2.737000000000E-01 -9.087000000000E-02
     26 F   6 C     1.112000000000E-01 -2.737000000000E-01 -9.087000000000E-02
     27 F   6 C     2.737000000000E-01  1.112000000000E-01  9.087000000000E-02
     28 F   6 C    -2.737000000000E-01 -1.112000000000E-01  9.087000000000E-02
     29 T   6 C     3.014800000000E-01 -1.158600000000E-01 -1.359100000000E-01
     30 F   6 C    -3.014800000000E-01  1.158600000000E-01 -1.359100000000E-01
     31 F   6 C    -1.158600000000E-01 -3.014800000000E-01  1.359100000000E-01
     32 F   6 C     1.158600000000E-01  3.014800000000E-01  1.359100000000E-01
     33 T   7 N     3.447200000000E-01  3.339000000000E-02  3.419900000000E-01
     34 F   7 N    -3.447200000000E-01 -3.339000000000E-02  3.419900000000E-01
     35 F   7 N     3.339000000000E-02 -3.447200000000E-01 -3.419900000000E-01
     36 F   7 N    -3.339000000000E-02  3.447200000000E-01 -3.419900000000E-01
     37 T   7 N    -2.033300000000E-01 -3.479500000000E-01 -1.559300000000E-01
     38 F   7 N     2.033300000000E-01  3.479500000000E-01 -1.559300000000E-01
     39 F   7 N    -3.479500000000E-01  2.033300000000E-01  1.559300000000E-01
     40 F   7 N     3.479500000000E-01 -2.033300000000E-01  1.559300000000E-01
     41 T   7 N     1.540300000000E-01  2.496000000000E-02  4.081900000000E-01
     42 F   7 N    -1.540300000000E-01 -2.496000000000E-02  4.081900000000E-01
     43 F   7 N     2.496000000000E-02 -1.540300000000E-01 -4.081900000000E-01
     44 F   7 N    -2.496000000000E-02  1.540300000000E-01 -4.081900000000E-01
     45 T   7 N     1.821300000000E-01  1.469200000000E-01  3.822900000000E-01
     46 F   7 N    -1.821300000000E-01 -1.469200000000E-01  3.822900000000E-01
     47 F   7 N     1.469200000000E-01 -1.821300000000E-01 -3.822900000000E-01
     48 F   7 N    -1.469200000000E-01  1.821300000000E-01 -3.822900000000E-01
     49 T   7 N    -8.604000000000E-02  1.523400000000E-01 -1.013700000000E-01
     50 F   7 N     8.604000000000E-02 -1.523400000000E-01 -1.013700000000E-01
     51 F   7 N     1.523400000000E-01  8.604000000000E-02  1.013700000000E-01
     52 F   7 N    -1.523400000000E-01 -8.604000000000E-02  1.013700000000E-01
     53 T   9 F    -3.899200000000E-01  3.055000000000E-02 -1.542200000000E-01
     54 F   9 F     3.899200000000E-01 -3.055000000000E-02 -1.542200000000E-01
     55 F   9 F     3.055000000000E-02  3.899200000000E-01  1.542200000000E-01
     56 F   9 F    -3.055000000000E-02 -3.899200000000E-01  1.542200000000E-01
     57 T   9 F    -1.525000000000E-01 -4.271000000000E-02 -1.469100000000E-01
     58 F   9 F     1.525000000000E-01  4.271000000000E-02 -1.469100000000E-01
     59 F   9 F    -4.271000000000E-02  1.525000000000E-01  1.469100000000E-01
     60 F   9 F     4.271000000000E-02 -1.525000000000E-01  1.469100000000E-01
     61 T  30 ZN   -5.000000000000E-01 -8.719334643869E-17  2.500000000000E-01
     62 T  30 ZN    0.000000000000E+00  0.000000000000E+00  5.000000000000E-01

 T = ATOM BELONGING TO THE ASYMMETRIC UNIT

 ****    4 SYMMOPS - TRANSLATORS IN FRACTIONAL UNITS
 **** MATRICES AND TRANSLATORS IN THE CRYSTALLOGRAPHIC REFERENCE FRAME
   V INV                    ROTATION MATRICES                   TRANSLATORS
   1   1  1.00  0.00  0.00  0.00  1.00  0.00  0.00  0.00  1.00  0.00  0.00  0.00
   2   2  0.00  1.00 -1.00  1.00 -0.00 -1.00  0.00 -0.00 -1.00  0.00  0.00  0.00
   3   4  0.00 -1.00 -0.00  0.00 -1.00  1.00  1.00 -1.00 -0.00  0.00  0.00  0.00
   4   3 -1.00  0.00  1.00 -1.00  0.00  0.00 -1.00  1.00  0.00  0.00  0.00  0.00

 DIRECT LATTICE VECTORS CARTESIAN COMPONENTS (ANGSTROM)
          X                    Y                    Z
  -0.539036286375E+01   0.539036286375E+01   0.593455553315E+01
   0.539036286375E+01  -0.539036286375E+01   0.593455553315E+01
   0.539036286375E+01   0.539036286375E+01  -0.593455553315E+01


 CARTESIAN COORDINATES - PRIMITIVE CELL
 *******************************************************************************
 *      ATOM          X(ANGSTROM)         Y(ANGSTROM)         Z(ANGSTROM)
 *******************************************************************************
    1     1 H     8.272050850711E-01 -2.444852980482E+00  4.204513904126E+00
    2     1 H    -8.272050850711E-01  2.444852980482E+00  4.204513904126E+00
    3     1 H    -2.444852980482E+00 -8.272050850711E-01 -4.204513904126E+00
    4     1 H     2.444852980482E+00  8.272050850711E-01 -4.204513904126E+00
    5     1 H    -3.615855409004E-01  3.596450102694E+00 -7.997407036473E-01
    6     1 H     3.615855409004E-01 -3.596450102694E+00 -7.997407036473E-01
    7     1 H     3.596450102694E+00  3.615855409004E-01  7.997407036473E-01
    8     1 H    -3.596450102694E+00 -3.615855409004E-01  7.997407036473E-01
    9     6 C    -2.477842001209E+00  3.483144675298E+00 -1.303584468412E+00
   10     6 C     2.477842001209E+00 -3.483144675298E+00 -1.303584468412E+00
   11     6 C     3.483144675298E+00  2.477842001209E+00  1.303584468412E+00
   12     6 C    -3.483144675298E+00 -2.477842001209E+00  1.303584468412E+00
   13     6 C     2.752858314517E+00 -4.669132312580E-01  4.539222836196E+00
   14     6 C    -2.752858314517E+00  4.669132312580E-01  4.539222836196E+00
   15     6 C    -4.669132312580E-01 -2.752858314517E+00 -4.539222836196E+00
   16     6 C     4.669132312580E-01  2.752858314517E+00 -4.539222836196E+00
   17     6 C    -3.544487004687E+00  2.598154900327E+00 -1.547850774156E+00
   18     6 C     3.544487004687E+00 -2.598154900327E+00 -1.547850774156E+00
   19     6 C     2.598154900327E+00  3.544487004687E+00  1.547850774156E+00
   20     6 C    -2.598154900327E+00 -3.544487004687E+00  1.547850774156E+00
   21     6 C    -1.917028648864E+00  8.283909649011E-01 -1.499780874338E+00
   22     6 C     1.917028648864E+00 -8.283909649011E-01 -1.499780874338E+00
   23     6 C     8.283909649011E-01  1.917028648864E+00  1.499780874338E+00
   24     6 C    -8.283909649011E-01 -1.917028648864E+00  1.499780874338E+00
   25     6 C    -1.198816700898E+00  2.950684631617E+00 -1.078546122595E+00
   26     6 C     1.198816700898E+00 -2.950684631617E+00 -1.078546122595E+00
   27     6 C     2.950684631617E+00  1.198816700898E+00  1.078546122595E+00
   28     6 C    -2.950684631617E+00 -1.198816700898E+00  1.078546122595E+00
   29     6 C     3.250173192327E+00 -1.249054882788E+00 -1.613130885021E+00
   30     6 C    -3.250173192327E+00  1.249054882788E+00 -1.613130885021E+00
   31     6 C    -1.249054882788E+00 -3.250173192327E+00  1.613130885021E+00
   32     6 C     1.249054882788E+00  3.250173192327E+00  1.613130885021E+00
   33     7 N     3.716331772784E+00  3.599684320412E-01  4.059117293564E+00
   34     7 N    -3.716331772784E+00 -3.599684320412E-01  4.059117293564E+00
   35     7 N     3.599684320412E-01 -3.716331772784E+00 -4.059117293564E+00
   36     7 N    -3.599684320412E-01  3.716331772784E+00 -4.059117293564E+00
   37     7 N    -2.192044962173E+00 -3.751153516884E+00 -1.850750488568E+00
   38     7 N     2.192044962173E+00  3.751153516884E+00 -1.850750488568E+00
   39     7 N    -3.751153516884E+00  2.192044962173E+00  1.850750488568E+00
   40     7 N     3.751153516884E+00 -2.192044962173E+00  1.850750488568E+00
   41     7 N     1.660555183807E+00  2.690869141584E-01  4.844852446153E+00
   42     7 N    -1.660555183807E+00 -2.690869141584E-01  4.844852446153E+00
   43     7 N     2.690869141584E-01 -1.660555183807E+00 -4.844852446153E+00
   44     7 N    -2.690869141584E-01  1.660555183807E+00 -4.844852446153E+00
   45     7 N     1.963493576750E+00  1.583904223884E+00  4.537442469536E+00
   46     7 N    -1.963493576750E+00 -1.583904223884E+00  4.537442469536E+00
   47     7 N     1.583904223884E+00 -1.963493576750E+00 -4.537442469536E+00
   48     7 N    -1.583904223884E+00  1.963493576750E+00 -4.537442469536E+00
   49     7 N    -9.275736415941E-01  1.642335757327E+00 -1.203171788791E+00
   50     7 N     9.275736415941E-01 -1.642335757327E+00 -1.203171788791E+00
   51     7 N     1.642335757327E+00  9.275736415941E-01  1.203171788791E+00
   52     7 N    -1.642335757327E+00 -9.275736415941E-01  1.203171788791E+00
   53     9 F    -4.203620575667E+00  3.293511709751E-01 -1.830454308645E+00
   54     9 F     4.203620575667E+00 -3.293511709751E-01 -1.830454308645E+00
   55     9 F     3.293511709751E-01  4.203620575667E+00  1.830454308645E+00
   56     9 F    -3.293511709751E-01 -4.203620575667E+00  1.830454308645E+00
   57     9 F    -1.644060673444E+00 -4.604447958215E-01 -1.743691106750E+00
   58     9 F     1.644060673444E+00  4.604447958215E-01 -1.743691106750E+00
   59     9 F    -4.604447958215E-01  1.644060673444E+00  1.743691106750E+00
   60     9 F     4.604447958215E-01 -1.644060673444E+00  1.743691106750E+00
   61    30 ZN    5.390362863750E+00 -9.400075532184E-16 -8.901833299725E+00
   62    30 ZN    0.000000000000E+00  0.000000000000E+00  5.934555533150E+00

 *******************************************************************************
 STARTING BASIS SET HANDLING 
 *******************************************************************************

 Loading internal basis set: POB-DZVPP           

 Please cite in your publication:
 Peintinger, M. F., Oliveira, D. V. and Bredow, T. (2013), Generally applicable 
 solid-state Gaussian basis sets, in preparation                                
                                                                                
                    

 *******************************************************************************
 LOCAL ATOMIC FUNCTIONS BASIS SET
 *******************************************************************************
   ATOM   X(AU)   Y(AU)   Z(AU)  N. TYPE  EXPONENT  S COEF   P COEF   D/F/G COEF
 *******************************************************************************
   1 H    1.563  -4.620   7.945
                                  1 S  
                                         2.263E+01 1.441E-02 0.000E+00 0.000E+00
                                         3.236E+00 1.072E-01 0.000E+00 0.000E+00
                                         7.304E-01 3.846E-01 0.000E+00 0.000E+00
                                  2 S  
                                         1.417E-01 1.000E+00 0.000E+00 0.000E+00
                           3-     5 P  
                                         3.944E-01 0.000E+00 1.000E+00 0.000E+00
                           6-     8 P  
                                         1.006E-01 0.000E+00 1.000E+00 0.000E+00
   2 H   -1.563   4.620   7.945
   3 H   -4.620  -1.563  -7.945
   4 H    4.620   1.563  -7.945
   5 H   -0.683   6.796  -1.511
   6 H    0.683  -6.796  -1.511
   7 H    6.796   0.683   1.511
   8 H   -6.796  -0.683   1.511
   9 C   -4.682   6.582  -2.463
                                 65 S  
                                         1.238E+03 5.457E-03 0.000E+00 0.000E+00
                                         1.863E+02 4.064E-02 0.000E+00 0.000E+00
                                         4.225E+01 1.803E-01 0.000E+00 0.000E+00
                                         1.168E+01 4.632E-01 0.000E+00 0.000E+00
                                         3.593E+00 4.409E-01 0.000E+00 0.000E+00
                                 66 S  
                                         5.281E+00 1.000E+00 0.000E+00 0.000E+00
                                 67 S  
                                         4.447E-01 1.000E+00 0.000E+00 0.000E+00
                          68-    70 P  
                                         9.468E+00 0.000E+00 3.839E-02 0.000E+00
                                         2.010E+00 0.000E+00 2.112E-01 0.000E+00
                                         5.477E-01 0.000E+00 5.133E-01 0.000E+00
                          71-    73 P  
                                         1.604E-01 0.000E+00 1.000E+00 0.000E+00
                          74-    78 D  
                                         6.070E-01 0.000E+00 0.000E+00 1.000E+00
                          79-    83 D  
                                         2.939E-01 0.000E+00 0.000E+00 1.000E+00
  10 C    4.682  -6.582  -2.463
  11 C    6.582   4.682   2.463
  12 C   -6.582  -4.682   2.463
  13 C    5.202  -0.882   8.578
  14 C   -5.202   0.882   8.578
  15 C   -0.882  -5.202  -8.578
  16 C    0.882   5.202  -8.578
  17 C   -6.698   4.910  -2.925
  18 C    6.698  -4.910  -2.925
  19 C    4.910   6.698   2.925
  20 C   -4.910  -6.698   2.925
  21 C   -3.623   1.565  -2.834
  22 C    3.623  -1.565  -2.834
  23 C    1.565   3.623   2.834
  24 C   -1.565  -3.623   2.834
  25 C   -2.265   5.576  -2.038
  26 C    2.265  -5.576  -2.038
  27 C    5.576   2.265   2.038
  28 C   -5.576  -2.265   2.038
  29 C    6.142  -2.360  -3.048
  30 C   -6.142   2.360  -3.048
  31 C   -2.360  -6.142   3.048
  32 C    2.360   6.142   3.048
  33 N    7.023   0.680   7.671
                                521 S  
                                         1.713E+03-5.393E-03 0.000E+00 0.000E+00
                                         2.576E+02-4.022E-02 0.000E+00 0.000E+00
                                         5.846E+01-1.793E-01 0.000E+00 0.000E+00
                                         1.620E+01-4.638E-01 0.000E+00 0.000E+00
                                         5.005E+00-4.417E-01 0.000E+00 0.000E+00
                                522 S  
                                         6.217E-01 1.000E+00 0.000E+00 0.000E+00
                                523 S  
                                         2.921E-01 1.000E+00 0.000E+00 0.000E+00
                         524-   526 P  
                                         1.357E+01 0.000E+00-4.007E-02 0.000E+00
                                         2.926E+00 0.000E+00-2.181E-01 0.000E+00
                                         7.993E-01 0.000E+00-5.129E-01 0.000E+00
                         527-   529 P  
                                         2.244E-01 0.000E+00 1.000E+00 0.000E+00
                         530-   534 D  
                                         3.118E-01 0.000E+00 0.000E+00 1.000E+00
  34 N   -7.023  -0.680   7.671
  35 N    0.680  -7.023  -7.671
  36 N   -0.680   7.023  -7.671
  37 N   -4.142  -7.089  -3.497
  38 N    4.142   7.089  -3.497
  39 N   -7.089   4.142   3.497
  40 N    7.089  -4.142   3.497
  41 N    3.138   0.509   9.155
  42 N   -3.138  -0.509   9.155
  43 N    0.509  -3.138  -9.155
  44 N   -0.509   3.138  -9.155
  45 N    3.710   2.993   8.575
  46 N   -3.710  -2.993   8.575
  47 N    2.993  -3.710  -8.575
  48 N   -2.993   3.710  -8.575
  49 N   -1.753   3.104  -2.274
  50 N    1.753  -3.104  -2.274
  51 N    3.104   1.753   2.274
  52 N   -3.104  -1.753   2.274
  53 F   -7.944   0.622  -3.459
                                801 S  
                                         2.895E+03-5.341E-03 0.000E+00 0.000E+00
                                         4.354E+02-3.990E-02 0.000E+00 0.000E+00
                                         9.884E+01-1.791E-01 0.000E+00 0.000E+00
                                         2.749E+01-4.676E-01 0.000E+00 0.000E+00
                                         8.541E+00-4.465E-01 0.000E+00 0.000E+00
                                802 S  
                                         1.123E+00 1.000E+00 0.000E+00 0.000E+00
                                803 S  
                                         3.743E-01 1.000E+00 0.000E+00 0.000E+00
                         804-   806 P  
                                         2.270E+01 0.000E+00-4.521E-02 0.000E+00
                                         4.987E+00 0.000E+00-2.375E-01 0.000E+00
                                         1.349E+00 0.000E+00-5.129E-01 0.000E+00
                         807-   809 P  
                                         3.474E-01 0.000E+00 1.000E+00 0.000E+00
                         810-   814 D  
                                         9.203E-01 0.000E+00 0.000E+00 1.000E+00
                         815-   819 D  
                                         3.977E-01 0.000E+00 0.000E+00 1.000E+00
  54 F    7.944  -0.622  -3.459
  55 F    0.622   7.944   3.459
  56 F   -0.622  -7.944   3.459
  57 F   -3.107  -0.870  -3.295
  58 F    3.107   0.870  -3.295
  59 F   -0.870   3.107   3.295
  60 F    0.870  -3.107   3.295
  61 ZN  10.186  -0.000 -16.822
                                953 S  
                                         8.200E+04 1.421E-03 0.000E+00 0.000E+00
                                         1.231E+04 1.089E-02 0.000E+00 0.000E+00
                                         2.801E+03 5.406E-02 0.000E+00 0.000E+00
                                         7.910E+02 1.885E-01 0.000E+00 0.000E+00
                                         2.576E+02 3.835E-01 0.000E+00 0.000E+00
                                         8.881E+01 2.972E-01 0.000E+00 0.000E+00
                                954 S  
                                         1.719E+02-1.105E-01 0.000E+00 0.000E+00
                                         2.030E+01 6.461E-01 0.000E+00 0.000E+00
                                         8.346E+00 4.422E-01 0.000E+00 0.000E+00
                                955 S  
                                         1.485E+01-2.271E-01 0.000E+00 0.000E+00
                                         2.450E+00 7.243E-01 0.000E+00 0.000E+00
                                         9.985E-01 4.484E-01 0.000E+00 0.000E+00
                                956 S  
                                         1.493E+00 1.000E+00 0.000E+00 0.000E+00
                                957 S  
                                         1.830E-01 1.000E+00 0.000E+00 0.000E+00
                         958-   960 P  
                                         1.072E+03 0.000E+00 9.277E-03 0.000E+00
                                         2.527E+02 0.000E+00 6.954E-02 0.000E+00
                                         8.010E+01 0.000E+00 2.716E-01 0.000E+00
                                         2.890E+01 0.000E+00 5.340E-01 0.000E+00
                                         1.077E+01 0.000E+00 3.450E-01 0.000E+00
                         961-   963 P  
                                         5.645E+00 0.000E+00 3.413E-01 0.000E+00
                                         2.168E+00 0.000E+00 5.639E-01 0.000E+00
                                         8.054E-01 0.000E+00 2.368E-01 0.000E+00
                         964-   966 P  
                                         2.721E-01 0.000E+00 1.000E+00 0.000E+00
                         967-   971 D  
                                         5.609E+01 0.000E+00 0.000E+00 2.959E-02
                                         1.575E+01 0.000E+00 0.000E+00 1.587E-01
                                         5.312E+00 0.000E+00 0.000E+00 3.798E-01
                                         1.774E+00 0.000E+00 0.000E+00 4.690E-01
                         972-   976 D  
                                         5.073E-01 0.000E+00 0.000E+00 1.000E+00
                         977-   983 F  
                                         2.814E+00 0.000E+00 0.000E+00 1.000E+00
                         984-   990 F  
                                         1.300E+00 0.000E+00 0.000E+00 1.000E+00
  62 ZN   0.000   0.000  11.215

 *******************************************************************************
 FINISHED BASIS SET HANDLING 
 *******************************************************************************

 INFORMATION **** SET_MPP **** PCRYSTAL CALCULATION
 INFORMATION **** READM2 **** NEW DEFAULT: FOCK/KS MATRIX MIXING SET TO 30 %
 INFORMATION **** READM2 **** NEW DEFAULT: FULL DIRECT SCF MODE
 INFORMATION **** READM2 **** NEW DEFAULT: COULOMB BIPOLAR BUFFER SET TO 32 Mb
 INFORMATION **** READM2 **** NEW DEFAULT: EXCHANGE BIPOLAR BUFFER SET TO 32 Mb

 *******************************************************************************
 NEW DEFAULT: DFT INTEGRATION GRID INCREASED TO XLGRID
 NEW DEFAULT: DIIS ACCELERATOR ACTIVE
 USE KEYWORD NODIIS TO TURN IT OFF
 *******************************************************************************

 INFORMATION **** DFTD3_INPUT **** PERFORM DISPERSION CORRECTION DFT-D3(BJ) IN THE BECKE-JOHNSON DAMPING SCHEME

 PLEASE CITE:
 (1) DFT-D3 Reference
  S. Grimme, J. Antony, S. Ehrlich, and H. Krieg, J. Chem. Phys. 132 (2010), 154104
 (2) BJ-Damping Reference
  S. Grimme, S. Ehrlich, and L. Goerigk, J. Comput. Chem. 32 (2011), 1456-1465
 (3) General DFT-D Review
  S. Grimme, A. Hansen, J. G. Brandenburg, and C. Bannwarth,
  Chem. Rev. 116 (2016), 5105-5154

 INFORMATION **** TOLINTEG **** COULOMB AND EXCHANGE SERIES TOLERANCES MODIFIED
 INFORMATION **** BIPOSIZE **** COULOMB BIPOLAR BUFFER SET TO   100000000
 INFORMATION **** MAXCYCLE **** MAX NUMBER OF SCF CYCLES SET TO          50
 *******************************************************************************
 N. OF ATOMS PER CELL        62  COULOMB OVERLAP TOL         (T1) 10**  -12
 NUMBER OF SHELLS           400  COULOMB PENETRATION TOL     (T2) 10**  -12
 NUMBER OF AO              1028  EXCHANGE OVERLAP TOL        (T3) 10**   20
 N. OF ELECTRONS PER CELL   424  EXCHANGE PSEUDO OVP (F(G))  (T4) 10**   20
 CORE ELECTRONS PER CELL    140  EXCHANGE PSEUDO OVP (P(G))  (T5) 10**   20
 N. OF SYMMETRY OPERATORS     4  POLE ORDER IN MONO ZONE                  4
 *******************************************************************************
 TYPE OF CALCULATION :  RESTRICTED CLOSED SHELL
 KOHN-SHAM HAMILTONIAN

 (EXCHANGE)[CORRELATION] FUNCTIONAL:(PERDEW-BURKE-ERNZERHOF)[PERDEW-BURKE-ERNZERHOF]


 CAPPA:IS1  3;IS2  3;IS3  3; K PTS MONK NET   6; SYMMOPS:K SPACE   8;G SPACE   4

 *******************************************************************************
 MAX NUMBER OF SCF CYCLES      50  CONVERGENCE ON DELTAP        10**-16
 WEIGHT OF F(I) IN F(I+1)      30% CONVERGENCE ON ENERGY        10**- 6
 SHRINK. FACT.(MONKH.)    3  3  3  NUMBER OF K POINTS IN THE IBZ      6
 SHRINKING FACTOR(GILAT NET)    3  NUMBER OF K POINTS(GILAT NET)      6
 *******************************************************************************
 *** K POINTS COORDINATES (OBLIQUE COORDINATES IN UNITS OF IS =  3)
   1-R(  0  0  0)   2-C(  1  0  0)   3-C(  1  1  0)   4-C(  2  1  0)
   5-C(  2  1  1)   6-C(  2  2  1)

 DIRECT LATTICE VECTORS COMPON. (A.U.)     RECIP. LATTICE VECTORS COMPON. (A.U.) 
        X            Y            Z              X            Y            Z
  -10.1863096   10.1863096   11.2146847      0.0000000    0.3084132    0.2801321
   10.1863096  -10.1863096   11.2146847      0.3084132    0.0000000    0.2801321
   10.1863096   10.1863096  -11.2146847      0.3084132    0.3084132    0.0000000

 DISK SPACE FOR EIGENVECTORS (FTN 10)    11624624 REALS

 SYMMETRY ADAPTION OF THE BLOCH FUNCTIONS ENABLED
 TTTTTTTTTTTTTTTTTTTTTTTTTTTTTT gordsh1     TELAPSE        9.63 TCPU        0.05

 MATRIX SIZE: P(G) 1829900, F(G)  915952, P(G) IRR  231647, F(G) IRR  231647
 MAX G-VECTOR INDEX FOR 1- AND 2-ELECTRON INTEGRALS  59

 TTTTTTTTTTTTTTTTTTTTTTTTTTTTTT INPUT       TELAPSE       14.98 TCPU        5.39

 NEIGHBORS OF THE NON-EQUIVALENT ATOMS

 N = NUMBER OF NEIGHBORS AT DISTANCE R
    ATOM  N     R/ANG      R/AU   NEIGHBORS (ATOM LABELS AND CELL INDICES)
   1 H    1     1.0916     2.0628   17 C    0 1 0
   1 H    1     2.1484     4.0599   30 C    0 1 0
   1 H    1     2.1953     4.1486    9 C    0 1 0
   1 H    1     2.6137     4.9392   60 F    0 0 0
   1 H    1     2.6427     4.9939   53 F    0 1 0
   1 H    1     2.7807     5.2548   13 C    0 0 0

   5 H    1     1.0935     2.0664   25 C    0 0 0
   5 H    1     2.0740     3.9194   49 N    0 0 0
   5 H    1     2.1784     4.1165    9 C    0 0 0
   5 H    1     2.7010     5.1042   13 C    0-1 0
   5 H    1     2.7124     5.1257   34 N    0 0 1
   5 H    1     2.7421     5.1817   33 N    0-1 0

   9 C    1     1.4036     2.6524   25 C    0 0 0
   9 C    1     1.4073     2.6595   17 C    0 0 0
   9 C    1     1.4520     2.7439   13 C    0-1 0
   9 C    1     2.1784     4.1165    5 H    0 0 0
   9 C    1     2.1953     4.1486    1 H    0-1 0
   9 C    1     2.3840     4.5051   30 C    0 0 0

  13 C    1     1.3521     2.5551   41 N    0 0 0
  13 C    1     1.3574     2.5651   33 N    0 0 0
  13 C    1     1.4520     2.7439    9 C    0 1 0
  13 C    1     2.1975     4.1526   45 N    0 0 0
  13 C    1     2.2004     4.1581   37 N    1 1 1
  13 C    1     2.4621     4.6527   25 C    0 1 0

  17 C    1     1.0916     2.0628    1 H    0-1 0
  17 C    1     1.3824     2.6123   30 C    0 0 0
  17 C    1     1.4073     2.6595    9 C    0 0 0
  17 C    1     2.3795     4.4965   53 F    0 0 0
  17 C    1     2.4048     4.5444   21 C    0 0 0
  17 C    1     2.4180     4.5693   25 C    0 0 0

  21 C    1     1.3151     2.4852   49 N    0 0 0
  21 C    1     1.3398     2.5319   57 F    0 0 0
  21 C    1     1.4025     2.6504   30 C    0 0 0
  21 C    1     2.2798     4.3082   25 C    0 0 0
  21 C    1     2.3637     4.4667   53 F    0 0 0
  21 C    1     2.4048     4.5444   17 C    0 0 0

  25 C    1     1.0935     2.0664    5 H    0 0 0
  25 C    1     1.3420     2.5360   49 N    0 0 0
  25 C    1     1.4036     2.6524    9 C    0 0 0
  25 C    1     2.2798     4.3082   21 C    0 0 0
  25 C    1     2.4180     4.5693   17 C    0 0 0
  25 C    1     2.4621     4.6527   13 C    0-1 0

  29 C    1     1.3424     2.5368   54 F    0 0 0
  29 C    1     1.3824     2.6123   18 C    0 0 0
  29 C    1     1.4025     2.6504   22 C    0 0 0
  29 C    1     2.1484     4.0599    2 H   -1 0 0
  29 C    1     2.3493     4.4395   58 F    0 0 0
  29 C    1     2.3840     4.5051   10 C    0 0 0

  33 N    1     1.3574     2.5651   13 C    0 0 0
  33 N    1     1.3804     2.6085   37 N    1 1 1
  33 N    1     2.0308     3.8376   61 ZN   1 1 0
  33 N    1     2.1907     4.1399   45 N    0 0 0
  33 N    1     2.2027     4.1625   41 N    0 0 0
  33 N    1     2.4725     4.6724    9 C    0 1 0

  37 N    1     1.3167     2.4882   45 N   -1-1-1
  37 N    1     1.3804     2.6085   33 N   -1-1-1
  37 N    1     2.1957     4.1493   41 N   -1-1-1
  37 N    1     2.2004     4.1581   13 C   -1-1-1
  37 N    1     2.7658     5.2266    6 H    0 0 0
  37 N    1     2.9179     5.5140   11 C   -1-1-1

  41 N    1     1.3521     2.5551   13 C    0 0 0
  41 N    1     1.3838     2.6151   45 N    0 0 0
  41 N    1     2.0043     3.7876   62 ZN   0 0 0
  41 N    1     2.1957     4.1493   37 N    1 1 1
  41 N    1     2.2027     4.1625   33 N    0 0 0
  41 N    1     2.5198     4.7618    9 C    0 1 0

  45 N    1     1.3167     2.4882   37 N    1 1 1
  45 N    1     1.3838     2.6151   41 N    0 0 0
  45 N    1     2.1907     4.1399   33 N    0 0 0
  45 N    1     2.1975     4.1526   13 C    0 0 0
  45 N    1     2.8837     5.4495   62 ZN   0 0 0
  45 N    1     2.9394     5.5547    2 H    0 0 0

  49 N    1     1.3151     2.4852   21 C    0 0 0
  49 N    1     1.3420     2.5360   25 C    0 0 0
  49 N    1     2.0740     3.9194    5 H    0 0 0
  49 N    1     2.2863     4.3205   57 F    0 0 0
  49 N    1     2.3911     4.5185   30 C    0 0 0
  49 N    1     2.4087     4.5518    9 C    0 0 0

  53 F    1     1.3424     2.5368   30 C    0 0 0
  53 F    1     2.3637     4.4667   21 C    0 0 0
  53 F    1     2.3795     4.4965   17 C    0 0 0
  53 F    1     2.4632     4.6548   54 F    0-1-1
  53 F    1     2.6427     4.9939    1 H    0-1 0
  53 F    1     2.6800     5.0646   57 F    0 0 0

  57 F    1     1.3398     2.5319   21 C    0 0 0
  57 F    1     2.2863     4.3205   49 N    0 0 0
  57 F    1     2.3493     4.4395   30 C    0 0 0
  57 F    1     2.6137     4.9392    3 H    0 0 0
  57 F    1     2.6800     5.0646   53 F    0 0 0
  57 F    1     2.8814     5.4450   50 N    0 0 0

  61 ZN   4     2.0308     3.8376   33 N   -1-1 0   34 N   -1 0 1   35 N    0 0 1
                                    36 N   -1 0 0
  61 ZN   4     2.8367     5.3607    5 H   -1 0 0    6 H    0 0 1    7 H   -1-1 0
                                     8 H   -1 0 1
  61 ZN   4     2.9561     5.5863   37 N    0 0 1   38 N   -1 0 0   39 N   -1 0 1
                                    40 N   -1-1 0
  61 ZN   4     3.1057     5.8689   13 C   -1-1 0   14 C   -1 0 1   15 C    0 0 1
                                    16 C   -1 0 0
  61 ZN   4     3.3101     6.2551   25 C   -1 0 0   26 C    0 0 1   27 C   -1-1 0
                                    28 C   -1 0 1
  61 ZN   4     3.5419     6.6932    9 C   -1 0 0   10 C    0 0 1   11 C   -1-1 0
                                    12 C   -1 0 1

  62 ZN   4     2.0043     3.7876   41 N    0 0 0   42 N    0 0 0   43 N    1 1 0
                                    44 N    1 1 0
  62 ZN   4     2.8837     5.4495   45 N    0 0 0   46 N    0 0 0   47 N    1 1 0
                                    48 N    1 1 0
  62 ZN   4     3.1072     5.8717    1 H    0 0 0    2 H    0 0 0    3 H    1 1 0
                                     4 H    1 1 0
  62 ZN   4     3.1214     5.8986   13 C    0 0 0   14 C    0 0 0   15 C    1 1 0
                                    16 C    1 1 0
  62 ZN   4     3.6878     6.9688   17 C    0 1 0   18 C    1 0 0   19 C    0 0-1
                                    20 C    1 1 1
  62 ZN   4     3.7175     7.0250    9 C    0 1 0   10 C    1 0 0   11 C    0 0-1
                                    12 C    1 1 1


 SYMMETRY ALLOWED INTERNAL DEGREE(S) OF FREEDOM:  45
 TTTTTTTTTTTTTTTTTTTTTTTTTTTTTT SYMM        TELAPSE       15.31 TCPU        5.71
 TTTTTTTTTTTTTTTTTTTTTTTTTTTTTT INT_SCREEN  TELAPSE       15.31 TCPU        5.72
 INFORMATION **** EXCBUF **** EXCH. BIPO BUFFER: WORDS USED =           0

 DFT PARAMETERS

     ATOM       ELECTRONS   NET CHARGE   R(ANGSTROM)
   1   1  H       1.0000      0.0000     1.11000000
   9   6  C       6.0000      0.0000     0.77000000
  33   7  N       7.0000      0.0000     0.74000000
  53   9  F       9.0000      0.0000     0.72000000
  61  30  ZN     30.0000      0.0000     1.37000000

 SIZE OF GRID=     473313
 TTTTTTTTTTTTTTTTTTTTTTTTTTTTTT MAKE_GRID2  TELAPSE       16.13 TCPU        6.53
 BECKE WEIGHT FUNCTION
 RADSAFE =     2.00
 TOLERANCES - DENSITY:10**- 6; POTENTIAL:10**- 9; GRID WGT:10**-14

 RADIAL INTEGRATION  - INTERVALS (POINTS,UPPER LIMIT):            1( 75,  4.0*R)

 ANGULAR INTEGRATION - INTERVALS (ACCURACY LEVEL [N. POINTS] UPPER LIMIT):
  1(  4[  86]   0.2)  2(  8[ 194]   0.5)  3( 12[ 350]   0.9)  4( 16[ 974]   3.5)
  5( 12[ 350]9999.0)
 TTTTTTTTTTTTTTTTTTTTTTTTTTTTTT INT_CALC    TELAPSE       16.18 TCPU        6.58
 EEEEEEEEEE INT_CALC TERMINATION  DATE 01 12 2023 TIME 06:07:04.1

 *******************************************************************************
 Z:\home\sanoj\Downloads\tmp_p\newconn.mol                                       
 CRYSTAL - SCF - TYPE OF CALCULATION :  RESTRICTED CLOSED SHELL
 *******************************************************************************

 CAPPA:IS1  3;IS2  3;IS3  3; K PTS MONK NET   6; SYMMOPS:K SPACE   8;G SPACE   4

 TTTTTTTTTTTTTTTTTTTTTTTTTTTTTT SDIK        TELAPSE       16.41 TCPU        6.81

 AAAAAAAAAAAAAAAAAAAAAAAAAAAAAAAAAAAAAAAAAAAAAAAAAAAAAAAAAAAAAAAAAAAAAAAAAAAAAAA
         ATOMIC WAVEFUNCTION(S)


 NUCLEAR CHARGE  1.0  SYMMETRY SPECIES            S
 N. ELECTRONS    1.0  NUMBER OF PRIMITIVE GTOS    4
                      NUMBER OF CONTRACTED GTOS   2
                      NUMBER OF CLOSED SHELLS     0
                      OPEN SHELL OCCUPATION       1

  ZNUC SCFIT  TOTAL HF ENERGY   KINETIC ENERGY   VIRIAL THEOREM ACCURACY
   1.0   1   -4.946643675E-01  4.917913167E-01 -2.005842012E+00  9.4E-17

 NUCLEAR CHARGE  6.0  SYMMETRY SPECIES            S    P
 N. ELECTRONS    6.0  NUMBER OF PRIMITIVE GTOS    7    4
                      NUMBER OF CONTRACTED GTOS   3    2
                      NUMBER OF CLOSED SHELLS     2    0
                      OPEN SHELL OCCUPATION       0    2

  ZNUC SCFIT  TOTAL HF ENERGY   KINETIC ENERGY   VIRIAL THEOREM ACCURACY
   6.0   6   -3.750912652E+01  3.905246519E+01 -1.960480378E+00  3.7E-06

 NUCLEAR CHARGE  7.0  SYMMETRY SPECIES            S    P
 N. ELECTRONS    7.0  NUMBER OF PRIMITIVE GTOS    7    4
                      NUMBER OF CONTRACTED GTOS   3    2
                      NUMBER OF CLOSED SHELLS     2    0
                      OPEN SHELL OCCUPATION       0    3

  ZNUC SCFIT  TOTAL HF ENERGY   KINETIC ENERGY   VIRIAL THEOREM ACCURACY
   7.0   9   -5.432196661E+01  5.425066284E+01 -2.001314339E+00  1.2E-06

 NUCLEAR CHARGE  9.0  SYMMETRY SPECIES            S    P
 N. ELECTRONS    9.0  NUMBER OF PRIMITIVE GTOS    7    4
                      NUMBER OF CONTRACTED GTOS   3    2
                      NUMBER OF CLOSED SHELLS     2    0
                      OPEN SHELL OCCUPATION       0    5

  ZNUC SCFIT  TOTAL HF ENERGY   KINETIC ENERGY   VIRIAL THEOREM ACCURACY
   9.0  14   -9.927886620E+01  9.927374065E+01 -2.000051630E+00  4.0E-06

 NUCLEAR CHARGE 30.0  SYMMETRY SPECIES            S    P    D
 N. ELECTRONS   30.0  NUMBER OF PRIMITIVE GTOS   14    9    5
                      NUMBER OF CONTRACTED GTOS   5    3    2
                      NUMBER OF CLOSED SHELLS     4    2    1
                      OPEN SHELL OCCUPATION       0    0    0

  ZNUC SCFIT  TOTAL HF ENERGY   KINETIC ENERGY   VIRIAL THEOREM ACCURACY
  30.0  10   -1.777404290E+03  1.777325716E+03 -2.000044209E+00  2.5E-06

 AAAAAAAAAAAAAAAAAAAAAAAAAAAAAAAAAAAAAAAAAAAAAAAAAAAAAAAAAAAAAAAAAAAAAAAAAAAAAAA

 TOTAL ATOMIC CHARGES:
   1.0000000   1.0000000   1.0000000   1.0000000   1.0000000   1.0000000
   1.0000000   1.0000000   6.0000000   6.0000000   6.0000000   6.0000000
   6.0000000   6.0000000   6.0000000   6.0000000   6.0000000   6.0000000
   6.0000000   6.0000000   6.0000000   6.0000000   6.0000000   6.0000000
   6.0000000   6.0000000   6.0000000   6.0000000   6.0000000   6.0000000
   6.0000000   6.0000000   7.0000000   7.0000000   7.0000000   7.0000000
   7.0000000   7.0000000   7.0000000   7.0000000   7.0000000   7.0000000
   7.0000000   7.0000000   7.0000000   7.0000000   7.0000000   7.0000000
   7.0000000   7.0000000   7.0000000   7.0000000   9.0000000   9.0000000
   9.0000000   9.0000000   9.0000000   9.0000000   9.0000000   9.0000000
  30.0000000  30.0000000
 TTTTTTTTTTTTTTTTTTTTTTTTTTTTTT MOQGAD      TELAPSE       20.21 TCPU       10.59
 TTTTTTTTTTTTTTTTTTTTTTTTTTTTTT SHELLXN     TELAPSE       89.74 TCPU       77.59
 TTTTTTTTTTTTTTTTTTTTTTTTTTTTTT MONMO3      TELAPSE       94.62 TCPU       82.47
 NUMERICALLY INTEGRATED DENSITY    424.0000650968
 TTTTTTTTTTTTTTTTTTTTTTTTTTTTTT NUMDFT      TELAPSE       97.03 TCPU       84.86
 CYC   0 ETOT(AU) -6.370029109887E+03 DETOT -6.37E+03 tst  0.00E+00 PX  1.00E+00
 TTTTTTTTTTTTTTTTTTTTTTTTTTTTTT DIIS        TELAPSE       97.11 TCPU       84.95
 TTTTTTTTTTTTTTTTTTTTTTTTTTTTTT FDIK        TELAPSE      133.61 TCPU      120.75
 INSULATING STATE
 TOP OF VALENCE BANDS -    BAND    212; K    4; EIG -1.3479135E-01 AU
 TOP OF VALENCE BANDS -    BAND    212; K    1; EIG -1.3574747E-01 AU
 BOTTOM OF VIRTUAL BANDS - BAND    213; K    2; EIG -8.8873324E-02 AU
 INDIRECT ENERGY BAND GAP:   1.2495 eV
 BOTTOM OF VIRTUAL BANDS - BAND    213; K    1; EIG -8.8388570E-02 AU
 TTTTTTTTTTTTTTTTTTTTTTTTTTTTTT PDIG        TELAPSE      134.22 TCPU      121.35
 TOTAL ATOMIC CHARGES:
   1.2493234   1.2493234   1.2493234   1.2493234   1.3129316   1.3129316
   1.3129316   1.3129316   6.0831723   6.0831723   6.0831723   6.0831723
   5.4962157   5.4962157   5.4962157   5.4962157   6.3382916   6.3382916
   6.3382916   6.3382916   5.1103303   5.1103303   5.1103303   5.1103303
   5.8578973   5.8578973   5.8578973   5.8578973   5.3531194   5.3531194
   5.3531194   5.3531194   7.3858792   7.3858792   7.3858792   7.3858792
   7.1904152   7.1904152   7.1904152   7.1904152   7.3843020   7.3843020
   7.3843020   7.3843020   7.1710646   7.1710646   7.1710646   7.1710646
   7.5967300   7.5967300   7.5967300   7.5967300   9.2972003   9.2972003
   9.2972003   9.2972003   9.2784670   9.2784670   9.2784670   9.2784670
  27.7364038  27.8422371
 TTTTTTTTTTTTTTTTTTTTTTTTTTTTTT MOQGAD      TELAPSE      134.27 TCPU      121.40
 TTTTTTTTTTTTTTTTTTTTTTTTTTTTTT SHELLXN     TELAPSE      215.02 TCPU      199.80
 TTTTTTTTTTTTTTTTTTTTTTTTTTTTTT MONMO3      TELAPSE      224.31 TCPU      209.05
 NUMERICALLY INTEGRATED DENSITY    424.0000844298
 TTTTTTTTTTTTTTTTTTTTTTTTTTTTTT NUMDFT      TELAPSE      230.95 TCPU      215.67
 CYC   1 ETOT(AU) -6.364107654663E+03 DETOT  5.92E+00 tst  0.00E+00 PX  1.00E+00
 TTTTTTTTTTTTTTTTTTTTTTTTTTTTTT DIIS        TELAPSE      231.40 TCPU      216.11
 DIIS TEST: 0.13713E+02 AT SCF   CYCLE   1 - MIX   30 %
 TTTTTTTTTTTTTTTTTTTTTTTTTTTTTT FDIK        TELAPSE      245.37 TCPU      227.82
 INSULATING STATE
 TOP OF VALENCE BANDS -    BAND    212; K    6; EIG -1.6842609E-01 AU
 TOP OF VALENCE BANDS -    BAND    212; K    1; EIG -1.6845259E-01 AU
 BOTTOM OF VIRTUAL BANDS - BAND    213; K    6; EIG -1.1729697E-01 AU
 DIRECT ENERGY BAND GAP:   1.3913 eV
 BOTTOM OF VIRTUAL BANDS - BAND    213; K    1; EIG -1.1306396E-01 AU
 TTTTTTTTTTTTTTTTTTTTTTTTTTTTTT PDIG        TELAPSE      245.98 TCPU      228.43
 TOTAL ATOMIC CHARGES:
   1.2459558   1.2459558   1.2459558   1.2459558   1.3265645   1.3265645
   1.3265645   1.3265645   6.0818301   6.0818301   6.0818301   6.0818301
   6.1855898   6.1855898   6.1855898   6.1855898   6.1534797   6.1534797
   6.1534797   6.1534797   6.2555515   6.2555515   6.2555515   6.2555515
   6.1201368   6.1201368   6.1201368   6.1201368   6.0109695   6.0109695
   6.0109695   6.0109695   6.9427328   6.9427328   6.9427328   6.9427328
   6.8292206   6.8292206   6.8292206   6.8292206   6.9339219   6.9339219
   6.9339219   6.9339219   6.8637218   6.8637218   6.8637218   6.8637218
   6.1699741   6.1699741   6.1699741   6.1699741   9.0062742   9.0062742
   9.0062742   9.0062742   8.9835699   8.9835699   8.9835699   8.9835699
  29.8231296  29.7388991
 TTTTTTTTTTTTTTTTTTTTTTTTTTTTTT MOQGAD      TELAPSE      246.03 TCPU      228.48
 TTTTTTTTTTTTTTTTTTTTTTTTTTTTTT SHELLXN     TELAPSE      326.76 TCPU      306.75
 TTTTTTTTTTTTTTTTTTTTTTTTTTTTTT MONMO3      TELAPSE      333.18 TCPU      313.15
 NUMERICALLY INTEGRATED DENSITY    424.0000853637
 TTTTTTTTTTTTTTTTTTTTTTTTTTTTTT NUMDFT      TELAPSE      339.85 TCPU      319.82
 CYC   2 ETOT(AU) -6.363298350807E+03 DETOT  8.09E-01 tst  8.14E-02 PX  7.74E-01
 TTTTTTTTTTTTTTTTTTTTTTTTTTTTTT DIIS        TELAPSE      340.25 TCPU      320.20
 DIIS TEST: 0.16207E+02 AT SCF   CYCLE   2 - DIIS ACTIVE - HISTORY:     2 CYCLES
 TTTTTTTTTTTTTTTTTTTTTTTTTTTTTT FDIK        TELAPSE      354.08 TCPU      331.38
 INSULATING STATE
 TOP OF VALENCE BANDS -    BAND    212; K    4; EIG -2.4724498E-01 AU
 TOP OF VALENCE BANDS -    BAND    212; K    1; EIG -2.4729159E-01 AU
 BOTTOM OF VIRTUAL BANDS - BAND    213; K    5; EIG -1.1784801E-01 AU
 INDIRECT ENERGY BAND GAP:   3.5211 eV
 BOTTOM OF VIRTUAL BANDS - BAND    213; K    1; EIG -1.1701898E-01 AU
 TTTTTTTTTTTTTTTTTTTTTTTTTTTTTT PDIG        TELAPSE      354.68 TCPU      331.97
 TOTAL ATOMIC CHARGES:
   1.2087710   1.2087710   1.2087710   1.2087710   1.2282227   1.2282227
   1.2282227   1.2282227   5.9364381   5.9364381   5.9364381   5.9364381
   5.7537477   5.7537477   5.7537477   5.7537477   6.0935440   6.0935440
   6.0935440   6.0935440   5.5969012   5.5969012   5.5969012   5.5969012
   5.9876049   5.9876049   5.9876049   5.9876049   5.5098155   5.5098155
   5.5098155   5.5098155   7.0957712   7.0957712   7.0957712   7.0957712
   7.1618713   7.1618713   7.1618713   7.1618713   7.0634607   7.0634607
   7.0634607   7.0634607   7.0942190   7.0942190   7.0942190   7.0942190
   7.4471886   7.4471886   7.4471886   7.4471886   9.1682265   9.1682265
   9.1682265   9.1682265   9.1407580   9.1407580   9.1407580   9.1407580
  29.0219963  29.0318427
 TTTTTTTTTTTTTTTTTTTTTTTTTTTTTT MOQGAD      TELAPSE      354.73 TCPU      332.02
 TTTTTTTTTTTTTTTTTTTTTTTTTTTTTT SHELLXN     TELAPSE      435.78 TCPU      410.09
 TTTTTTTTTTTTTTTTTTTTTTTTTTTTTT MONMO3      TELAPSE      441.89 TCPU      416.17
 NUMERICALLY INTEGRATED DENSITY    424.0000790745
 TTTTTTTTTTTTTTTTTTTTTTTTTTTTTT NUMDFT      TELAPSE      448.48 TCPU      422.74
 CYC   3 ETOT(AU) -6.366050198170E+03 DETOT -2.75E+00 tst  5.06E-03 PX  7.01E-01
 TTTTTTTTTTTTTTTTTTTTTTTTTTTTTT DIIS        TELAPSE      448.64 TCPU      422.89
 DIIS TEST: 0.20024E+01 AT SCF   CYCLE   3 - DIIS ACTIVE - HISTORY:     3 CYCLES
 TTTTTTTTTTTTTTTTTTTTTTTTTTTTTT FDIK        TELAPSE      464.14 TCPU      434.59
 INSULATING STATE
 TOP OF VALENCE BANDS -    BAND    212; K    6; EIG -2.2970776E-01 AU
 TOP OF VALENCE BANDS -    BAND    212; K    1; EIG -2.2975491E-01 AU
 BOTTOM OF VIRTUAL BANDS - BAND    213; K    5; EIG -1.1967903E-01 AU
 INDIRECT ENERGY BAND GAP:   2.9940 eV
 BOTTOM OF VIRTUAL BANDS - BAND    213; K    1; EIG -1.1729434E-01 AU
 TTTTTTTTTTTTTTTTTTTTTTTTTTTTTT PDIG        TELAPSE      464.74 TCPU      435.18
 TOTAL ATOMIC CHARGES:
   1.1812372   1.1812372   1.1812372   1.1812372   1.2568047   1.2568047
   1.2568047   1.2568047   6.1452816   6.1452816   6.1452816   6.1452816
   5.7858462   5.7858462   5.7858462   5.7858462   6.3722154   6.3722154
   6.3722154   6.3722154   5.5188031   5.5188031   5.5188031   5.5188031
   5.9145960   5.9145960   5.9145960   5.9145960   5.6425675   5.6425675
   5.6425675   5.6425675   7.1903821   7.1903821   7.1903821   7.1903821
   6.9986328   6.9986328   6.9986328   6.9986328   7.2311630   7.2311630
   7.2311630   7.2311630   7.0866607   7.0866607   7.0866607   7.0866607
   6.9273240   6.9273240   6.9273240   6.9273240   9.2011583   9.2011583
   9.2011583   9.2011583   9.1614762   9.1614762   9.1614762   9.1614762
  28.7448846  28.7985204
 TTTTTTTTTTTTTTTTTTTTTTTTTTTTTT MOQGAD      TELAPSE      464.78 TCPU      435.23
 TTTTTTTTTTTTTTTTTTTTTTTTTTTTTT SHELLXN     TELAPSE      543.20 TCPU      513.31
 TTTTTTTTTTTTTTTTTTTTTTTTTTTTTT MONMO3      TELAPSE      549.40 TCPU      519.49
 NUMERICALLY INTEGRATED DENSITY    424.0000781685
 TTTTTTTTTTTTTTTTTTTTTTTTTTTTTT NUMDFT      TELAPSE      555.99 TCPU      526.06
 CYC   4 ETOT(AU) -6.366139075502E+03 DETOT -8.89E-02 tst  1.89E-03 PX  1.52E-01
 TTTTTTTTTTTTTTTTTTTTTTTTTTTTTT DIIS        TELAPSE      556.18 TCPU      526.25
 DIIS TEST: 0.13222E+01 AT SCF   CYCLE   4 - DIIS ACTIVE - HISTORY:     4 CYCLES
 TTTTTTTTTTTTTTTTTTTTTTTTTTTTTT FDIK        TELAPSE      568.47 TCPU      538.25
 INSULATING STATE
 TOP OF VALENCE BANDS -    BAND    212; K    5; EIG -2.4919213E-01 AU
 TOP OF VALENCE BANDS -    BAND    212; K    1; EIG -2.4995796E-01 AU
 BOTTOM OF VIRTUAL BANDS - BAND    213; K    5; EIG -1.1711429E-01 AU
 DIRECT ENERGY BAND GAP:   3.5940 eV
 BOTTOM OF VIRTUAL BANDS - BAND    213; K    1; EIG -1.1489094E-01 AU
 TTTTTTTTTTTTTTTTTTTTTTTTTTTTTT PDIG        TELAPSE      569.06 TCPU      538.85
 TOTAL ATOMIC CHARGES:
   1.1902045   1.1902045   1.1902045   1.1902045   1.2471176   1.2471176
   1.2471176   1.2471176   6.0517912   6.0517912   6.0517912   6.0517912
   5.7889981   5.7889981   5.7889981   5.7889981   6.2263223   6.2263223
   6.2263223   6.2263223   5.6383146   5.6383146   5.6383146   5.6383146
   5.9863986   5.9863986   5.9863986   5.9863986   5.6471044   5.6471044
   5.6471044   5.6471044   7.1975187   7.1975187   7.1975187   7.1975187
   7.0959142   7.0959142   7.0959142   7.0959142   7.1028071   7.1028071
   7.1028071   7.1028071   7.0230430   7.0230430   7.0230430   7.0230430
   7.0807040   7.0807040   7.0807040   7.0807040   9.1652988   9.1652988
   9.1652988   9.1652988   9.1411855   9.1411855   9.1411855   9.1411855
  28.8268866  28.8422226
 TTTTTTTTTTTTTTTTTTTTTTTTTTTTTT MOQGAD      TELAPSE      569.11 TCPU      538.90
 TTTTTTTTTTTTTTTTTTTTTTTTTTTTTT SHELLXN     TELAPSE      650.09 TCPU      617.20
 TTTTTTTTTTTTTTTTTTTTTTTTTTTTTT MONMO3      TELAPSE      656.02 TCPU      623.12
 NUMERICALLY INTEGRATED DENSITY    424.0000831721
 TTTTTTTTTTTTTTTTTTTTTTTTTTTTTT NUMDFT      TELAPSE      662.59 TCPU      629.68
 CYC   5 ETOT(AU) -6.366319697970E+03 DETOT -1.81E-01 tst  6.11E-04 PX  1.05E-01
 TTTTTTTTTTTTTTTTTTTTTTTTTTTTTT DIIS        TELAPSE      662.87 TCPU      629.95
 DIIS TEST: 0.92776E-01 AT SCF   CYCLE   5 - DIIS ACTIVE - HISTORY:     5 CYCLES
 TTTTTTTTTTTTTTTTTTTTTTTTTTTTTT FDIK        TELAPSE      673.54 TCPU      638.75
 INSULATING STATE
 TOP OF VALENCE BANDS -    BAND    212; K    5; EIG -2.4741048E-01 AU
 TOP OF VALENCE BANDS -    BAND    212; K    1; EIG -2.4830121E-01 AU
 BOTTOM OF VIRTUAL BANDS - BAND    213; K    3; EIG -1.1709067E-01 AU
 INDIRECT ENERGY BAND GAP:   3.5462 eV
 BOTTOM OF VIRTUAL BANDS - BAND    213; K    1; EIG -1.1503164E-01 AU
 TTTTTTTTTTTTTTTTTTTTTTTTTTTTTT PDIG        TELAPSE      674.13 TCPU      639.35
 TOTAL ATOMIC CHARGES:
   1.1943533   1.1943533   1.1943533   1.1943533   1.2442004   1.2442004
   1.2442004   1.2442004   6.0671096   6.0671096   6.0671096   6.0671096
   5.7968221   5.7968221   5.7968221   5.7968221   6.2299581   6.2299581
   6.2299581   6.2299581   5.6212345   5.6212345   5.6212345   5.6212345
   5.9605828   5.9605828   5.9605828   5.9605828   5.6225590   5.6225590
   5.6225590   5.6225590   7.1108659   7.1108659   7.1108659   7.1108659
   7.0335262   7.0335262   7.0335262   7.0335262   7.1722989   7.1722989
   7.1722989   7.1722989   7.0973527   7.0973527   7.0973527   7.0973527
   7.1103837   7.1103837   7.1103837   7.1103837   9.1678185   9.1678185
   9.1678185   9.1678185   9.1366357   9.1366357   9.1366357   9.1366357
  28.8537453  28.8834488
 TTTTTTTTTTTTTTTTTTTTTTTTTTTTTT MOQGAD      TELAPSE      674.18 TCPU      639.39
 TTTTTTTTTTTTTTTTTTTTTTTTTTTTTT SHELLXN     TELAPSE      754.66 TCPU      717.28
 TTTTTTTTTTTTTTTTTTTTTTTTTTTTTT MONMO3      TELAPSE      761.21 TCPU      723.81
 NUMERICALLY INTEGRATED DENSITY    424.0000809454
 TTTTTTTTTTTTTTTTTTTTTTTTTTTTTT NUMDFT      TELAPSE      767.77 TCPU      730.33
 CYC   6 ETOT(AU) -6.366324582131E+03 DETOT -4.88E-03 tst  1.27E-04 PX  2.66E-02
 TTTTTTTTTTTTTTTTTTTTTTTTTTTTTT DIIS        TELAPSE      767.94 TCPU      730.50
 DIIS TEST: 0.61373E-01 AT SCF   CYCLE   6 - DIIS ACTIVE - HISTORY:     6 CYCLES
 TTTTTTTTTTTTTTTTTTTTTTTTTTTTTT FDIK        TELAPSE      780.16 TCPU      740.57
 INSULATING STATE
 TOP OF VALENCE BANDS -    BAND    212; K    5; EIG -2.4755616E-01 AU
 TOP OF VALENCE BANDS -    BAND    212; K    1; EIG -2.4830585E-01 AU
 BOTTOM OF VIRTUAL BANDS - BAND    213; K    5; EIG -1.1771539E-01 AU
 DIRECT ENERGY BAND GAP:   3.5331 eV
 BOTTOM OF VIRTUAL BANDS - BAND    213; K    1; EIG -1.1563450E-01 AU
 TTTTTTTTTTTTTTTTTTTTTTTTTTTTTT PDIG        TELAPSE      780.76 TCPU      741.17
 TOTAL ATOMIC CHARGES:
   1.1922109   1.1922109   1.1922109   1.1922109   1.2454379   1.2454379
   1.2454379   1.2454379   6.0696084   6.0696084   6.0696084   6.0696084
   5.7987831   5.7987831   5.7987831   5.7987831   6.2285317   6.2285317
   6.2285317   6.2285317   5.6099856   5.6099856   5.6099856   5.6099856
   5.9701286   5.9701286   5.9701286   5.9701286   5.6197229   5.6197229
   5.6197229   5.6197229   7.1624295   7.1624295   7.1624295   7.1624295
   7.0765498   7.0765498   7.0765498   7.0765498   7.1287402   7.1287402
   7.1287402   7.1287402   7.0538252   7.0538252   7.0538252   7.0538252
   7.0991868   7.0991868   7.0991868   7.0991868   9.1706523   9.1706523
   9.1706523   9.1706523   9.1364619   9.1364619   9.1364619   9.1364619
  28.8632986  28.8876829
 TTTTTTTTTTTTTTTTTTTTTTTTTTTTTT MOQGAD      TELAPSE      780.81 TCPU      741.21
 TTTTTTTTTTTTTTTTTTTTTTTTTTTTTT SHELLXN     TELAPSE      861.43 TCPU      819.32
 TTTTTTTTTTTTTTTTTTTTTTTTTTTTTT MONMO3      TELAPSE      867.53 TCPU      825.40
 NUMERICALLY INTEGRATED DENSITY    424.0000808431
 TTTTTTTTTTTTTTTTTTTTTTTTTTTTTT NUMDFT      TELAPSE      874.11 TCPU      831.96
 CYC   7 ETOT(AU) -6.366332519110E+03 DETOT -7.94E-03 tst  4.80E-05 PX  1.59E-02
 TTTTTTTTTTTTTTTTTTTTTTTTTTTTTT DIIS        TELAPSE      874.50 TCPU      832.35
 DIIS TEST: 0.91061E-02 AT SCF   CYCLE   7 - DIIS ACTIVE - HISTORY:     7 CYCLES
 TTTTTTTTTTTTTTTTTTTTTTTTTTTTTT FDIK        TELAPSE      886.47 TCPU      841.97
 INSULATING STATE
 TOP OF VALENCE BANDS -    BAND    212; K    5; EIG -2.4804247E-01 AU
 TOP OF VALENCE BANDS -    BAND    212; K    1; EIG -2.4885668E-01 AU
 BOTTOM OF VIRTUAL BANDS - BAND    213; K    5; EIG -1.1744792E-01 AU
 DIRECT ENERGY BAND GAP:   3.5537 eV
 BOTTOM OF VIRTUAL BANDS - BAND    213; K    1; EIG -1.1540852E-01 AU
 TTTTTTTTTTTTTTTTTTTTTTTTTTTTTT PDIG        TELAPSE      887.07 TCPU      842.57
 TOTAL ATOMIC CHARGES:
   1.1917263   1.1917263   1.1917263   1.1917263   1.2443186   1.2443186
   1.2443186   1.2443186   6.0559203   6.0559203   6.0559203   6.0559203
   5.7943198   5.7943198   5.7943198   5.7943198   6.2260472   6.2260472
   6.2260472   6.2260472   5.6266924   5.6266924   5.6266924   5.6266924
   5.9706387   5.9706387   5.9706387   5.9706387   5.6320575   5.6320575
   5.6320575   5.6320575   7.1532178   7.1532178   7.1532178   7.1532178
   7.0664540   7.0664540   7.0664540   7.0664540   7.1373492   7.1373492
   7.1373492   7.1373492   7.0634342   7.0634342   7.0634342   7.0634342
   7.0965271   7.0965271   7.0965271   7.0965271   9.1676389   9.1676389
   9.1676389   9.1676389   9.1382338   9.1382338   9.1382338   9.1382338
  28.8581593  28.8835371
 TTTTTTTTTTTTTTTTTTTTTTTTTTTTTT MOQGAD      TELAPSE      887.12 TCPU      842.62
 TTTTTTTTTTTTTTTTTTTTTTTTTTTTTT SHELLXN     TELAPSE      965.55 TCPU      920.50
 TTTTTTTTTTTTTTTTTTTTTTTTTTTTTT MONMO3      TELAPSE      972.37 TCPU      927.31
 NUMERICALLY INTEGRATED DENSITY    424.0000810193
 TTTTTTTTTTTTTTTTTTTTTTTTTTTTTT NUMDFT      TELAPSE      978.93 TCPU      933.86
 CYC   8 ETOT(AU) -6.366333708627E+03 DETOT -1.19E-03 tst  1.19E-05 PX  6.73E-03
 TTTTTTTTTTTTTTTTTTTTTTTTTTTTTT DIIS        TELAPSE      979.26 TCPU      934.18
 DIIS TEST: 0.10187E-02 AT SCF   CYCLE   8 - DIIS ACTIVE - HISTORY:     8 CYCLES
 TTTTTTTTTTTTTTTTTTTTTTTTTTTTTT FDIK        TELAPSE      991.76 TCPU      943.54
 INSULATING STATE
 TOP OF VALENCE BANDS -    BAND    212; K    5; EIG -2.4816544E-01 AU
 TOP OF VALENCE BANDS -    BAND    212; K    1; EIG -2.4890585E-01 AU
 BOTTOM OF VIRTUAL BANDS - BAND    213; K    5; EIG -1.1764208E-01 AU
 DIRECT ENERGY BAND GAP:   3.5517 eV
 BOTTOM OF VIRTUAL BANDS - BAND    213; K    1; EIG -1.1559278E-01 AU
 TTTTTTTTTTTTTTTTTTTTTTTTTTTTTT PDIG        TELAPSE      992.35 TCPU      944.14
 TOTAL ATOMIC CHARGES:
   1.1914980   1.1914980   1.1914980   1.1914980   1.2430569   1.2430569
   1.2430569   1.2430569   6.0642828   6.0642828   6.0642828   6.0642828
   5.7943976   5.7943976   5.7943976   5.7943976   6.2268328   6.2268328
   6.2268328   6.2268328   5.6195655   5.6195655   5.6195655   5.6195655
   5.9744946   5.9744946   5.9744946   5.9744946   5.6259004   5.6259004
   5.6259004   5.6259004   7.1539967   7.1539967   7.1539967   7.1539967
   7.0640841   7.0640841   7.0640841   7.0640841   7.1391300   7.1391300
   7.1391300   7.1391300   7.0592882   7.0592882   7.0592882   7.0592882
   7.1013605   7.1013605   7.1013605   7.1013605   9.1673522   9.1673522
   9.1673522   9.1673522   9.1378934   9.1378934   9.1378934   9.1378934
  28.8615858  28.8858792
 TTTTTTTTTTTTTTTTTTTTTTTTTTTTTT MOQGAD      TELAPSE      992.40 TCPU      944.18
 TTTTTTTTTTTTTTTTTTTTTTTTTTTTTT SHELLXN     TELAPSE     1072.93 TCPU     1022.18
 TTTTTTTTTTTTTTTTTTTTTTTTTTTTTT MONMO3      TELAPSE     1079.08 TCPU     1028.32
 NUMERICALLY INTEGRATED DENSITY    424.0000812596
 TTTTTTTTTTTTTTTTTTTTTTTTTTTTTT NUMDFT      TELAPSE     1085.67 TCPU     1034.90
 CYC   9 ETOT(AU) -6.366333799650E+03 DETOT -9.10E-05 tst  1.53E-06 PX  2.70E-03
 TTTTTTTTTTTTTTTTTTTTTTTTTTTTTT DIIS        TELAPSE     1085.97 TCPU     1035.19
 DIIS TEST: 0.48096E-03 AT SCF   CYCLE   9 - DIIS ACTIVE - HISTORY:     9 CYCLES
 TTTTTTTTTTTTTTTTTTTTTTTTTTTTTT FDIK        TELAPSE     1097.35 TCPU     1045.33
 INSULATING STATE
 TOP OF VALENCE BANDS -    BAND    212; K    5; EIG -2.4805422E-01 AU
 TOP OF VALENCE BANDS -    BAND    212; K    1; EIG -2.4883774E-01 AU
 BOTTOM OF VIRTUAL BANDS - BAND    213; K    5; EIG -1.1749752E-01 AU
 DIRECT ENERGY BAND GAP:   3.5526 eV
 BOTTOM OF VIRTUAL BANDS - BAND    213; K    1; EIG -1.1544993E-01 AU
 TTTTTTTTTTTTTTTTTTTTTTTTTTTTTT PDIG        TELAPSE     1097.94 TCPU     1045.93
 TOTAL ATOMIC CHARGES:
   1.1917198   1.1917198   1.1917198   1.1917198   1.2439059   1.2439059
   1.2439059   1.2439059   6.0613683   6.0613683   6.0613683   6.0613683
   5.7936779   5.7936779   5.7936779   5.7936779   6.2264683   6.2264683
   6.2264683   6.2264683   5.6213765   5.6213765   5.6213765   5.6213765
   5.9701047   5.9701047   5.9701047   5.9701047   5.6282529   5.6282529
   5.6282529   5.6282529   7.1529116   7.1529116   7.1529116   7.1529116
   7.0677874   7.0677874   7.0677874   7.0677874   7.1364758   7.1364758
   7.1364758   7.1364758   7.0626795   7.0626795   7.0626795   7.0626795
   7.0999690   7.0999690   7.0999690   7.0999690   9.1688499   9.1688499
   9.1688499   9.1688499   9.1378662   9.1378662   9.1378662   9.1378662
  28.8607573  28.8855870
 TTTTTTTTTTTTTTTTTTTTTTTTTTTTTT MOQGAD      TELAPSE     1097.99 TCPU     1045.97
 TTTTTTTTTTTTTTTTTTTTTTTTTTTTTT SHELLXN     TELAPSE     1178.56 TCPU     1123.95
 TTTTTTTTTTTTTTTTTTTTTTTTTTTTTT MONMO3      TELAPSE     1184.77 TCPU     1130.14
 NUMERICALLY INTEGRATED DENSITY    424.0000810782
 TTTTTTTTTTTTTTTTTTTTTTTTTTTTTT NUMDFT      TELAPSE     1191.34 TCPU     1136.70
 CYC  10 ETOT(AU) -6.366333865348E+03 DETOT -6.57E-05 tst  5.23E-07 PX  1.52E-03
 TTTTTTTTTTTTTTTTTTTTTTTTTTTTTT DIIS        TELAPSE     1191.56 TCPU     1136.91
 DIIS TEST: 0.80296E-04 AT SCF   CYCLE  10 - DIIS ACTIVE - HISTORY:    10 CYCLES
 TTTTTTTTTTTTTTTTTTTTTTTTTTTTTT FDIK        TELAPSE     1204.48 TCPU     1147.62
 INSULATING STATE
 TOP OF VALENCE BANDS -    BAND    212; K    5; EIG -2.4806211E-01 AU
 TOP OF VALENCE BANDS -    BAND    212; K    1; EIG -2.4883730E-01 AU
 BOTTOM OF VIRTUAL BANDS - BAND    213; K    5; EIG -1.1757565E-01 AU
 DIRECT ENERGY BAND GAP:   3.5507 eV
 BOTTOM OF VIRTUAL BANDS - BAND    213; K    1; EIG -1.1553289E-01 AU
 TTTTTTTTTTTTTTTTTTTTTTTTTTTTTT PDIG        TELAPSE     1205.07 TCPU     1148.21
 TOTAL ATOMIC CHARGES:
   1.1918220   1.1918220   1.1918220   1.1918220   1.2437685   1.2437685
   1.2437685   1.2437685   6.0605800   6.0605800   6.0605800   6.0605800
   5.7946496   5.7946496   5.7946496   5.7946496   6.2260431   6.2260431
   6.2260431   6.2260431   5.6223482   5.6223482   5.6223482   5.6223482
   5.9719797   5.9719797   5.9719797   5.9719797   5.6277627   5.6277627
   5.6277627   5.6277627   7.1540471   7.1540471   7.1540471   7.1540471
   7.0658483   7.0658483   7.0658483   7.0658483   7.1382674   7.1382674
   7.1382674   7.1382674   7.0614997   7.0614997   7.0614997   7.0614997
   7.0996935   7.0996935   7.0996935   7.0996935   9.1678358   9.1678358
   9.1678358   9.1678358   9.1378162   9.1378162   9.1378162   9.1378162
  28.8597214  28.8844315
 TTTTTTTTTTTTTTTTTTTTTTTTTTTTTT MOQGAD      TELAPSE     1205.12 TCPU     1148.26
 TTTTTTTTTTTTTTTTTTTTTTTTTTTTTT SHELLXN     TELAPSE     1285.11 TCPU     1225.74
 TTTTTTTTTTTTTTTTTTTTTTTTTTTTTT MONMO3      TELAPSE     1291.97 TCPU     1232.58
 NUMERICALLY INTEGRATED DENSITY    424.0000811024
 TTTTTTTTTTTTTTTTTTTTTTTTTTTTTT NUMDFT      TELAPSE     1298.56 TCPU     1239.16
 CYC  11 ETOT(AU) -6.366333876789E+03 DETOT -1.14E-05 tst  4.49E-08 PX  8.92E-04
 TTTTTTTTTTTTTTTTTTTTTTTTTTTTTT DIIS        TELAPSE     1298.75 TCPU     1239.34
 DIIS TEST: 0.19053E-04 AT SCF   CYCLE  11 - DIIS ACTIVE - HISTORY:    11 CYCLES
 TTTTTTTTTTTTTTTTTTTTTTTTTTTTTT FDIK        TELAPSE     1310.59 TCPU     1249.23
 INSULATING STATE
 TOP OF VALENCE BANDS -    BAND    212; K    5; EIG -2.4808387E-01 AU
 TOP OF VALENCE BANDS -    BAND    212; K    1; EIG -2.4885982E-01 AU
 BOTTOM OF VIRTUAL BANDS - BAND    213; K    5; EIG -1.1754483E-01 AU
 DIRECT ENERGY BAND GAP:   3.5521 eV
 BOTTOM OF VIRTUAL BANDS - BAND    213; K    1; EIG -1.1549965E-01 AU
 TTTTTTTTTTTTTTTTTTTTTTTTTTTTTT PDIG        TELAPSE     1311.18 TCPU     1249.82
 TOTAL ATOMIC CHARGES:
   1.1916799   1.1916799   1.1916799   1.1916799   1.2436896   1.2436896
   1.2436896   1.2436896   6.0611603   6.0611603   6.0611603   6.0611603
   5.7943627   5.7943627   5.7943627   5.7943627   6.2264722   6.2264722
   6.2264722   6.2264722   5.6217137   5.6217137   5.6217137   5.6217137
   5.9718621   5.9718621   5.9718621   5.9718621   5.6280248   5.6280248
   5.6280248   5.6280248   7.1531429   7.1531429   7.1531429   7.1531429
   7.0666877   7.0666877   7.0666877   7.0666877   7.1372827   7.1372827
   7.1372827   7.1372827   7.0618830   7.0618830   7.0618830   7.0618830
   7.0997645   7.0997645   7.0997645   7.0997645   9.1680725   9.1680725
   9.1680725   9.1680725   9.1378874   9.1378874   9.1378874   9.1378874
  28.8602001  28.8850552
 TTTTTTTTTTTTTTTTTTTTTTTTTTTTTT MOQGAD      TELAPSE     1311.23 TCPU     1249.87
 TTTTTTTTTTTTTTTTTTTTTTTTTTTTTT SHELLXN     TELAPSE     1389.19 TCPU     1327.18
 TTTTTTTTTTTTTTTTTTTTTTTTTTTTTT MONMO3      TELAPSE     1398.90 TCPU     1336.87
 NUMERICALLY INTEGRATED DENSITY    424.0000811030
 TTTTTTTTTTTTTTTTTTTTTTTTTTTTTT NUMDFT      TELAPSE     1405.48 TCPU     1343.44
 CYC  12 ETOT(AU) -6.366333879202E+03 DETOT -2.41E-06 tst  1.19E-08 PX  2.93E-04
 TTTTTTTTTTTTTTTTTTTTTTTTTTTTTT DIIS        TELAPSE     1405.85 TCPU     1343.81
 DIIS TEST: 0.32584E-05 AT SCF   CYCLE  12 - DIIS ACTIVE - HISTORY:    12 CYCLES
 TTTTTTTTTTTTTTTTTTTTTTTTTTTTTT FDIK        TELAPSE     1416.96 TCPU     1354.52
 INSULATING STATE
 TOP OF VALENCE BANDS -    BAND    212; K    5; EIG -2.4807203E-01 AU
 TOP OF VALENCE BANDS -    BAND    212; K    1; EIG -2.4884572E-01 AU
 BOTTOM OF VIRTUAL BANDS - BAND    213; K    5; EIG -1.1754514E-01 AU
 DIRECT ENERGY BAND GAP:   3.5518 eV
 BOTTOM OF VIRTUAL BANDS - BAND    213; K    1; EIG -1.1549936E-01 AU
 TTTTTTTTTTTTTTTTTTTTTTTTTTTTTT PDIG        TELAPSE     1417.56 TCPU     1355.11
 TOTAL ATOMIC CHARGES:
   1.1917195   1.1917195   1.1917195   1.1917195   1.2437308   1.2437308
   1.2437308   1.2437308   6.0611873   6.0611873   6.0611873   6.0611873
   5.7940919   5.7940919   5.7940919   5.7940919   6.2262971   6.2262971
   6.2262971   6.2262971   5.6217486   5.6217486   5.6217486   5.6217486
   5.9715187   5.9715187   5.9715187   5.9715187   5.6279984   5.6279984
   5.6279984   5.6279984   7.1537302   7.1537302   7.1537302   7.1537302
   7.0663109   7.0663109   7.0663109   7.0663109   7.1377189   7.1377189
   7.1377189   7.1377189   7.0616661   7.0616661   7.0616661   7.0616661
   7.0998951   7.0998951   7.0998951   7.0998951   9.1681767   9.1681767
   9.1681767   9.1681767   9.1378991   9.1378991   9.1378991   9.1378991
  28.8602227  28.8850191
 TTTTTTTTTTTTTTTTTTTTTTTTTTTTTT MOQGAD      TELAPSE     1417.60 TCPU     1355.16
 TTTTTTTTTTTTTTTTTTTTTTTTTTTTTT SHELLXN     TELAPSE     1495.31 TCPU     1432.54
 TTTTTTTTTTTTTTTTTTTTTTTTTTTTTT MONMO3      TELAPSE     1502.40 TCPU     1439.60
 NUMERICALLY INTEGRATED DENSITY    424.0000811085
 TTTTTTTTTTTTTTTTTTTTTTTTTTTTTT NUMDFT      TELAPSE     1509.00 TCPU     1446.18
[...]

 ANGULAR INTEGRATION - INTERVALS (ACCURACY LEVEL [N. POINTS] UPPER LIMIT):
  1(  4[  86]   0.2)  2(  8[ 194]   0.5)  3( 12[ 350]   0.9)  4( 16[ 974]   3.5)
  5( 12[ 350]9999.0)
 TTTTTTTTTTTTTTTTTTTTTTTTTTTTTT INT_CALC    TELAPSE   278146.26 TCPU   275035.23
 CYCLE   0   ALPHA  542.463754  EPSILON    2.464535  DELTA    5.4246E+02
 TTTTTTTTTTTTTTTTTTTTTTTTTTTTTT MOQGAD      TELAPSE   278866.07 TCPU   275752.77
 TTTTTTTTTTTTTTTTTTTTTTTTTTTTTT CP_MONMON   TELAPSE   278882.72 TCPU   275769.38
 DIIS TEST: 0.65250E+02 AT CPHF  CYCLE   1 - MIX    0 %
 CYCLE   1   ALPHA  276.378161  EPSILON    1.746161  DELTA   -2.6609E+02
 TTTTTTTTTTTTTTTTTTTTTTTTTTTTTT MOQGAD      TELAPSE   279620.93 TCPU   276490.81
 TTTTTTTTTTTTTTTTTTTTTTTTTTTTTT CP_MONMON   TELAPSE   279637.58 TCPU   276507.42
 DIIS TEST: 0.42493E+03 AT CPHF  CYCLE   2 - DIIS ACTIVE - HISTORY:     2 CYCLES
 CYCLE   2   ALPHA  403.265694  EPSILON    2.088730  DELTA    1.2689E+02
 TTTTTTTTTTTTTTTTTTTTTTTTTTTTTT MOQGAD      TELAPSE   280369.35 TCPU   277233.30
 TTTTTTTTTTTTTTTTTTTTTTTTTTTTTT CP_MONMON   TELAPSE   280386.04 TCPU   277249.94
 DIIS TEST: 0.17288E+02 AT CPHF  CYCLE   3 - DIIS ACTIVE - HISTORY:     3 CYCLES
 CYCLE   3   ALPHA  426.865777  EPSILON    2.152446  DELTA    2.3600E+01
 TTTTTTTTTTTTTTTTTTTTTTTTTTTTTT MOQGAD      TELAPSE   281117.53 TCPU   277975.05
 TTTTTTTTTTTTTTTTTTTTTTTTTTTTTT CP_MONMON   TELAPSE   281134.24 TCPU   277991.73
 DIIS TEST: 0.38144E+01 AT CPHF  CYCLE   4 - DIIS ACTIVE - HISTORY:     4 CYCLES
 CYCLE   4   ALPHA  427.957582  EPSILON    2.155393  DELTA    1.0918E+00
 TTTTTTTTTTTTTTTTTTTTTTTTTTTTTT MOQGAD      TELAPSE   281865.97 TCPU   278716.19
 TTTTTTTTTTTTTTTTTTTTTTTTTTTTTT CP_MONMON   TELAPSE   281882.82 TCPU   278732.97
 DIIS TEST: 0.97109E-01 AT CPHF  CYCLE   5 - DIIS ACTIVE - HISTORY:     5 CYCLES
 CYCLE   5   ALPHA  428.338341  EPSILON    2.156421  DELTA    3.8076E-01
 TTTTTTTTTTTTTTTTTTTTTTTTTTTTTT MOQGAD      TELAPSE   282613.34 TCPU   279458.08
 TTTTTTTTTTTTTTTTTTTTTTTTTTTTTT CP_MONMON   TELAPSE   282630.02 TCPU   279474.72
 DIIS TEST: 0.12645E-01 AT CPHF  CYCLE   6 - DIIS ACTIVE - HISTORY:     6 CYCLES
 CYCLE   6   ALPHA  428.441466  EPSILON    2.156700  DELTA    1.0313E-01
 TTTTTTTTTTTTTTTTTTTTTTTTTTTTTT MOQGAD      TELAPSE   283362.39 TCPU   280200.27
 TTTTTTTTTTTTTTTTTTTTTTTTTTTTTT CP_MONMON   TELAPSE   283379.08 TCPU   280216.88
 DIIS TEST: 0.12538E-02 AT CPHF  CYCLE   7 - DIIS ACTIVE - HISTORY:     7 CYCLES
 CYCLE   7   ALPHA  428.459778  EPSILON    2.156749  DELTA    1.8312E-02
 TTTTTTTTTTTTTTTTTTTTTTTTTTTTTT MOQGAD      TELAPSE   284109.85 TCPU   280943.21
 TTTTTTTTTTTTTTTTTTTTTTTTTTTTTT CP_MONMON   TELAPSE   284126.57 TCPU   280959.88
 DIIS TEST: 0.17736E-03 AT CPHF  CYCLE   8 - DIIS ACTIVE - HISTORY:     8 CYCLES
 CYCLE   8   ALPHA  428.449268  EPSILON    2.156721  DELTA   -1.0511E-02
 TTTTTTTTTTTTTTTTTTTTTTTTTTTTTT MOQGAD      TELAPSE   284863.67 TCPU   281686.48
 TTTTTTTTTTTTTTTTTTTTTTTTTTTTTT CP_MONMON   TELAPSE   284880.49 TCPU   281703.26
 DIIS TEST: 0.22783E-04 AT CPHF  CYCLE   9 - DIIS ACTIVE - HISTORY:     9 CYCLES
 CYCLE   9   ALPHA  428.443614  EPSILON    2.156705  DELTA   -5.6541E-03
 TTTTTTTTTTTTTTTTTTTTTTTTTTTTTT MOQGAD      TELAPSE   285626.75 TCPU   282437.56
 TTTTTTTTTTTTTTTTTTTTTTTTTTTTTT CP_MONMON   TELAPSE   285643.45 TCPU   282454.22
 DIIS TEST: 0.36882E-05 AT CPHF  CYCLE  10 - DIIS ACTIVE - HISTORY:    10 CYCLES
 CYCLE  10   ALPHA  428.441646  EPSILON    2.156700  DELTA   -1.9680E-03
 TTTTTTTTTTTTTTTTTTTTTTTTTTTTTT MOQGAD      TELAPSE   286379.62 TCPU   283180.81
 TTTTTTTTTTTTTTTTTTTTTTTTTTTTTT CP_MONMON   TELAPSE   286396.31 TCPU   283197.45
 DIIS TEST: 0.91303E-06 AT CPHF  CYCLE  11 - DIIS ACTIVE - HISTORY:    11 CYCLES
 CYCLE  11   ALPHA  428.441737  EPSILON    2.156700  DELTA    9.1125E-05
 TTTTTTTTTTTTTTTTTTTTTTTTTTTTTT CP_SC       TELAPSE   286448.95 TCPU   283235.87

 *******************************************************************************

 POLARIZABILITY (ALPHA), DIELECTRIC (EPSILON) AND FIRST-ORDER ELECTRIC
 SUSCEPTIBILITY (CHI(1)) TENSORS (INDEPENDENT COMPONENTS)

  FR.(eV) COMP.   ALPHA(Re,Im)           EPSILON(Re,Im)                CHI(1)
  1.435   XX     849.0948       0.0000       3.2924       0.0000       2.2924
  1.435   ZZ     428.4417       0.0000       2.1567       0.0000       1.1567

 DIELECTRIC TENSOR

 TENSOR IN PRINCIPAL AXES SYSTEM
 AA  3.292373E+00 BB  3.292373E+00 CC  2.156700E+00

 REFRACTIVE INDICES 
 AA  1.468571E+00 BB  1.814490E+00 CC  1.814490E+00

 OPTICALLY ANISOTROPIC - UNIAXIAL CRYSTAL

 BIREFRINGENCE =  0.3459 (NEGATIVE) - OBLATE OPTICAL ELLIPSOID

 EPSILON=N**2=1+CHI(1)=1+ALPHA*4*PI/V,   4*PI/V=   0.00270 BOHR**(-3)
 ALPHA IN BOHR**3; EPSILON AND CHI(1) ARE DIMENSIONLESS.
 *******************************************************************************

 DYNAMIC FIELD: RUN 10/ 10 - RADIATION WAVELENGTH: 1064.0000 NM

 *******************************************************************************

 ELECTRIC FIELD APPLIED ALONG CARTESIAN DIRECTION X

 *******************************************************************************
 THE NUMBER OF SYMMETRY OPERATORS HAS BEEN REDUCED FROM  4 TO  1

 NEW GRID IN RECIPROCAL SPACE
 *******************************************************************************
 POINTS IN THE IBZ                  14 SHRINKING FACTORS               3  3  3
 *******************************************************************************
 *** K POINTS COORDINATES (OBLIQUE COORDINATES IN UNITS OF SHRINK FAC. )
   1-R(  0  0  0)   2-C(  1  0  0)   3-C(  0  1  2)   4-C(  2  0  1)
   5-C(  0  2  0)   6-C(  1  1  0)   7-C(  1  1  1)   8-C(  1  0  1)
   9-C(  0  1  1)  10-C(  2  1  0)  11-C(  0  0  2)  12-C(  2  1  1)
  13-C(  2  1  2)  14-C(  2  2  1)

 GCALCO - MAX INDICES DIRECT LATTICE VECTOR    14    14    15
 NO.OF VECTORS CREATED 6999 STARS  488 RMAX   198.12280 BOHR
 TTTTTTTTTTTTTTTTTTTTTTTTTTTTTT gordsh1     TELAPSE   286448.97 TCPU   283235.88

 MATRIX SIZE: P(G) 1829900, F(G)  915952, P(G) IRR  918206, F(G) IRR  918206
 MAX G-VECTOR INDEX FOR 1- AND 2-ELECTRON INTEGRALS  59

 TTTTTTTTTTTTTTTTTTTTTTTTTTTTTT INPUT       TELAPSE   286449.32 TCPU   283236.23
 TTTTTTTTTTTTTTTTTTTTTTTTTTTTTT SYMM        TELAPSE   286449.32 TCPU   283236.23

 ***** NEW REFERENCE GEOMETRY *****
 TTTTTTTTTTTTTTTTTTTTTTTTTTTTTT INT_SCREEN  TELAPSE   286449.34 TCPU   283236.25
 INFORMATION **** EXCBUF **** EXCH. BIPO BUFFER: WORDS USED =           0

 DFT PARAMETERS

     ATOM       ELECTRONS   NET CHARGE   R(ANGSTROM)
   1   1  H       1.0000      0.0000     1.11000000
   9   6  C       6.0000      0.0000     0.77000000
  33   7  N       7.0000      0.0000     0.74000000
  53   9  F       9.0000      0.0000     0.72000000
  61  30  ZN     30.0000      0.0000     1.37000000

 SIZE OF GRID=    1893020
 TTTTTTTTTTTTTTTTTTTTTTTTTTTTTT MAKE_GRID2  TELAPSE   286451.60 TCPU   283238.50
 BECKE WEIGHT FUNCTION
 RADSAFE =     2.00
 TOLERANCES - DENSITY:10**- 6; POTENTIAL:10**- 9; GRID WGT:10**-14

 RADIAL INTEGRATION  - INTERVALS (POINTS,UPPER LIMIT):            1( 75,  4.0*R)

 ANGULAR INTEGRATION - INTERVALS (ACCURACY LEVEL [N. POINTS] UPPER LIMIT):
  1(  4[  86]   0.2)  2(  8[ 194]   0.5)  3( 12[ 350]   0.9)  4( 16[ 974]   3.5)
  5( 12[ 350]9999.0)
 TTTTTTTTTTTTTTTTTTTTTTTTTTTTTT INT_CALC    TELAPSE   286451.71 TCPU   283238.61
 CYCLE   0   ALPHA 1235.490470  EPSILON    4.335558  DELTA    1.2355E+03
 TTTTTTTTTTTTTTTTTTTTTTTTTTTTTT MOQGAD      TELAPSE   287912.94 TCPU   284685.82
 TTTTTTTTTTTTTTTTTTTTTTTTTTTTTT CP_MONMON   TELAPSE   287944.25 TCPU   284717.05
 DIIS TEST: 0.39143E+03 AT CPHF  CYCLE   1 - MIX    0 %
 CYCLE   1   ALPHA  -64.647958  EPSILON    0.825464  DELTA   -1.3001E+03
 TTTTTTTTTTTTTTTTTTTTTTTTTTTTTT MOQGAD      TELAPSE   289401.99 TCPU   286158.02
 TTTTTTTTTTTTTTTTTTTTTTTTTTTTTT CP_MONMON   TELAPSE   289433.29 TCPU   286189.24
 DIIS TEST: 0.32845E+04 AT CPHF  CYCLE   2 - DIIS ACTIVE - HISTORY:     2 CYCLES
 CYCLE   2   ALPHA  771.782947  EPSILON    3.083647  DELTA    8.3643E+02
 TTTTTTTTTTTTTTTTTTTTTTTTTTTTTT MOQGAD      TELAPSE   290879.33 TCPU   287618.79
 TTTTTTTTTTTTTTTTTTTTTTTTTTTTTT CP_MONMON   TELAPSE   290910.33 TCPU   287649.67
 DIIS TEST: 0.83971E+02 AT CPHF  CYCLE   3 - DIIS ACTIVE - HISTORY:     3 CYCLES
 CYCLE   3   ALPHA  816.743484  EPSILON    3.205031  DELTA    4.4961E+01
 TTTTTTTTTTTTTTTTTTTTTTTTTTTTTT MOQGAD      TELAPSE   292354.23 TCPU   289076.36
 TTTTTTTTTTTTTTTTTTTTTTTTTTTTTT CP_MONMON   TELAPSE   292392.71 TCPU   289109.65
 DIIS TEST: 0.42008E+01 AT CPHF  CYCLE   4 - DIIS ACTIVE - HISTORY:     4 CYCLES
 CYCLE   4   ALPHA  827.955332  EPSILON    3.235301  DELTA    1.1212E+01
 TTTTTTTTTTTTTTTTTTTTTTTTTTTTTT MOQGAD      TELAPSE   293861.37 TCPU   290536.65
 TTTTTTTTTTTTTTTTTTTTTTTTTTTTTT CP_MONMON   TELAPSE   293892.42 TCPU   290567.62
 DIIS TEST: 0.11825E+01 AT CPHF  CYCLE   5 - DIIS ACTIVE - HISTORY:     5 CYCLES
 CYCLE   5   ALPHA  834.626338  EPSILON    3.253311  DELTA    6.6710E+00
 TTTTTTTTTTTTTTTTTTTTTTTTTTTTTT MOQGAD      TELAPSE   295342.47 TCPU   292009.59
 TTTTTTTTTTTTTTTTTTTTTTTTTTTTTT CP_MONMON   TELAPSE   295373.53 TCPU   292040.56
 DIIS TEST: 0.11285E+00 AT CPHF  CYCLE   6 - DIIS ACTIVE - HISTORY:     6 CYCLES
 CYCLE   6   ALPHA  836.446245  EPSILON    3.258224  DELTA    1.8199E+00
 TTTTTTTTTTTTTTTTTTTTTTTTTTTTTT MOQGAD      TELAPSE   296809.38 TCPU   293469.95
 TTTTTTTTTTTTTTTTTTTTTTTTTTTTTT CP_MONMON   TELAPSE   296840.65 TCPU   293501.15
 DIIS TEST: 0.76034E-02 AT CPHF  CYCLE   7 - DIIS ACTIVE - HISTORY:     7 CYCLES
 CYCLE   7   ALPHA  836.623493  EPSILON    3.258703  DELTA    1.7725E-01
 TTTTTTTTTTTTTTTTTTTTTTTTTTTTTT MOQGAD      TELAPSE   298277.30 TCPU   294931.26
 TTTTTTTTTTTTTTTTTTTTTTTTTTTTTT CP_MONMON   TELAPSE   298308.31 TCPU   294962.17
 DIIS TEST: 0.97587E-03 AT CPHF  CYCLE   8 - DIIS ACTIVE - HISTORY:     8 CYCLES
 CYCLE   8   ALPHA  836.681966  EPSILON    3.258861  DELTA    5.8474E-02
 TTTTTTTTTTTTTTTTTTTTTTTTTTTTTT MOQGAD      TELAPSE   299749.99 TCPU   296390.17
 TTTTTTTTTTTTTTTTTTTTTTTTTTTTTT CP_MONMON   TELAPSE   299781.04 TCPU   296421.09
 DIIS TEST: 0.10536E-03 AT CPHF  CYCLE   9 - DIIS ACTIVE - HISTORY:     9 CYCLES
 CYCLE   9   ALPHA  836.665222  EPSILON    3.258816  DELTA   -1.6744E-02
 TTTTTTTTTTTTTTTTTTTTTTTTTTTTTT MOQGAD      TELAPSE   301216.75 TCPU   297846.32
 TTTTTTTTTTTTTTTTTTTTTTTTTTTTTT CP_MONMON   TELAPSE   301247.91 TCPU   297877.36
 DIIS TEST: 0.11256E-04 AT CPHF  CYCLE  10 - DIIS ACTIVE - HISTORY:    10 CYCLES
 CYCLE  10   ALPHA  836.650914  EPSILON    3.258777  DELTA   -1.4309E-02
 TTTTTTTTTTTTTTTTTTTTTTTTTTTTTT MOQGAD      TELAPSE   302690.62 TCPU   299306.03
 TTTTTTTTTTTTTTTTTTTTTTTTTTTTTT CP_MONMON   TELAPSE   302723.95 TCPU   299339.20
 DIIS TEST: 0.21226E-05 AT CPHF  CYCLE  11 - DIIS ACTIVE - HISTORY:    11 CYCLES
 CYCLE  11   ALPHA  836.645183  EPSILON    3.258762  DELTA   -5.7306E-03
 TTTTTTTTTTTTTTTTTTTTTTTTTTTTTT MOQGAD      TELAPSE   304167.53 TCPU   300771.79
 TTTTTTTTTTTTTTTTTTTTTTTTTTTTTT CP_MONMON   TELAPSE   304198.55 TCPU   300802.72
 DIIS TEST: 0.27004E-06 AT CPHF  CYCLE  12 - DIIS ACTIVE - HISTORY:    12 CYCLES
 CYCLE  12   ALPHA  836.644053  EPSILON    3.258758  DELTA   -1.1300E-03
 TTTTTTTTTTTTTTTTTTTTTTTTTTTTTT MOQGAD      TELAPSE   305634.57 TCPU   302226.91
 TTTTTTTTTTTTTTTTTTTTTTTTTTTTTT CP_MONMON   TELAPSE   305665.61 TCPU   302257.87
 DIIS TEST: 0.24166E-07 AT CPHF  CYCLE  13 - DIIS ACTIVE - HISTORY:    13 CYCLES
 CYCLE  13   ALPHA  836.643282  EPSILON    3.258756  DELTA   -7.7088E-04
 TTTTTTTTTTTTTTTTTTTTTTTTTTTTTT CP_SC       TELAPSE   305718.11 TCPU   302305.88

 *******************************************************************************

 ELECTRIC FIELD APPLIED ALONG CARTESIAN DIRECTION Z

 *******************************************************************************
 THE NUMBER OF SYMMETRY OPERATORS HAS BEEN REDUCED FROM  4 TO  2

 NEW GRID IN RECIPROCAL SPACE
 *******************************************************************************
 POINTS IN THE IBZ                  10 SHRINKING FACTORS               3  3  3
 *******************************************************************************
 *** K POINTS COORDINATES (OBLIQUE COORDINATES IN UNITS OF SHRINK FAC. )
   1-R(  0  0  0)   2-C(  1  0  0)   3-C(  2  0  1)   4-C(  1  1  0)
   5-C(  1  0  1)   6-C(  2  1  0)   7-C(  0  0  2)   8-C(  2  1  1)
   9-C(  2  1  2)  10-C(  2  2  1)

 GCALCO - MAX INDICES DIRECT LATTICE VECTOR    14    14    15
 NO.OF VECTORS CREATED 6999 STARS  488 RMAX   198.12280 BOHR
 TTTTTTTTTTTTTTTTTTTTTTTTTTTTTT gordsh1     TELAPSE   305718.12 TCPU   302305.89

 MATRIX SIZE: P(G) 1829900, F(G)  915952, P(G) IRR  461670, F(G) IRR  461670
 MAX G-VECTOR INDEX FOR 1- AND 2-ELECTRON INTEGRALS  59

 TTTTTTTTTTTTTTTTTTTTTTTTTTTTTT INPUT       TELAPSE   305718.22 TCPU   302305.99
 TTTTTTTTTTTTTTTTTTTTTTTTTTTTTT SYMM        TELAPSE   305718.22 TCPU   302305.99

 ***** NEW REFERENCE GEOMETRY *****
 TTTTTTTTTTTTTTTTTTTTTTTTTTTTTT INT_SCREEN  TELAPSE   305718.23 TCPU   302306.00
 INFORMATION **** EXCBUF **** EXCH. BIPO BUFFER: WORDS USED =           0

 DFT PARAMETERS

     ATOM       ELECTRONS   NET CHARGE   R(ANGSTROM)
   1   1  H       1.0000      0.0000     1.11000000
   9   6  C       6.0000      0.0000     0.77000000
  33   7  N       7.0000      0.0000     0.74000000
  53   9  F       9.0000      0.0000     0.72000000
  61  30  ZN     30.0000      0.0000     1.37000000

 SIZE OF GRID=     946626
 TTTTTTTTTTTTTTTTTTTTTTTTTTTTTT MAKE_GRID2  TELAPSE   305719.63 TCPU   302307.39
 BECKE WEIGHT FUNCTION
 RADSAFE =     2.00
 TOLERANCES - DENSITY:10**- 6; POTENTIAL:10**- 9; GRID WGT:10**-14

 RADIAL INTEGRATION  - INTERVALS (POINTS,UPPER LIMIT):            1( 75,  4.0*R)

 ANGULAR INTEGRATION - INTERVALS (ACCURACY LEVEL [N. POINTS] UPPER LIMIT):
  1(  4[  86]   0.2)  2(  8[ 194]   0.5)  3( 12[ 350]   0.9)  4( 16[ 974]   3.5)
  5( 12[ 350]9999.0)
 TTTTTTTTTTTTTTTTTTTTTTTTTTTTTT INT_CALC    TELAPSE   305719.69 TCPU   302307.46
 CYCLE   0   ALPHA  537.235528  EPSILON    2.450420  DELTA    5.3724E+02
 TTTTTTTTTTTTTTTTTTTTTTTTTTTTTT MOQGAD      TELAPSE   306443.19 TCPU   303028.43
 TTTTTTTTTTTTTTTTTTTTTTTTTTTTTT CP_MONMON   TELAPSE   306460.07 TCPU   303045.27
 DIIS TEST: 0.63224E+02 AT CPHF  CYCLE   1 - MIX    0 %
 CYCLE   1   ALPHA  278.206581  EPSILON    1.751098  DELTA   -2.5903E+02
 TTTTTTTTTTTTTTTTTTTTTTTTTTTTTT MOQGAD      TELAPSE   307197.63 TCPU   303773.87
 TTTTTTTTTTTTTTTTTTTTTTTTTTTTTT CP_MONMON   TELAPSE   307214.37 TCPU   303790.52
 DIIS TEST: 0.39294E+03 AT CPHF  CYCLE   2 - DIIS ACTIVE - HISTORY:     2 CYCLES
 CYCLE   2   ALPHA  400.708401  EPSILON    2.081826  DELTA    1.2250E+02
 TTTTTTTTTTTTTTTTTTTTTTTTTTTTTT MOQGAD      TELAPSE   307954.67 TCPU   304520.03
 TTTTTTTTTTTTTTTTTTTTTTTTTTTTTT CP_MONMON   TELAPSE   307971.54 TCPU   304536.83
 DIIS TEST: 0.16822E+02 AT CPHF  CYCLE   3 - DIIS ACTIVE - HISTORY:     3 CYCLES
 CYCLE   3   ALPHA  423.516933  EPSILON    2.143404  DELTA    2.2809E+01
 TTTTTTTTTTTTTTTTTTTTTTTTTTTTTT MOQGAD      TELAPSE   308705.72 TCPU   305263.29
 TTTTTTTTTTTTTTTTTTTTTTTTTTTTTT CP_MONMON   TELAPSE   308722.44 TCPU   305279.90
 DIIS TEST: 0.35067E+01 AT CPHF  CYCLE   4 - DIIS ACTIVE - HISTORY:     4 CYCLES
 CYCLE   4   ALPHA  424.547626  EPSILON    2.146187  DELTA    1.0307E+00
 TTTTTTTTTTTTTTTTTTTTTTTTTTTTTT MOQGAD      TELAPSE   309459.01 TCPU   306008.85
 TTTTTTTTTTTTTTTTTTTTTTTTTTTTTT CP_MONMON   TELAPSE   309475.87 TCPU   306025.67
 DIIS TEST: 0.86537E-01 AT CPHF  CYCLE   5 - DIIS ACTIVE - HISTORY:     5 CYCLES
 CYCLE   5   ALPHA  424.908503  EPSILON    2.147161  DELTA    3.6088E-01
 TTTTTTTTTTTTTTTTTTTTTTTTTTTTTT MOQGAD      TELAPSE   310209.09 TCPU   306753.62
 TTTTTTTTTTTTTTTTTTTTTTTTTTTTTT CP_MONMON   TELAPSE   310225.84 TCPU   306770.32
 DIIS TEST: 0.11777E-01 AT CPHF  CYCLE   6 - DIIS ACTIVE - HISTORY:     6 CYCLES
 CYCLE   6   ALPHA  425.006078  EPSILON    2.147425  DELTA    9.7576E-02
 TTTTTTTTTTTTTTTTTTTTTTTTTTTTTT MOQGAD      TELAPSE   310962.22 TCPU   307498.10
 TTTTTTTTTTTTTTTTTTTTTTTTTTTTTT CP_MONMON   TELAPSE   310978.95 TCPU   307514.76
 DIIS TEST: 0.10862E-02 AT CPHF  CYCLE   7 - DIIS ACTIVE - HISTORY:     7 CYCLES
 CYCLE   7   ALPHA  425.020317  EPSILON    2.147463  DELTA    1.4238E-02
 TTTTTTTTTTTTTTTTTTTTTTTTTTTTTT MOQGAD      TELAPSE   311717.26 TCPU   308244.79
 TTTTTTTTTTTTTTTTTTTTTTTTTTTTTT CP_MONMON   TELAPSE   311734.07 TCPU   308261.56
 DIIS TEST: 0.14476E-03 AT CPHF  CYCLE   8 - DIIS ACTIVE - HISTORY:     8 CYCLES
 CYCLE   8   ALPHA  425.010580  EPSILON    2.147437  DELTA   -9.7363E-03
 TTTTTTTTTTTTTTTTTTTTTTTTTTTTTT MOQGAD      TELAPSE   312473.71 TCPU   308989.80
 TTTTTTTTTTTTTTTTTTTTTTTTTTTTTT CP_MONMON   TELAPSE   312490.43 TCPU   309006.42
 DIIS TEST: 0.19403E-04 AT CPHF  CYCLE   9 - DIIS ACTIVE - HISTORY:     9 CYCLES
 CYCLE   9   ALPHA  425.005249  EPSILON    2.147422  DELTA   -5.3320E-03
 TTTTTTTTTTTTTTTTTTTTTTTTTTTTTT MOQGAD      TELAPSE   313227.64 TCPU   309739.71
 TTTTTTTTTTTTTTTTTTTTTTTTTTTTTT CP_MONMON   TELAPSE   313244.51 TCPU   309756.54
 DIIS TEST: 0.25300E-05 AT CPHF  CYCLE  10 - DIIS ACTIVE - HISTORY:    10 CYCLES
 CYCLE  10   ALPHA  425.003639  EPSILON    2.147418  DELTA   -1.6094E-03
 TTTTTTTTTTTTTTTTTTTTTTTTTTTTTT MOQGAD      TELAPSE   313984.77 TCPU   310488.80
 TTTTTTTTTTTTTTTTTTTTTTTTTTTTTT CP_MONMON   TELAPSE   314001.50 TCPU   310505.48
 DIIS TEST: 0.67276E-06 AT CPHF  CYCLE  11 - DIIS ACTIVE - HISTORY:    11 CYCLES
 CYCLE  11   ALPHA  425.003722  EPSILON    2.147418  DELTA    8.3232E-05
 TTTTTTTTTTTTTTTTTTTTTTTTTTTTTT CP_SC       TELAPSE   314045.58 TCPU   310542.70

 *******************************************************************************

 POLARIZABILITY (ALPHA), DIELECTRIC (EPSILON) AND FIRST-ORDER ELECTRIC
 SUSCEPTIBILITY (CHI(1)) TENSORS (INDEPENDENT COMPONENTS)

  FR.(eV) COMP.   ALPHA(Re,Im)           EPSILON(Re,Im)                CHI(1)
  1.165   XX     836.6433       0.0000       3.2588       0.0000       2.2588
  1.165   ZZ     425.0037       0.0000       2.1474       0.0000       1.1474

 DIELECTRIC TENSOR

 TENSOR IN PRINCIPAL AXES SYSTEM
 AA  3.258756E+00 BB  3.258756E+00 CC  2.147418E+00

 REFRACTIVE INDICES 
 AA  1.465407E+00 BB  1.805203E+00 CC  1.805203E+00

 OPTICALLY ANISOTROPIC - UNIAXIAL CRYSTAL

 BIREFRINGENCE =  0.3398 (NEGATIVE) - OBLATE OPTICAL ELLIPSOID

 EPSILON=N**2=1+CHI(1)=1+ALPHA*4*PI/V,   4*PI/V=   0.00270 BOHR**(-3)
 ALPHA IN BOHR**3; EPSILON AND CHI(1) ARE DIMENSIONLESS.
 *******************************************************************************


 GCALCO - MAX INDICES DIRECT LATTICE VECTOR    14    14    15
 NO.OF VECTORS CREATED 6999 STARS  488 RMAX   198.12280 BOHR

 CAPPA:IS1  3;IS2  3;IS3  3; K PTS MONK NET   6; SYMMOPS:K SPACE   8;G SPACE   4

 TTTTTTTTTTTTTTTTTTTTTTTTTTTTTT END         TELAPSE   314045.81 TCPU   310542.71
 EEEEEEEEEE TERMINATION  DATE 04 12 2023 TIME 21:20:53.8
NODE    0 CPU TIME =    310542.707
NODE    1 CPU TIME =    311791.115
NODE    2 CPU TIME =    311566.754
NODE    3 CPU TIME =    311407.840
NODE    4 CPU TIME =    311647.487
NODE    5 CPU TIME =    311809.794
NODE    6 CPU TIME =    311552.447
NODE    7 CPU TIME =    311471.582
NODE    8 CPU TIME =    311482.171
NODE    9 CPU TIME =    312122.619
NODE   10 CPU TIME =    310626.453
NODE   11 CPU TIME =    310621.127
NODE   12 CPU TIME =    310766.798
NODE   13 CPU TIME =    310780.469
NODE   14 CPU TIME =    310136.886
NODE   15 CPU TIME =    310445.074
NODE   16 CPU TIME =    310003.841
NODE   17 CPU TIME =    311169.284
NODE   18 CPU TIME =    310571.979
NODE   19 CPU TIME =    310489.131
NODE   20 CPU TIME =    310093.373
NODE   21 CPU TIME =    310840.106
NODE   22 CPU TIME =    310088.548
NODE   23 CPU TIME =    308777.159
    TOTAL CPU TIME =   7460804.742
trying normal rsh (/usr/bin/rsh)
exec: No such file or directory
trying normal rsh (/usr/bin/rsh)
exec: No such file or directory
trying normal rsh (/usr/bin/rsh)
exec: No such file or directory
trying normal rsh (/usr/bin/rsh)
exec: No such file or directory
