Loading crystal17/1.0.2/intel/19.0
  Loading requirement: intel/19.0 ompi/4.0.1/intel/19.0
 PROCESS            1  OF           24  WORKING
 PROCESS            3  OF           24  WORKING
 PROCESS            4  OF           24  WORKING
 PROCESS            5  OF           24  WORKING
 PROCESS            7  OF           24  WORKING
 PROCESS            8  OF           24  WORKING
 PROCESS           11  OF           24  WORKING
 PROCESS           14  OF           24  WORKING
 PROCESS           15  OF           24  WORKING
 PROCESS           16  OF           24  WORKING
 PROCESS           17  OF           24  WORKING
 PROCESS           18  OF           24  WORKING
 PROCESS           19  OF           24  WORKING
 PROCESS           20  OF           24  WORKING
 PROCESS           22  OF           24  WORKING
 PROCESS           23  OF           24  WORKING
 PROCESS            0  OF           24  WORKING
 PROCESS            2  OF           24  WORKING
 PROCESS            6  OF           24  WORKING
 PROCESS            9  OF           24  WORKING
 PROCESS           10  OF           24  WORKING
 PROCESS           12  OF           24  WORKING
 PROCESS           13  OF           24  WORKING
 PROCESS           21  OF           24  WORKING

         
 *******************************************************************************
 *                                                                             *
 *                               CRYSTAL17                                     *
 *                      public : 1.0.2 - March 1st, 2018                       *
 *                       HTTP://WWW.CRYSTAL.UNITO.IT                           *
 *                                                                             *
 *                              MAIN AUTHORS                                   *
 *                                                                             *
 *  R. DOVESI(1,11), V.R. SAUNDERS(2), C. ROETTI(1,11), R. ORLANDO(1,11),      *
 *  C.M. ZICOVICH-WILSON(1,3), F. PASCALE(4), B. CIVALLERI(1,11),              *
 *  K. DOLL(5), N.M. HARRISON(2,6), I.J. BUSH(7), Ph. D'ARCO(8),               *
 *  M. LLUNELL(9), M. CAUSA'(10), Y. NOEL(8), L. MASCHIO(1,11), A. ERBA(1,11)  *
 *  M. RE'RAT(14), S. CASASSA(1,11)                                            *
 *                                                                             *
 *        CONTRIBUTIONS TO THE CODE HAVE ALSO BEEN GIVEN BY                    *
 *                                                                             *
 *  M. FERRABONE(1,11), M. DE LA PIERRE(1,11), M. FERRERO(1,11),               *
 *  J. BAIMA(1,11), E. ALBANESE(1,11), M.F. PEINTINGER(12), R. BAST(13),       *
 *  B. KIRTMAN(15), V. LACIVITA(1,11), R. DEMICHELIS(1,16)                     *
 *  G. BRANDEBURG(17), S. SALUSTRO(1,11), G. SANSONE(1,11)                     *
 *  M.T. RUGGIERO(18)                                                          *
 *                                                                             *
 * (1) THEORETICAL CHEMISTRY GROUP - UNIVERSITA' DI TORINO - TORINO (ITALY)    *
 * (2) COMPUTATIONAL SCIENCE & ENGINEERING DEPARTMENT - STFC DARESBURY (UK)    *
 * (3) UNIVERSIDAD AUTONOMA DEL ESTADO DE MORELOS - CUERNAVACA (MEXICO)        *
 * (4) UNIVERSITE' DE LORRAINE - NANCY (FRANCE)                                *
 * (5) UNIVERSITAET STUTTGART- STUTTGART (GERMANY)                             *
 * (6) IMPERIAL COLLEGE - LONDON (UK)                                          *
 * (7) OXFORD E-RESEARCH CENTRE - OXFORD (UK)                                  *
 * (8) UPMC - SORBONNE UNIVERSITES - PARIS (FRANCE)                            *
 * (9) UNIVERSIDAD DE BARCELONA - BARCELONA (SPAIN)                            *
 *(10) UNIVERSITA' DI NAPOLI "FEDERICO II" - NAPOLI (ITALY)                    *
 *(11) NIS - NANOSTRUCTURED INTERFACES AND SURFACES - TORINO (ITALY)           *
 *(12) MPI FUER CHEMISCHE ENERGIEKONVERSION - MUELHEIM AN DER RUHR (GERMANY)   *
 *(13) UNIVERSITY OF TROMSO - TROMSO (NORWAY)                                  *
 *(14) UNIVERSITE' DE PAU ET DES PAYS DE L'ADOUR - PAU (FRANCE)                *
 *(15) UNIVERSITY OF CALIFORNIA SANTA BARBARA - SANTA BARBARA (USA)            *
 *(16) CURTIN UNIVERSITY - PERTH (AUSTRALIA)                                   *
 *(17) UNIVERSITY COLLEGE LONDON - LONDON (UK)                                 *
 *(18) CAMBRIDGE UNIVERSITY - CAMBRIDGE (UK)                                   *
 *                                                                             *
 *******************************************************************************
 EEEEEEEEEE STARTING  DATE 01 12 2023 TIME 10:19:49.8
 Z:\home\sanoj\Downloads\tmp_p\newconn.mol                                       

 CRYSTAL CALCULATION
 (INPUT ACCORDING TO THE INTERNATIONAL TABLES FOR X-RAY CRYSTALLOGRAPHY)
 CRYSTAL FAMILY                       :  TETRAGONAL  
 CRYSTAL CLASS  (GROTH - 1921)        :  TETRAGONAL DISPHENOIDAL              

 SPACE GROUP (NONCENTROSYMMETRIC)     :  I -4            

 LATTICE PARAMETERS  (ANGSTROMS AND DEGREES) - CONVENTIONAL CELL
        A           B           C        ALPHA        BETA       GAMMA
    10.53371    10.53371    12.81257    90.00000    90.00000    90.00000


 NUMBER OF IRREDUCIBLE ATOMS IN THE CONVENTIONAL CELL:   17

 INPUT COORDINATES

 ATOM AT. N.              COORDINATES
   1   1     3.679300000000E-01  4.569000000000E-01  3.712100000000E-01
   2   6     2.719300000000E-01  8.119800000000E-01  3.872400000000E-01
   3   6     2.526400000000E-01 -5.138000000000E-02  3.778200000000E-01
   4   6     1.796000000000E-01  7.203700000000E-01  3.649200000000E-01
   5   6     3.380200000000E-01  5.561100000000E-01  3.765300000000E-01
   6   6     3.929200000000E-01  7.622800000000E-01  4.089000000000E-01
   7   6     7.874700000000E-01  4.081700000000E-01  3.596000000000E-01
   8   7     3.358700000000E-01  2.549000000000E-02  3.277000000000E-01
   9   7     2.886900000000E-01  1.468200000000E-01  3.342100000000E-01
  10   7     1.553800000000E-01  1.993000000000E-02  4.137100000000E-01
  11   7     1.805100000000E-01  1.438600000000E-01  3.855200000000E-01
  12   7     4.273700000000E-01  6.425600000000E-01  4.024800000000E-01
  13   9     6.018000000000E-02  7.565400000000E-01  3.455800000000E-01
  14   9     4.830600000000E-01  8.454700000000E-01  4.397200000000E-01
  15   9     1.243200000000E-01  5.042600000000E-01  3.380500000000E-01
  16  30     0.000000000000E+00  5.000000000000E-01  7.500000000000E-01
  17  30     0.000000000000E+00  0.000000000000E+00  5.000000000000E-01

 *******************************************************************************

 << INFORMATION >>: FROM NOW ON, ALL COORDINATES REFER TO THE PRIMITIVE CELL

 *******************************************************************************

 LATTICE PARAMETERS  (ANGSTROMS AND DEGREES) - PRIMITIVE CELL
       A          B          C        ALPHA      BETA     GAMMA        VOLUME
    9.82446    9.82446    9.82446   115.16346 115.16346  98.60350    710.835195

 COORDINATES OF THE EQUIVALENT ATOMS (FRACTIONAL UNITS)

 N. ATOM EQUIV AT. N.          X                  Y                  Z

   1   1   1    1 H    -1.71890000000E-01 -2.60860000000E-01 -1.75170000000E-01
   2   1   2    1 H    -8.56900000000E-02  3.28000000000E-03  1.75170000000E-01
   3   1   3    1 H     2.60860000000E-01  8.56900000000E-02  8.89700000000E-02
   4   1   4    1 H    -3.28000000000E-03  1.71890000000E-01 -8.89700000000E-02

   5   2   1    6 C     1.99220000000E-01 -3.40830000000E-01  8.39100000000E-02
   6   2   2    6 C    -4.24740000000E-01  1.15310000000E-01 -8.39100000000E-02
   7   2   3    6 C     3.40830000000E-01  4.24740000000E-01 -4.59950000000E-01
   8   2   4    6 C    -1.15310000000E-01 -1.99220000000E-01  4.59950000000E-01

   9   3   1    6 C     3.26440000000E-01 -3.69540000000E-01  2.01260000000E-01
  10   3   2    6 C     4.29200000000E-01  1.25180000000E-01 -2.01260000000E-01
  11   3   3    6 C     3.69540000000E-01 -4.29200000000E-01 -3.04020000000E-01
  12   3   4    6 C    -1.25180000000E-01 -3.26440000000E-01  3.04020000000E-01

  13   4   1    6 C     8.52900000000E-02 -4.55480000000E-01 -1.00030000000E-01
  14   4   2    6 C    -3.55450000000E-01  1.85320000000E-01  1.00030000000E-01
  15   4   3    6 C     4.55480000000E-01  3.55450000000E-01 -4.59230000000E-01
  16   4   4    6 C    -1.85320000000E-01 -8.52900000000E-02  4.59230000000E-01

  17   5   1    6 C    -6.73600000000E-02 -2.85450000000E-01 -1.05870000000E-01
  18   5   2    6 C    -1.79580000000E-01  3.85100000000E-02  1.05870000000E-01
  19   5   3    6 C     2.85450000000E-01  1.79580000000E-01  2.18090000000E-01
  20   5   4    6 C    -3.85100000000E-02  6.73600000000E-02 -2.18090000000E-01

  21   6   1    6 C     1.71180000000E-01 -1.98180000000E-01  1.55200000000E-01
  22   6   2    6 C    -3.53380000000E-01  1.59800000000E-02 -1.55200000000E-01
  23   6   3    6 C     1.98180000000E-01  3.53380000000E-01  3.69360000000E-01
  24   6   4    6 C    -1.59800000000E-02 -1.71180000000E-01 -3.69360000000E-01

  25   7   1    6 C    -2.32230000000E-01  1.47070000000E-01  1.95640000000E-01
  26   7   2    6 C    -4.85700000000E-02 -4.27870000000E-01 -1.95640000000E-01
  27   7   3    6 C    -1.47070000000E-01  4.85700000000E-02 -3.79300000000E-01
  28   7   4    6 C     4.27870000000E-01  2.32230000000E-01  3.79300000000E-01

  29   8   1    7 N     3.53190000000E-01 -3.36430000000E-01  3.61360000000E-01
  30   8   2    7 N     3.02210000000E-01 -8.17000000000E-03 -3.61360000000E-01
  31   8   3    7 N     3.36430000000E-01 -3.02210000000E-01 -3.10380000000E-01
  32   8   4    7 N     8.17000000000E-03 -3.53190000000E-01  3.10380000000E-01

  33   9   1    7 N     4.81030000000E-01 -3.77100000000E-01  4.35510000000E-01
  34   9   2    7 N     1.87390000000E-01  4.55200000000E-02 -4.35510000000E-01
  35   9   3    7 N     3.77100000000E-01 -1.87390000000E-01 -1.41870000000E-01
  36   9   4    7 N    -4.55200000000E-02 -4.81030000000E-01  1.41870000000E-01

  37  10   1    7 N     4.33640000000E-01 -4.30910000000E-01  1.75310000000E-01
  38  10   2    7 N     3.93780000000E-01  2.58330000000E-01 -1.75310000000E-01
  39  10   3    7 N     4.30910000000E-01 -3.93780000000E-01 -1.35450000000E-01
  40  10   4    7 N    -2.58330000000E-01 -4.33640000000E-01  1.35450000000E-01

  41  11   1    7 N    -4.70620000000E-01 -4.33970000000E-01  3.24370000000E-01
  42  11   2    7 N     2.41660000000E-01  2.05010000000E-01 -3.24370000000E-01
  43  11   3    7 N     4.33970000000E-01 -2.41660000000E-01 -3.66500000000E-02
  44  11   4    7 N    -2.05010000000E-01  4.70620000000E-01  3.66500000000E-02

  45  12   1    7 N     4.50400000000E-02 -1.70150000000E-01  6.99300000000E-02
  46  12   2    7 N    -2.40080000000E-01 -2.48900000000E-02 -6.99300000000E-02
  47  12   3    7 N     1.70150000000E-01  2.40080000000E-01  2.15190000000E-01
  48  12   4    7 N     2.48900000000E-02 -4.50400000000E-02 -2.15190000000E-01

  49  13   1    9 F     1.02120000000E-01  4.05760000000E-01 -1.83280000000E-01
  50  13   2    9 F    -4.10960000000E-01  2.85400000000E-01  1.83280000000E-01
  51  13   3    9 F    -4.05760000000E-01  4.10960000000E-01 -3.03640000000E-01
  52  13   4    9 F    -2.85400000000E-01 -1.02120000000E-01  3.03640000000E-01

  53  14   1    9 F     2.85190000000E-01 -7.72200000000E-02  3.28530000000E-01
  54  14   2    9 F    -4.05750000000E-01 -4.33400000000E-02 -3.28530000000E-01
  55  14   3    9 F     7.72200000000E-02  4.05750000000E-01  3.62410000000E-01
  56  14   4    9 F     4.33400000000E-02 -2.85190000000E-01 -3.62410000000E-01

  57  15   1    9 F    -1.57690000000E-01  4.62370000000E-01 -3.71420000000E-01
  58  15   2    9 F    -1.66210000000E-01  2.13730000000E-01  3.71420000000E-01
  59  15   3    9 F    -4.62370000000E-01  1.66210000000E-01  3.79940000000E-01
  60  15   4    9 F    -2.13730000000E-01  1.57690000000E-01 -3.79940000000E-01

  61  16   1   30 ZN    2.50000000000E-01 -2.50000000000E-01 -5.00000000000E-01

  62  17   1   30 ZN   -5.00000000000E-01 -5.00000000000E-01  0.00000000000E+00

 NUMBER OF SYMMETRY OPERATORS         :    4
 *******************************************************************************
 * GEOMETRY EDITING - INPUT COORDINATES ARE GIVEN IN ANGSTROM         
 *******************************************************************************

 GEOMETRY NOW FULLY CONSISTENT WITH THE GROUP

 GCALCO - MAX INDICES DIRECT LATTICE VECTOR    14    14    16
 NO.OF VECTORS CREATED 6999 STARS  484 RMAX   200.78925 BOHR

 GEOMETRY FOR WAVE FUNCTION - DIMENSIONALITY OF THE SYSTEM    3
 (NON PERIODIC DIRECTION: LATTICE PARAMETER FORMALLY SET TO 500)
 *******************************************************************************
 LATTICE PARAMETERS (ANGSTROMS AND DEGREES) - BOHR = 0.5291772083 ANGSTROM
 PRIMITIVE CELL - CENTRING CODE 6/0 VOLUME=   710.835195 - DENSITY  2.168 g/cm^3
         A              B              C           ALPHA      BETA       GAMMA 
     9.82445998     9.82445998     9.82445998   115.163459 115.163459  98.603499
 *******************************************************************************
 ATOMS IN THE ASYMMETRIC UNIT   17 - ATOMS IN THE UNIT CELL:   62
     ATOM                 X/A                 Y/B                 Z/C    
 *******************************************************************************
      1 T   1 H    -1.718900000000E-01 -2.608600000000E-01 -1.751700000000E-01
      2 F   1 H    -8.569000000000E-02  3.280000000000E-03  1.751700000000E-01
      3 F   1 H     2.608600000000E-01  8.569000000000E-02  8.897000000000E-02
      4 F   1 H    -3.280000000000E-03  1.718900000000E-01 -8.897000000000E-02
      5 T   6 C     1.992200000000E-01 -3.408300000000E-01  8.391000000000E-02
      6 F   6 C    -4.247400000000E-01  1.153100000000E-01 -8.391000000000E-02
      7 F   6 C     3.408300000000E-01  4.247400000000E-01 -4.599500000000E-01
      8 F   6 C    -1.153100000000E-01 -1.992200000000E-01  4.599500000000E-01
      9 T   6 C     3.264400000000E-01 -3.695400000000E-01  2.012600000000E-01
     10 F   6 C     4.292000000000E-01  1.251800000000E-01 -2.012600000000E-01
     11 F   6 C     3.695400000000E-01 -4.292000000000E-01 -3.040200000000E-01
     12 F   6 C    -1.251800000000E-01 -3.264400000000E-01  3.040200000000E-01
     13 T   6 C     8.529000000000E-02 -4.554800000000E-01 -1.000300000000E-01
     14 F   6 C    -3.554500000000E-01  1.853200000000E-01  1.000300000000E-01
     15 F   6 C     4.554800000000E-01  3.554500000000E-01 -4.592300000000E-01
     16 F   6 C    -1.853200000000E-01 -8.529000000000E-02  4.592300000000E-01
     17 T   6 C    -6.736000000000E-02 -2.854500000000E-01 -1.058700000000E-01
     18 F   6 C    -1.795800000000E-01  3.851000000000E-02  1.058700000000E-01
     19 F   6 C     2.854500000000E-01  1.795800000000E-01  2.180900000000E-01
     20 F   6 C    -3.851000000000E-02  6.736000000000E-02 -2.180900000000E-01
     21 T   6 C     1.711800000000E-01 -1.981800000000E-01  1.552000000000E-01
     22 F   6 C    -3.533800000000E-01  1.598000000000E-02 -1.552000000000E-01
     23 F   6 C     1.981800000000E-01  3.533800000000E-01  3.693600000000E-01
     24 F   6 C    -1.598000000000E-02 -1.711800000000E-01 -3.693600000000E-01
     25 T   6 C    -2.322300000000E-01  1.470700000000E-01  1.956400000000E-01
     26 F   6 C    -4.857000000000E-02 -4.278700000000E-01 -1.956400000000E-01
     27 F   6 C    -1.470700000000E-01  4.857000000000E-02 -3.793000000000E-01
     28 F   6 C     4.278700000000E-01  2.322300000000E-01  3.793000000000E-01
     29 T   7 N     3.531900000000E-01 -3.364300000000E-01  3.613600000000E-01
     30 F   7 N     3.022100000000E-01 -8.170000000000E-03 -3.613600000000E-01
     31 F   7 N     3.364300000000E-01 -3.022100000000E-01 -3.103800000000E-01
     32 F   7 N     8.170000000000E-03 -3.531900000000E-01  3.103800000000E-01
     33 T   7 N     4.810300000000E-01 -3.771000000000E-01  4.355100000000E-01
     34 F   7 N     1.873900000000E-01  4.552000000000E-02 -4.355100000000E-01
     35 F   7 N     3.771000000000E-01 -1.873900000000E-01 -1.418700000000E-01
     36 F   7 N    -4.552000000000E-02 -4.810300000000E-01  1.418700000000E-01
     37 T   7 N     4.336400000000E-01 -4.309100000000E-01  1.753100000000E-01
     38 F   7 N     3.937800000000E-01  2.583300000000E-01 -1.753100000000E-01
     39 F   7 N     4.309100000000E-01 -3.937800000000E-01 -1.354500000000E-01
     40 F   7 N    -2.583300000000E-01 -4.336400000000E-01  1.354500000000E-01
     41 T   7 N    -4.706200000000E-01 -4.339700000000E-01  3.243700000000E-01
     42 F   7 N     2.416600000000E-01  2.050100000000E-01 -3.243700000000E-01
     43 F   7 N     4.339700000000E-01 -2.416600000000E-01 -3.665000000000E-02
     44 F   7 N    -2.050100000000E-01  4.706200000000E-01  3.665000000000E-02
     45 T   7 N     4.504000000000E-02 -1.701500000000E-01  6.993000000000E-02
     46 F   7 N    -2.400800000000E-01 -2.489000000000E-02 -6.993000000000E-02
     47 F   7 N     1.701500000000E-01  2.400800000000E-01  2.151900000000E-01
     48 F   7 N     2.489000000000E-02 -4.504000000000E-02 -2.151900000000E-01
     49 T   9 F     1.021200000000E-01  4.057600000000E-01 -1.832800000000E-01
     50 F   9 F    -4.109600000000E-01  2.854000000000E-01  1.832800000000E-01
     51 F   9 F    -4.057600000000E-01  4.109600000000E-01 -3.036400000000E-01
     52 F   9 F    -2.854000000000E-01 -1.021200000000E-01  3.036400000000E-01
     53 T   9 F     2.851900000000E-01 -7.722000000000E-02  3.285300000000E-01
     54 F   9 F    -4.057500000000E-01 -4.334000000000E-02 -3.285300000000E-01
     55 F   9 F     7.722000000000E-02  4.057500000000E-01  3.624100000000E-01
     56 F   9 F     4.334000000000E-02 -2.851900000000E-01 -3.624100000000E-01
     57 T   9 F    -1.576900000000E-01  4.623700000000E-01 -3.714200000000E-01
     58 F   9 F    -1.662100000000E-01  2.137300000000E-01  3.714200000000E-01
     59 F   9 F    -4.623700000000E-01  1.662100000000E-01  3.799400000000E-01
     60 F   9 F    -2.137300000000E-01  1.576900000000E-01 -3.799400000000E-01
     61 T  30 ZN    2.500000000000E-01 -2.500000000000E-01  5.000000000000E-01
     62 T  30 ZN    5.000000000000E-01  5.000000000000E-01  0.000000000000E+00

 TRANSFORMATION MATRIX PRIMITIVE-CRYSTALLOGRAPHIC CELL
  0.0000  1.0000  1.0000  1.0000  0.0000  1.0000  1.0000  1.0000  0.0000

 *******************************************************************************
 CRYSTALLOGRAPHIC CELL (VOLUME=       1421.67039005)
         A              B              C           ALPHA      BETA       GAMMA 
    10.53370756    10.53370756    12.81257450    90.000000  90.000000  90.000000

 COORDINATES IN THE CRYSTALLOGRAPHIC CELL
     ATOM                 X/A                 Y/B                 Z/C    
 *******************************************************************************
      1 T   1 H    -1.320700000000E-01 -4.310000000000E-02 -1.287900000000E-01
      2 F   1 H     1.320700000000E-01  4.310000000000E-02 -1.287900000000E-01
      3 F   1 H    -4.310000000000E-02  1.320700000000E-01  1.287900000000E-01
      4 F   1 H     4.310000000000E-02 -1.320700000000E-01  1.287900000000E-01
      5 T   6 C    -2.280700000000E-01  3.119800000000E-01 -1.127600000000E-01
      6 F   6 C     2.280700000000E-01 -3.119800000000E-01 -1.127600000000E-01
      7 F   6 C     3.119800000000E-01  2.280700000000E-01  1.127600000000E-01
      8 F   6 C    -3.119800000000E-01 -2.280700000000E-01  1.127600000000E-01
      9 T   6 C     2.526400000000E-01 -5.138000000000E-02  3.778200000000E-01
     10 F   6 C    -2.526400000000E-01  5.138000000000E-02  3.778200000000E-01
     11 F   6 C    -5.138000000000E-02 -2.526400000000E-01 -3.778200000000E-01
     12 F   6 C     5.138000000000E-02  2.526400000000E-01 -3.778200000000E-01
     13 T   6 C    -3.204000000000E-01  2.203700000000E-01 -1.350800000000E-01
     14 F   6 C     3.204000000000E-01 -2.203700000000E-01 -1.350800000000E-01
     15 F   6 C     2.203700000000E-01  3.204000000000E-01  1.350800000000E-01
     16 F   6 C    -2.203700000000E-01 -3.204000000000E-01  1.350800000000E-01
     17 T   6 C    -1.619800000000E-01  5.611000000000E-02 -1.234700000000E-01
     18 F   6 C     1.619800000000E-01 -5.611000000000E-02 -1.234700000000E-01
     19 F   6 C     5.611000000000E-02  1.619800000000E-01  1.234700000000E-01
     20 F   6 C    -5.611000000000E-02 -1.619800000000E-01  1.234700000000E-01
     21 T   6 C    -1.070800000000E-01  2.622800000000E-01 -9.110000000000E-02
     22 F   6 C     1.070800000000E-01 -2.622800000000E-01 -9.110000000000E-02
     23 F   6 C     2.622800000000E-01  1.070800000000E-01  9.110000000000E-02
     24 F   6 C    -2.622800000000E-01 -1.070800000000E-01  9.110000000000E-02
     25 T   6 C     2.874700000000E-01 -9.183000000000E-02 -1.404000000000E-01
     26 F   6 C    -2.874700000000E-01  9.183000000000E-02 -1.404000000000E-01
     27 F   6 C    -9.183000000000E-02 -2.874700000000E-01  1.404000000000E-01
     28 F   6 C     9.183000000000E-02  2.874700000000E-01  1.404000000000E-01
     29 T   7 N     3.358700000000E-01  2.549000000000E-02  3.277000000000E-01
     30 F   7 N    -3.358700000000E-01 -2.549000000000E-02  3.277000000000E-01
     31 F   7 N     2.549000000000E-02 -3.358700000000E-01 -3.277000000000E-01
     32 F   7 N    -2.549000000000E-02  3.358700000000E-01 -3.277000000000E-01
     33 T   7 N    -2.113100000000E-01 -3.531800000000E-01 -1.657900000000E-01
     34 F   7 N     2.113100000000E-01  3.531800000000E-01 -1.657900000000E-01
     35 F   7 N    -3.531800000000E-01  2.113100000000E-01  1.657900000000E-01
     36 F   7 N     3.531800000000E-01 -2.113100000000E-01  1.657900000000E-01
     37 T   7 N     1.553800000000E-01  1.993000000000E-02  4.137100000000E-01
     38 F   7 N    -1.553800000000E-01 -1.993000000000E-02  4.137100000000E-01
     39 F   7 N     1.993000000000E-02 -1.553800000000E-01 -4.137100000000E-01
     40 F   7 N    -1.993000000000E-02  1.553800000000E-01 -4.137100000000E-01
     41 T   7 N    -3.194900000000E-01 -3.561400000000E-01 -1.144800000000E-01
     42 F   7 N     3.194900000000E-01  3.561400000000E-01 -1.144800000000E-01
     43 F   7 N    -3.561400000000E-01  3.194900000000E-01  1.144800000000E-01
     44 F   7 N     3.561400000000E-01 -3.194900000000E-01  1.144800000000E-01
     45 T   7 N    -7.263000000000E-02  1.425600000000E-01 -9.752000000000E-02
     46 F   7 N     7.263000000000E-02 -1.425600000000E-01 -9.752000000000E-02
     47 F   7 N     1.425600000000E-01  7.263000000000E-02  9.752000000000E-02
     48 F   7 N    -1.425600000000E-01 -7.263000000000E-02  9.752000000000E-02
     49 T   9 F     6.018000000000E-02 -2.434600000000E-01  3.455800000000E-01
     50 F   9 F    -6.018000000000E-02  2.434600000000E-01  3.455800000000E-01
     51 F   9 F    -2.434600000000E-01 -6.018000000000E-02 -3.455800000000E-01
     52 F   9 F     2.434600000000E-01  6.018000000000E-02 -3.455800000000E-01
     53 T   9 F    -1.694000000000E-02  3.454700000000E-01 -6.028000000000E-02
     54 F   9 F     1.694000000000E-02 -3.454700000000E-01 -6.028000000000E-02
     55 F   9 F     3.454700000000E-01  1.694000000000E-02  6.028000000000E-02
     56 F   9 F    -3.454700000000E-01 -1.694000000000E-02  6.028000000000E-02
     57 T   9 F    -3.756800000000E-01  4.260000000000E-03 -1.619500000000E-01
     58 F   9 F     3.756800000000E-01 -4.260000000000E-03 -1.619500000000E-01
     59 F   9 F     4.260000000000E-03  3.756800000000E-01  1.619500000000E-01
     60 F   9 F    -4.260000000000E-03 -3.756800000000E-01  1.619500000000E-01
     61 T  30 ZN   -5.000000000000E-01  0.000000000000E+00  2.500000000000E-01
     62 T  30 ZN    0.000000000000E+00  0.000000000000E+00 -5.000000000000E-01

 T = ATOM BELONGING TO THE ASYMMETRIC UNIT

 ****    4 SYMMOPS - TRANSLATORS IN FRACTIONAL UNITS
 **** MATRICES AND TRANSLATORS IN THE CRYSTALLOGRAPHIC REFERENCE FRAME
   V INV                    ROTATION MATRICES                   TRANSLATORS
   1   1  1.00  0.00  0.00  0.00  1.00  0.00  0.00  0.00  1.00  0.00  0.00  0.00
   2   2  0.00  1.00 -1.00  1.00  0.00 -1.00  0.00 -0.00 -1.00  0.00  0.00  0.00
   3   4 -0.00 -1.00  0.00 -0.00 -1.00  1.00  1.00 -1.00 -0.00  0.00  0.00  0.00
   4   3 -1.00 -0.00  1.00 -1.00 -0.00  0.00 -1.00  1.00  0.00  0.00  0.00  0.00

 DIRECT LATTICE VECTORS CARTESIAN COMPONENTS (ANGSTROM)
          X                    Y                    Z
  -0.526685378030E+01   0.526685378030E+01   0.640628725235E+01
   0.526685378030E+01  -0.526685378030E+01   0.640628725235E+01
   0.526685378030E+01   0.526685378030E+01  -0.640628725235E+01


 CARTESIAN COORDINATES - PRIMITIVE CELL
 *******************************************************************************
 *      ATOM          X(ANGSTROM)         Y(ANGSTROM)         Z(ANGSTROM)
 *******************************************************************************
    1     1 H    -1.391186757528E+00 -4.540027958619E-01 -1.650131470460E+00
    2     1 H     1.391186757528E+00  4.540027958619E-01 -1.650131470460E+00
    3     1 H    -4.540027958619E-01  1.391186757528E+00  1.650131470460E+00
    4     1 H     4.540027958619E-01 -1.391186757528E+00  1.650131470460E+00
    5     6 C    -2.402422683346E+00  3.286306084756E+00 -1.444745901150E+00
    6     6 C     2.402422683346E+00 -3.286306084756E+00 -1.444745901150E+00
    7     6 C     3.286306084756E+00  2.402422683346E+00  1.444745901150E+00
    8     6 C    -3.286306084756E+00 -2.402422683346E+00  1.444745901150E+00
    9     6 C     2.661235878110E+00 -5.412218944636E-01  4.840846899366E+00
   10     6 C    -2.661235878110E+00  5.412218944636E-01  4.840846899366E+00
   11     6 C    -5.412218944636E-01 -2.661235878110E+00 -4.840846899366E+00
   12     6 C     5.412218944636E-01  2.661235878110E+00 -4.840846899366E+00
   13     6 C    -3.374999902416E+00  2.321313135129E+00 -1.730722564095E+00
   14     6 C     3.374999902416E+00 -2.321313135129E+00 -1.730722564095E+00
   15     6 C     2.321313135129E+00  3.374999902416E+00  1.730722564095E+00
   16     6 C    -2.321313135129E+00 -3.374999902416E+00  1.730722564095E+00
   17     6 C    -1.706249950666E+00  5.910463312253E-01 -1.581968574095E+00
   18     6 C     1.706249950666E+00 -5.910463312253E-01 -1.581968574095E+00
   19     6 C     5.910463312253E-01  1.706249950666E+00  1.581968574095E+00
   20     6 C    -5.910463312253E-01 -1.706249950666E+00  1.581968574095E+00
   21     6 C    -1.127949405589E+00  2.762780818994E+00 -1.167225537378E+00
   22     6 C     1.127949405589E+00 -2.762780818994E+00 -1.167225537378E+00
   23     6 C     2.762780818994E+00  1.127949405589E+00  1.167225537378E+00
   24     6 C    -2.762780818994E+00 -1.127949405589E+00  1.167225537378E+00
   25     6 C     3.028124912446E+00 -9.673103652899E-01 -1.798885460460E+00
   26     6 C    -3.028124912446E+00  9.673103652899E-01 -1.798885460460E+00
   27     6 C    -9.673103652899E-01 -3.028124912446E+00  1.798885460460E+00
   28     6 C     9.673103652899E-01  3.028124912446E+00  1.798885460460E+00
   29     7 N     3.537956358379E+00  2.685042057197E-01  4.198680665190E+00
   30     7 N    -3.537956358379E+00 -2.685042057197E-01  4.198680665190E+00
   31     7 N     2.685042057197E-01 -3.537956358379E+00 -4.198680665190E+00
   32     7 N    -2.685042057197E-01  3.537956358379E+00 -4.198680665190E+00
   33     7 N    -2.225877744630E+00 -3.720294836253E+00 -2.124196727134E+00
   34     7 N     2.225877744630E+00  3.720294836253E+00 -2.124196727134E+00
   35     7 N    -3.720294836253E+00  2.225877744630E+00  2.124196727134E+00
   36     7 N     3.720294836253E+00 -2.225877744630E+00  2.124196727134E+00
   37     7 N     1.636727480766E+00  2.099367916828E-01  5.300690198339E+00
   38     7 N    -1.636727480766E+00 -2.099367916828E-01  5.300690198339E+00
   39     7 N     2.099367916828E-01 -1.636727480766E+00 -5.300690198339E+00
   40     7 N    -2.099367916828E-01  1.636727480766E+00 -5.300690198339E+00
   41     7 N    -3.365414228536E+00 -3.751474610632E+00 -1.466783529298E+00
   42     7 N     3.365414228536E+00  3.751474610632E+00 -1.466783529298E+00
   43     7 N    -3.751474610632E+00  3.365414228536E+00  1.466783529298E+00
   44     7 N     3.751474610632E+00 -3.365414228536E+00  1.466783529298E+00
   45     7 N    -7.650631801264E-01  1.501685349839E+00 -1.249482265698E+00
   46     7 N     7.650631801264E-01 -1.501685349839E+00 -1.249482265698E+00
   47     7 N     1.501685349839E+00  7.650631801264E-01  1.249482265698E+00
   48     7 N    -1.501685349839E+00 -7.650631801264E-01  1.249482265698E+00
   49     9 F     6.339185209969E-01 -2.564536442704E+00  4.427769497334E+00
   50     9 F    -6.339185209969E-01  2.564536442704E+00  4.427769497334E+00
   51     9 F    -2.564536442704E+00 -6.339185209969E-01 -4.427769497334E+00
   52     9 F     2.564536442704E+00  6.339185209969E-01 -4.427769497334E+00
   53     9 F    -1.784410060766E-01  3.639079950960E+00 -7.723419911433E-01
   54     9 F     1.784410060766E-01 -3.639079950960E+00 -7.723419911433E-01
   55     9 F     3.639079950960E+00  1.784410060766E-01  7.723419911433E-01
   56     9 F    -3.639079950960E+00 -1.784410060766E-01  7.723419911433E-01
   57     9 F    -3.957303256366E+00  4.487359420816E-02 -2.074996441036E+00
   58     9 F     3.957303256366E+00 -4.487359420816E-02 -2.074996441036E+00
   59     9 F     4.487359420816E-02  3.957303256366E+00  2.074996441036E+00
   60     9 F    -4.487359420816E-02 -3.957303256366E+00  2.074996441036E+00
   61    30 ZN    5.266853780300E+00  0.000000000000E+00 -9.609430878525E+00
   62    30 ZN    0.000000000000E+00  0.000000000000E+00  6.406287252350E+00

 *******************************************************************************
 STARTING BASIS SET HANDLING 
 *******************************************************************************

 Loading internal basis set: POB-DZVPP           

 Please cite in your publication:
 Peintinger, M. F., Oliveira, D. V. and Bredow, T. (2013), Generally applicable 
 solid-state Gaussian basis sets, in preparation                                
                                                                                
                    

 *******************************************************************************
 LOCAL ATOMIC FUNCTIONS BASIS SET
 *******************************************************************************
   ATOM   X(AU)   Y(AU)   Z(AU)  N. TYPE  EXPONENT  S COEF   P COEF   D/F/G COEF
 *******************************************************************************
   1 H   -2.629  -0.858  -3.118
                                  1 S  
                                         2.263E+01 1.441E-02 0.000E+00 0.000E+00
                                         3.236E+00 1.072E-01 0.000E+00 0.000E+00
                                         7.304E-01 3.846E-01 0.000E+00 0.000E+00
                                  2 S  
                                         1.417E-01 1.000E+00 0.000E+00 0.000E+00
                           3-     5 P  
                                         3.944E-01 0.000E+00 1.000E+00 0.000E+00
                           6-     8 P  
                                         1.006E-01 0.000E+00 1.000E+00 0.000E+00
   2 H    2.629   0.858  -3.118
   3 H   -0.858   2.629   3.118
   4 H    0.858  -2.629   3.118
   5 C   -4.540   6.210  -2.730
                                 33 S  
                                         1.238E+03 5.457E-03 0.000E+00 0.000E+00
                                         1.863E+02 4.064E-02 0.000E+00 0.000E+00
                                         4.225E+01 1.803E-01 0.000E+00 0.000E+00
                                         1.168E+01 4.632E-01 0.000E+00 0.000E+00
                                         3.593E+00 4.409E-01 0.000E+00 0.000E+00
                                 34 S  
                                         5.281E+00 1.000E+00 0.000E+00 0.000E+00
                                 35 S  
                                         4.447E-01 1.000E+00 0.000E+00 0.000E+00
                          36-    38 P  
                                         9.468E+00 0.000E+00 3.839E-02 0.000E+00
                                         2.010E+00 0.000E+00 2.112E-01 0.000E+00
                                         5.477E-01 0.000E+00 5.133E-01 0.000E+00
                          39-    41 P  
                                         1.604E-01 0.000E+00 1.000E+00 0.000E+00
                          42-    46 D  
                                         6.070E-01 0.000E+00 0.000E+00 1.000E+00
                          47-    51 D  
                                         2.939E-01 0.000E+00 0.000E+00 1.000E+00
   6 C    4.540  -6.210  -2.730
   7 C    6.210   4.540   2.730
   8 C   -6.210  -4.540   2.730
   9 C    5.029  -1.023   9.148
  10 C   -5.029   1.023   9.148
  11 C   -1.023  -5.029  -9.148
  12 C    1.023   5.029  -9.148
  13 C   -6.378   4.387  -3.271
  14 C    6.378  -4.387  -3.271
  15 C    4.387   6.378   3.271
  16 C   -4.387  -6.378   3.271
  17 C   -3.224   1.117  -2.989
  18 C    3.224  -1.117  -2.989
  19 C    1.117   3.224   2.989
  20 C   -1.117  -3.224   2.989
  21 C   -2.132   5.221  -2.206
  22 C    2.132  -5.221  -2.206
  23 C    5.221   2.132   2.206
  24 C   -5.221  -2.132   2.206
  25 C    5.722  -1.828  -3.399
  26 C   -5.722   1.828  -3.399
  27 C   -1.828  -5.722   3.399
  28 C    1.828   5.722   3.399
  29 N    6.686   0.507   7.934
                                489 S  
                                         1.713E+03-5.393E-03 0.000E+00 0.000E+00
                                         2.576E+02-4.022E-02 0.000E+00 0.000E+00
                                         5.846E+01-1.793E-01 0.000E+00 0.000E+00
                                         1.620E+01-4.638E-01 0.000E+00 0.000E+00
                                         5.005E+00-4.417E-01 0.000E+00 0.000E+00
                                490 S  
                                         6.217E-01 1.000E+00 0.000E+00 0.000E+00
                                491 S  
                                         2.921E-01 1.000E+00 0.000E+00 0.000E+00
                         492-   494 P  
                                         1.357E+01 0.000E+00-4.007E-02 0.000E+00
                                         2.926E+00 0.000E+00-2.181E-01 0.000E+00
                                         7.993E-01 0.000E+00-5.129E-01 0.000E+00
                         495-   497 P  
                                         2.244E-01 0.000E+00 1.000E+00 0.000E+00
                         498-   502 D  
                                         3.118E-01 0.000E+00 0.000E+00 1.000E+00
  30 N   -6.686  -0.507   7.934
  31 N    0.507  -6.686  -7.934
  32 N   -0.507   6.686  -7.934
  33 N   -4.206  -7.030  -4.014
  34 N    4.206   7.030  -4.014
  35 N   -7.030   4.206   4.014
  36 N    7.030  -4.206   4.014
  37 N    3.093   0.397  10.017
  38 N   -3.093  -0.397  10.017
  39 N    0.397  -3.093 -10.017
  40 N   -0.397   3.093 -10.017
  41 N   -6.360  -7.089  -2.772
  42 N    6.360   7.089  -2.772
  43 N   -7.089   6.360   2.772
  44 N    7.089  -6.360   2.772
  45 N   -1.446   2.838  -2.361
  46 N    1.446  -2.838  -2.361
  47 N    2.838   1.446   2.361
  48 N   -2.838  -1.446   2.361
  49 F    1.198  -4.846   8.367
                                769 S  
                                         2.895E+03-5.341E-03 0.000E+00 0.000E+00
                                         4.354E+02-3.990E-02 0.000E+00 0.000E+00
                                         9.884E+01-1.791E-01 0.000E+00 0.000E+00
                                         2.749E+01-4.676E-01 0.000E+00 0.000E+00
                                         8.541E+00-4.465E-01 0.000E+00 0.000E+00
                                770 S  
                                         1.123E+00 1.000E+00 0.000E+00 0.000E+00
                                771 S  
                                         3.743E-01 1.000E+00 0.000E+00 0.000E+00
                         772-   774 P  
                                         2.270E+01 0.000E+00-4.521E-02 0.000E+00
                                         4.987E+00 0.000E+00-2.375E-01 0.000E+00
                                         1.349E+00 0.000E+00-5.129E-01 0.000E+00
                         775-   777 P  
                                         3.474E-01 0.000E+00 1.000E+00 0.000E+00
                         778-   782 D  
                                         9.203E-01 0.000E+00 0.000E+00 1.000E+00
                         783-   787 D  
                                         3.977E-01 0.000E+00 0.000E+00 1.000E+00
  50 F   -1.198   4.846   8.367
  51 F   -4.846  -1.198  -8.367
  52 F    4.846   1.198  -8.367
  53 F   -0.337   6.877  -1.460
  54 F    0.337  -6.877  -1.460
  55 F    6.877   0.337   1.460
  56 F   -6.877  -0.337   1.460
  57 F   -7.478   0.085  -3.921
  58 F    7.478  -0.085  -3.921
  59 F    0.085   7.478   3.921
  60 F   -0.085  -7.478   3.921
  61 ZN   9.953   0.000 -18.159
                                997 S  
                                         8.200E+04 1.421E-03 0.000E+00 0.000E+00
                                         1.231E+04 1.089E-02 0.000E+00 0.000E+00
                                         2.801E+03 5.406E-02 0.000E+00 0.000E+00
                                         7.910E+02 1.885E-01 0.000E+00 0.000E+00
                                         2.576E+02 3.835E-01 0.000E+00 0.000E+00
                                         8.881E+01 2.972E-01 0.000E+00 0.000E+00
                                998 S  
                                         1.719E+02-1.105E-01 0.000E+00 0.000E+00
                                         2.030E+01 6.461E-01 0.000E+00 0.000E+00
                                         8.346E+00 4.422E-01 0.000E+00 0.000E+00
                                999 S  
                                         1.485E+01-2.271E-01 0.000E+00 0.000E+00
                                         2.450E+00 7.243E-01 0.000E+00 0.000E+00
                                         9.985E-01 4.484E-01 0.000E+00 0.000E+00
                               1000 S  
                                         1.493E+00 1.000E+00 0.000E+00 0.000E+00
                               1001 S  
                                         1.830E-01 1.000E+00 0.000E+00 0.000E+00
                        1002-  1004 P  
                                         1.072E+03 0.000E+00 9.277E-03 0.000E+00
                                         2.527E+02 0.000E+00 6.954E-02 0.000E+00
                                         8.010E+01 0.000E+00 2.716E-01 0.000E+00
                                         2.890E+01 0.000E+00 5.340E-01 0.000E+00
                                         1.077E+01 0.000E+00 3.450E-01 0.000E+00
                        1005-  1007 P  
                                         5.645E+00 0.000E+00 3.413E-01 0.000E+00
                                         2.168E+00 0.000E+00 5.639E-01 0.000E+00
                                         8.054E-01 0.000E+00 2.368E-01 0.000E+00
                        1008-  1010 P  
                                         2.721E-01 0.000E+00 1.000E+00 0.000E+00
                        1011-  1015 D  
                                         5.609E+01 0.000E+00 0.000E+00 2.959E-02
                                         1.575E+01 0.000E+00 0.000E+00 1.587E-01
                                         5.312E+00 0.000E+00 0.000E+00 3.798E-01
                                         1.774E+00 0.000E+00 0.000E+00 4.690E-01
                        1016-  1020 D  
                                         5.073E-01 0.000E+00 0.000E+00 1.000E+00
                        1021-  1027 F  
                                         2.814E+00 0.000E+00 0.000E+00 1.000E+00
                        1028-  1034 F  
                                         1.300E+00 0.000E+00 0.000E+00 1.000E+00
  62 ZN   0.000   0.000  12.106

 *******************************************************************************
 FINISHED BASIS SET HANDLING 
 *******************************************************************************

 INFORMATION **** SET_MPP **** PCRYSTAL CALCULATION
 INFORMATION **** READM2 **** NEW DEFAULT: FOCK/KS MATRIX MIXING SET TO 30 %
 INFORMATION **** READM2 **** NEW DEFAULT: FULL DIRECT SCF MODE
 INFORMATION **** READM2 **** NEW DEFAULT: COULOMB BIPOLAR BUFFER SET TO 32 Mb
 INFORMATION **** READM2 **** NEW DEFAULT: EXCHANGE BIPOLAR BUFFER SET TO 32 Mb

 *******************************************************************************
 NEW DEFAULT: DFT INTEGRATION GRID INCREASED TO XLGRID
 NEW DEFAULT: DIIS ACCELERATOR ACTIVE
 USE KEYWORD NODIIS TO TURN IT OFF
 *******************************************************************************

 INFORMATION **** DFTD3_INPUT **** PERFORM DISPERSION CORRECTION DFT-D3(BJ) IN THE BECKE-JOHNSON DAMPING SCHEME

 PLEASE CITE:
 (1) DFT-D3 Reference
  S. Grimme, J. Antony, S. Ehrlich, and H. Krieg, J. Chem. Phys. 132 (2010), 154104
 (2) BJ-Damping Reference
  S. Grimme, S. Ehrlich, and L. Goerigk, J. Comput. Chem. 32 (2011), 1456-1465
 (3) General DFT-D Review
  S. Grimme, A. Hansen, J. G. Brandenburg, and C. Bannwarth,
  Chem. Rev. 116 (2016), 5105-5154

 INFORMATION **** TOLINTEG **** COULOMB AND EXCHANGE SERIES TOLERANCES MODIFIED
 INFORMATION **** BIPOSIZE **** COULOMB BIPOLAR BUFFER SET TO   100000000
 INFORMATION **** MAXCYCLE **** MAX NUMBER OF SCF CYCLES SET TO          50
 *******************************************************************************
 N. OF ATOMS PER CELL        62  COULOMB OVERLAP TOL         (T1) 10**  -12
 NUMBER OF SHELLS           412  COULOMB PENETRATION TOL     (T2) 10**  -12
 NUMBER OF AO              1072  EXCHANGE OVERLAP TOL        (T3) 10**   20
 N. OF ELECTRONS PER CELL   456  EXCHANGE PSEUDO OVP (F(G))  (T4) 10**   20
 CORE ELECTRONS PER CELL    148  EXCHANGE PSEUDO OVP (P(G))  (T5) 10**   20
 N. OF SYMMETRY OPERATORS     4  POLE ORDER IN MONO ZONE                  4
 *******************************************************************************
 TYPE OF CALCULATION :  RESTRICTED CLOSED SHELL
 KOHN-SHAM HAMILTONIAN

 (EXCHANGE)[CORRELATION] FUNCTIONAL:(PERDEW-BURKE-ERNZERHOF)[PERDEW-BURKE-ERNZERHOF]


 CAPPA:IS1  3;IS2  3;IS3  3; K PTS MONK NET   6; SYMMOPS:K SPACE   8;G SPACE   4

 *******************************************************************************
 MAX NUMBER OF SCF CYCLES      50  CONVERGENCE ON DELTAP        10**-16
 WEIGHT OF F(I) IN F(I+1)      30% CONVERGENCE ON ENERGY        10**- 6
 SHRINK. FACT.(MONKH.)    3  3  3  NUMBER OF K POINTS IN THE IBZ      6
 SHRINKING FACTOR(GILAT NET)    3  NUMBER OF K POINTS(GILAT NET)      6
 *******************************************************************************
 *** K POINTS COORDINATES (OBLIQUE COORDINATES IN UNITS OF IS =  3)
   1-R(  0  0  0)   2-C(  1  0  0)   3-C(  1  1  0)   4-C(  2  1  0)
   5-C(  2  1  1)   6-C(  2  2  1)

 DIRECT LATTICE VECTORS COMPON. (A.U.)     RECIP. LATTICE VECTORS COMPON. (A.U.) 
        X            Y            Z              X            Y            Z
   -9.9529112    9.9529112   12.1061284      0.0000000    0.3156456    0.2595043
    9.9529112   -9.9529112   12.1061284      0.3156456    0.0000000    0.2595043
    9.9529112    9.9529112  -12.1061284      0.3156456    0.3156456    0.0000000

 DISK SPACE FOR EIGENVECTORS (FTN 10)    12641024 REALS

 SYMMETRY ADAPTION OF THE BLOCH FUNCTIONS ENABLED
 TTTTTTTTTTTTTTTTTTTTTTTTTTTTTT gordsh1     TELAPSE       12.04 TCPU        0.05

 MATRIX SIZE: P(G) 1749428, F(G)  875338, P(G) IRR  221276, F(G) IRR  221276
 MAX G-VECTOR INDEX FOR 1- AND 2-ELECTRON INTEGRALS  59

 TTTTTTTTTTTTTTTTTTTTTTTTTTTTTT INPUT       TELAPSE       12.07 TCPU        0.08

 NEIGHBORS OF THE NON-EQUIVALENT ATOMS

 N = NUMBER OF NEIGHBORS AT DISTANCE R
    ATOM  N     R/ANG      R/AU   NEIGHBORS (ATOM LABELS AND CELL INDICES)
   1 H    1     1.0936     2.0667   17 C    0 0 0
   1 H    1     2.0922     3.9537   45 N    0 0 0
   1 H    1     2.1730     4.1063   26 C    0 0 0
   1 H    1     2.4305     4.5931   46 N    0 0 0
   1 H    1     2.6485     5.0049   57 F    0 0 0
   1 H    1     2.9183     5.5149   48 N    0 0 0

   5 C    1     1.3996     2.6449   13 C    0 0 0
   5 C    1     1.4055     2.6560   21 C    0 0 0
   5 C    1     1.4586     2.7564    9 C    0-1 0
   5 C    1     2.3500     4.4409   53 F    0 0 0
   5 C    1     2.3667     4.4724   49 F    0-1 0
   5 C    1     2.4279     4.5881   26 C    0 0 0

   9 C    1     1.3510     2.5531   37 N    0 0 0
   9 C    1     1.3552     2.5610   29 N    0 0 0
   9 C    1     1.4586     2.7564    5 C    0 1 0
   9 C    1     2.1944     4.1467   33 N    1 1 1
   9 C    1     2.1947     4.1473   41 N    1 1 1
   9 C    1     2.4889     4.7034   21 C    0 1 0

  13 C    1     1.3375     2.5276   49 F    0-1 0
  13 C    1     1.3994     2.6445   26 C    0 0 0
  13 C    1     1.3996     2.6449    5 C    0 0 0
  13 C    1     2.3583     4.4566   21 C    0 0 0
  13 C    1     2.3748     4.4878   57 F    0 0 0
  13 C    1     2.4085     4.5513   17 C    0 0 0

  17 C    1     1.0936     2.0667    1 H    0 0 0
  17 C    1     1.3512     2.5533   45 N    0 0 0
  17 C    1     1.3914     2.6294   26 C    0 0 0
  17 C    1     2.2854     4.3187   21 C    0 0 0
  17 C    1     2.3683     4.4753   57 F    0 0 0
  17 C    1     2.4085     4.5513   13 C    0 0 0

  21 C    1     1.3148     2.4847   45 N    0 0 0
  21 C    1     1.3511     2.5532   53 F    0 0 0
  21 C    1     1.4055     2.6560    5 C    0 0 0
  21 C    1     2.2854     4.3187   17 C    0 0 0
  21 C    1     2.3583     4.4566   13 C    0 0 0
  21 C    1     2.4889     4.7034    9 C    0-1 0

  25 C    1     1.3381     2.5286   58 F    0 0 0
  25 C    1     1.3914     2.6294   18 C    0 0 0
  25 C    1     1.3994     2.6445   14 C    0 0 0
  25 C    1     2.1730     4.1063    2 H    0 0 0
  25 C    1     2.3702     4.4791   50 F   -1 0 0
  25 C    1     2.3893     4.5152   46 N    0 0 0

  29 N    1     1.3552     2.5610    9 C    0 0 0
  29 N    1     1.3738     2.5961   33 N    1 1 1
  29 N    1     2.0130     3.8041   61 ZN   1 1 0
  29 N    1     2.1867     4.1323   41 N    1 1 1
  29 N    1     2.1983     4.1542   37 N    0 0 0
  29 N    1     2.4686     4.6649    5 C    0 1 0

  33 N    1     1.3159     2.4868   41 N    0 0 0
  33 N    1     1.3738     2.5961   29 N   -1-1-1
  33 N    1     2.1900     4.1385   37 N   -1-1-1
  33 N    1     2.1944     4.1467    9 C   -1-1-1
  33 N    1     2.7595     5.2147   54 F    0 0 0
  33 N    1     2.9173     5.5129   61 ZN   0 0-1

  37 N    1     1.3510     2.5531    9 C    0 0 0
  37 N    1     1.3801     2.6080   41 N    1 1 1
  37 N    1     1.9863     3.7535   62 ZN   0 0 0
  37 N    1     2.1900     4.1385   33 N    1 1 1
  37 N    1     2.1983     4.1542   29 N    0 0 0
  37 N    1     2.5339     4.7883    5 C    0 1 0

  41 N    1     1.3159     2.4868   33 N    0 0 0
  41 N    1     1.3801     2.6080   37 N   -1-1-1
  41 N    1     2.1867     4.1323   29 N   -1-1-1
  41 N    1     2.1947     4.1473    9 C   -1-1-1
  41 N    1     2.7912     5.2746   50 F   -1-1-1
  41 N    1     2.8396     5.3661   62 ZN  -1-1-1

  45 N    1     1.3148     2.4847   21 C    0 0 0
  45 N    1     1.3512     2.5533   17 C    0 0 0
  45 N    1     2.0922     3.9537    1 H    0 0 0
  45 N    1     2.2672     4.2844   53 F    0 0 0
  45 N    1     2.3893     4.5152   26 C    0 0 0
  45 N    1     2.4298     4.5917    5 C    0 0 0

  49 F    1     1.3375     2.5276   13 C    0 1 0
  49 F    1     2.3667     4.4724    5 C    0 1 0
  49 F    1     2.3702     4.4791   26 C    0 1 0
  49 F    1     2.7437     5.1848   57 F    0 1 0
  49 F    1     2.7912     5.2746   42 N    0 0-1
  49 F    1     2.8171     5.3236   60 F    0 0 0

  53 F    1     1.3511     2.5532   21 C    0 0 0
  53 F    1     2.2672     4.2844   45 N    0 0 0
  53 F    1     2.3500     4.4409    5 C    0 0 0
  53 F    1     2.7469     5.1909   30 N    0 0 1
  53 F    1     2.7595     5.2147   34 N    0 0 0
  53 F    1     2.7750     5.2440    9 C    0-1 0

  57 F    1     1.3381     2.5286   26 C    0 0 0
  57 F    1     2.3683     4.4753   17 C    0 0 0
  57 F    1     2.3748     4.4878   13 C    0 0 0
  57 F    1     2.6206     4.9523   58 F    0-1-1
  57 F    1     2.6485     5.0049    1 H    0 0 0
  57 F    1     2.7437     5.1848   49 F    0-1 0

  61 ZN   4     2.0130     3.8041   29 N   -1-1 0   30 N   -1 0 1   31 N    0 0 1
                                    32 N   -1 0 0
  61 ZN   4     2.9173     5.5129   33 N    0 0 1   34 N   -1 0 0   35 N   -1 0 1
                                    36 N   -1-1 0
  61 ZN   4     2.9309     5.5386   53 F   -1 0 0   54 F    0 0 1   55 F   -1-1 0
                                    56 F   -1 0 1
  61 ZN   4     3.1248     5.9050    9 C   -1-1 0   10 C   -1 0 1   11 C    0 0 1
                                    12 C   -1 0 0
  61 ZN   4     3.4187     6.4604   21 C   -1 0 0   22 C    0 0 1   23 C   -1-1 0
                                    24 C   -1 0 1
  61 ZN   4     3.5758     6.7572    5 C   -1 0 0    6 C    0 0 1    7 C   -1-1 0
                                     8 C   -1 0 1

  62 ZN   4     1.9863     3.7535   37 N    0 0 0   38 N    0 0 0   39 N    1 1 0
                                    40 N    1 1 0
  62 ZN   4     2.8396     5.3661   41 N    1 1 1   42 N    0 0-1   43 N    0 1 0
                                    44 N    1 0 0
  62 ZN   4     3.1346     5.9235    9 C    0 0 0   10 C    0 0 0   11 C    1 1 0
                                    12 C    1 1 0
  62 ZN   4     3.3005     6.2370   49 F    0 0 0   50 F    0 0 0   51 F    1 1 0
                                    52 F    1 1 0
  62 ZN   4     3.7703     7.1248    5 C    0 1 0    6 C    1 0 0    7 C    0 0-1
                                     8 C    1 1 1
  62 ZN   4     3.9052     7.3798   13 C    0 1 0   14 C    1 0 0   15 C    0 0-1
                                    16 C    1 1 1


 SYMMETRY ALLOWED INTERNAL DEGREE(S) OF FREEDOM:  45
 TTTTTTTTTTTTTTTTTTTTTTTTTTTTTT SYMM        TELAPSE       12.90 TCPU        0.91
 TTTTTTTTTTTTTTTTTTTTTTTTTTTTTT INT_SCREEN  TELAPSE       12.91 TCPU        0.91
 INFORMATION **** EXCBUF **** EXCH. BIPO BUFFER: WORDS USED =           0

 DFT PARAMETERS

     ATOM       ELECTRONS   NET CHARGE   R(ANGSTROM)
   1   1  H       1.0000      0.0000     1.11000000
   5   6  C       6.0000      0.0000     0.77000000
  29   7  N       7.0000      0.0000     0.74000000
  49   9  F       9.0000      0.0000     0.72000000
  61  30  ZN     30.0000      0.0000     1.37000000

 SIZE OF GRID=     493745
 TTTTTTTTTTTTTTTTTTTTTTTTTTTTTT MAKE_GRID2  TELAPSE       13.62 TCPU        1.63
 BECKE WEIGHT FUNCTION
 RADSAFE =     2.00
 TOLERANCES - DENSITY:10**- 6; POTENTIAL:10**- 9; GRID WGT:10**-14

 RADIAL INTEGRATION  - INTERVALS (POINTS,UPPER LIMIT):            1( 75,  4.0*R)

 ANGULAR INTEGRATION - INTERVALS (ACCURACY LEVEL [N. POINTS] UPPER LIMIT):
  1(  4[  86]   0.2)  2(  8[ 194]   0.5)  3( 12[ 350]   0.9)  4( 16[ 974]   3.5)
  5( 12[ 350]9999.0)
 TTTTTTTTTTTTTTTTTTTTTTTTTTTTTT INT_CALC    TELAPSE       13.67 TCPU        1.67
 EEEEEEEEEE INT_CALC TERMINATION  DATE 01 12 2023 TIME 10:20:03.4

 *******************************************************************************
 Z:\home\sanoj\Downloads\tmp_p\newconn.mol                                       
 CRYSTAL - SCF - TYPE OF CALCULATION :  RESTRICTED CLOSED SHELL
 *******************************************************************************

 CAPPA:IS1  3;IS2  3;IS3  3; K PTS MONK NET   6; SYMMOPS:K SPACE   8;G SPACE   4

 TTTTTTTTTTTTTTTTTTTTTTTTTTTTTT SDIK        TELAPSE       13.91 TCPU        1.91

 AAAAAAAAAAAAAAAAAAAAAAAAAAAAAAAAAAAAAAAAAAAAAAAAAAAAAAAAAAAAAAAAAAAAAAAAAAAAAAA
         ATOMIC WAVEFUNCTION(S)


 NUCLEAR CHARGE  1.0  SYMMETRY SPECIES            S
 N. ELECTRONS    1.0  NUMBER OF PRIMITIVE GTOS    4
                      NUMBER OF CONTRACTED GTOS   2
                      NUMBER OF CLOSED SHELLS     0
                      OPEN SHELL OCCUPATION       1

  ZNUC SCFIT  TOTAL HF ENERGY   KINETIC ENERGY   VIRIAL THEOREM ACCURACY
   1.0   1   -4.946643675E-01  4.917913167E-01 -2.005842012E+00  9.4E-17

 NUCLEAR CHARGE  6.0  SYMMETRY SPECIES            S    P
 N. ELECTRONS    6.0  NUMBER OF PRIMITIVE GTOS    7    4
                      NUMBER OF CONTRACTED GTOS   3    2
                      NUMBER OF CLOSED SHELLS     2    0
                      OPEN SHELL OCCUPATION       0    2

  ZNUC SCFIT  TOTAL HF ENERGY   KINETIC ENERGY   VIRIAL THEOREM ACCURACY
   6.0   6   -3.750912652E+01  3.905246519E+01 -1.960480378E+00  3.7E-06

 NUCLEAR CHARGE  7.0  SYMMETRY SPECIES            S    P
 N. ELECTRONS    7.0  NUMBER OF PRIMITIVE GTOS    7    4
                      NUMBER OF CONTRACTED GTOS   3    2
                      NUMBER OF CLOSED SHELLS     2    0
                      OPEN SHELL OCCUPATION       0    3

  ZNUC SCFIT  TOTAL HF ENERGY   KINETIC ENERGY   VIRIAL THEOREM ACCURACY
   7.0   9   -5.432196661E+01  5.425066284E+01 -2.001314339E+00  1.2E-06

 NUCLEAR CHARGE  9.0  SYMMETRY SPECIES            S    P
 N. ELECTRONS    9.0  NUMBER OF PRIMITIVE GTOS    7    4
                      NUMBER OF CONTRACTED GTOS   3    2
                      NUMBER OF CLOSED SHELLS     2    0
                      OPEN SHELL OCCUPATION       0    5

  ZNUC SCFIT  TOTAL HF ENERGY   KINETIC ENERGY   VIRIAL THEOREM ACCURACY
   9.0  14   -9.927886620E+01  9.927374065E+01 -2.000051630E+00  4.0E-06

 NUCLEAR CHARGE 30.0  SYMMETRY SPECIES            S    P    D
 N. ELECTRONS   30.0  NUMBER OF PRIMITIVE GTOS   14    9    5
                      NUMBER OF CONTRACTED GTOS   5    3    2
                      NUMBER OF CLOSED SHELLS     4    2    1
                      OPEN SHELL OCCUPATION       0    0    0

  ZNUC SCFIT  TOTAL HF ENERGY   KINETIC ENERGY   VIRIAL THEOREM ACCURACY
  30.0  10   -1.777404290E+03  1.777325716E+03 -2.000044209E+00  2.5E-06

 AAAAAAAAAAAAAAAAAAAAAAAAAAAAAAAAAAAAAAAAAAAAAAAAAAAAAAAAAAAAAAAAAAAAAAAAAAAAAAA

 TOTAL ATOMIC CHARGES:
   1.0000000   1.0000000   1.0000000   1.0000000   6.0000000   6.0000000
   6.0000000   6.0000000   6.0000000   6.0000000   6.0000000   6.0000000
   6.0000000   6.0000000   6.0000000   6.0000000   6.0000000   6.0000000
   6.0000000   6.0000000   6.0000000   6.0000000   6.0000000   6.0000000
   6.0000000   6.0000000   6.0000000   6.0000000   7.0000000   7.0000000
   7.0000000   7.0000000   7.0000000   7.0000000   7.0000000   7.0000000
   7.0000000   7.0000000   7.0000000   7.0000000   7.0000000   7.0000000
   7.0000000   7.0000000   7.0000000   7.0000000   7.0000000   7.0000000
   9.0000000   9.0000000   9.0000000   9.0000000   9.0000000   9.0000000
   9.0000000   9.0000000   9.0000000   9.0000000   9.0000000   9.0000000
  30.0000000  30.0000000
 TTTTTTTTTTTTTTTTTTTTTTTTTTTTTT MOQGAD      TELAPSE       16.79 TCPU        4.77
 TTTTTTTTTTTTTTTTTTTTTTTTTTTTTT SHELLXN     TELAPSE       78.32 TCPU       57.93
 TTTTTTTTTTTTTTTTTTTTTTTTTTTTTT MONMO3      TELAPSE       84.73 TCPU       64.32
 NUMERICALLY INTEGRATED DENSITY    456.0001714268
 TTTTTTTTTTTTTTTTTTTTTTTTTTTTTT NUMDFT      TELAPSE       86.91 TCPU       66.49
 CYC   0 ETOT(AU) -6.766988357456E+03 DETOT -6.77E+03 tst  0.00E+00 PX  1.00E+00
 TTTTTTTTTTTTTTTTTTTTTTTTTTTTTT DIIS        TELAPSE       86.99 TCPU       66.57
 TTTTTTTTTTTTTTTTTTTTTTTTTTTTTT FDIK        TELAPSE      128.60 TCPU      105.69
 INSULATING STATE
 TOP OF VALENCE BANDS -    BAND    228; K    3; EIG -1.2783467E-01 AU
 TOP OF VALENCE BANDS -    BAND    228; K    1; EIG -1.2998711E-01 AU
 BOTTOM OF VIRTUAL BANDS - BAND    229; K    5; EIG -8.6282052E-02 AU
 INDIRECT ENERGY BAND GAP:   1.1307 eV
 BOTTOM OF VIRTUAL BANDS - BAND    229; K    1; EIG -8.4704823E-02 AU
 TTTTTTTTTTTTTTTTTTTTTTTTTTTTTT PDIG        TELAPSE      129.27 TCPU      106.36
 TOTAL ATOMIC CHARGES:
   1.3101760   1.3101760   1.3101760   1.3101760   6.3211506   6.3211506
   6.3211506   6.3211506   5.5668565   5.5668565   5.5668565   5.5668565
   5.4326180   5.4326180   5.4326180   5.4326180   6.0265673   6.0265673
   6.0265673   6.0265673   5.1362860   5.1362860   5.1362860   5.1362860
   5.4198242   5.4198242   5.4198242   5.4198242   7.4530685   7.4530685
   7.4530685   7.4530685   7.2072691   7.2072691   7.2072691   7.2072691
   7.4426051   7.4426051   7.4426051   7.4426051   7.2020903   7.2020903
   7.2020903   7.2020903   7.6147416   7.6147416   7.6147416   7.6147416
   9.2789755   9.2789755   9.2789755   9.2789755   9.3056390   9.3056390
   9.3056390   9.3056390   9.3031629   9.3031629   9.3031629   9.3031629
  27.9392428  27.9766342
 TTTTTTTTTTTTTTTTTTTTTTTTTTTTTT MOQGAD      TELAPSE      129.32 TCPU      106.41
 TTTTTTTTTTTTTTTTTTTTTTTTTTTTTT SHELLXN     TELAPSE      197.97 TCPU      168.42
 TTTTTTTTTTTTTTTTTTTTTTTTTTTTTT MONMO3      TELAPSE      203.60 TCPU      174.04
 NUMERICALLY INTEGRATED DENSITY    456.0001577608
 TTTTTTTTTTTTTTTTTTTTTTTTTTTTTT NUMDFT      TELAPSE      209.58 TCPU      180.00
 CYC   1 ETOT(AU) -6.760453274227E+03 DETOT  6.54E+00 tst  0.00E+00 PX  1.00E+00
 TTTTTTTTTTTTTTTTTTTTTTTTTTTTTT DIIS        TELAPSE      209.92 TCPU      180.34
 DIIS TEST: 0.12948E+02 AT SCF   CYCLE   1 - MIX   30 %
 TTTTTTTTTTTTTTTTTTTTTTTTTTTTTT FDIK        TELAPSE      227.69 TCPU      194.68
 INSULATING STATE
 TOP OF VALENCE BANDS -    BAND    228; K    1; EIG -1.4911315E-01 AU
 BOTTOM OF VIRTUAL BANDS - BAND    229; K    6; EIG -1.1984723E-01 AU
 INDIRECT ENERGY BAND GAP:   0.7964 eV
 BOTTOM OF VIRTUAL BANDS - BAND    229; K    1; EIG -1.1913215E-01 AU
 TTTTTTTTTTTTTTTTTTTTTTTTTTTTTT PDIG        TELAPSE      228.36 TCPU      195.34
 TOTAL ATOMIC CHARGES:
   1.2984882   1.2984882   1.2984882   1.2984882   6.2424561   6.2424561
   6.2424561   6.2424561   6.3689098   6.3689098   6.3689098   6.3689098
   6.3228230   6.3228230   6.3228230   6.3228230   5.9314666   5.9314666
   5.9314666   5.9314666   6.3733407   6.3733407   6.3733407   6.3733407
   5.9129422   5.9129422   5.9129422   5.9129422   6.9799558   6.9799558
   6.9799558   6.9799558   6.8609978   6.8609978   6.8609978   6.8609978
   6.9754337   6.9754337   6.9754337   6.9754337   6.8392274   6.8392274
   6.8392274   6.8392274   6.0027848   6.0027848   6.0027848   6.0027848
   8.9995488   8.9995488   8.9995488   8.9995488   9.0698789   9.0698789
   9.0698789   9.0698789   8.9792282   8.9792282   8.9792282   8.9792282
  29.7268083  29.6432642
 TTTTTTTTTTTTTTTTTTTTTTTTTTTTTT MOQGAD      TELAPSE      228.41 TCPU      195.39
 TTTTTTTTTTTTTTTTTTTTTTTTTTTTTT SHELLXN     TELAPSE      292.71 TCPU      257.12
 TTTTTTTTTTTTTTTTTTTTTTTTTTTTTT MONMO3      TELAPSE      300.76 TCPU      265.14
 NUMERICALLY INTEGRATED DENSITY    456.0001952051
 TTTTTTTTTTTTTTTTTTTTTTTTTTTTTT NUMDFT      TELAPSE      306.76 TCPU      271.12
 CYC   2 ETOT(AU) -6.758715767370E+03 DETOT  1.74E+00 tst  5.53E-02 PX  6.86E-01
 TTTTTTTTTTTTTTTTTTTTTTTTTTTTTT DIIS        TELAPSE      307.12 TCPU      271.48
 DIIS TEST: 0.25535E+02 AT SCF   CYCLE   2 - DIIS ACTIVE - HISTORY:     2 CYCLES
 TTTTTTTTTTTTTTTTTTTTTTTTTTTTTT FDIK        TELAPSE      323.50 TCPU      285.57
 INSULATING STATE
 TOP OF VALENCE BANDS -    BAND    228; K    3; EIG -2.4395907E-01 AU
 TOP OF VALENCE BANDS -    BAND    228; K    1; EIG -2.4635813E-01 AU
 BOTTOM OF VIRTUAL BANDS - BAND    229; K    1; EIG -1.2040154E-01 AU
 INDIRECT ENERGY BAND GAP:   3.3622 eV
 TTTTTTTTTTTTTTTTTTTTTTTTTTTTTT PDIG        TELAPSE      324.17 TCPU      286.25
 TOTAL ATOMIC CHARGES:
   1.2284119   1.2284119   1.2284119   1.2284119   5.8903427   5.8903427
   5.8903427   5.8903427   5.9205794   5.9205794   5.9205794   5.9205794
   5.6886535   5.6886535   5.6886535   5.6886535   6.2503587   6.2503587
   6.2503587   6.2503587   5.7165920   5.7165920   5.7165920   5.7165920
   5.6216186   5.6216186   5.6216186   5.6216186   7.0495215   7.0495215
   7.0495215   7.0495215   7.1196808   7.1196808   7.1196808   7.1196808
   7.0724199   7.0724199   7.0724199   7.0724199   7.1011210   7.1011210
   7.1011210   7.1011210   7.4262136   7.4262136   7.4262136   7.4262136
   9.1144104   9.1144104   9.1144104   9.1144104   9.0746261   9.0746261
   9.0746261   9.0746261   9.1129020   9.1129020   9.1129020   9.1129020
  29.2270969  29.2230948
 TTTTTTTTTTTTTTTTTTTTTTTTTTTTTT MOQGAD      TELAPSE      324.22 TCPU      286.30
 TTTTTTTTTTTTTTTTTTTTTTTTTTTTTT SHELLXN     TELAPSE      388.29 TCPU      348.08
 TTTTTTTTTTTTTTTTTTTTTTTTTTTTTT MONMO3      TELAPSE      398.35 TCPU      358.12
 NUMERICALLY INTEGRATED DENSITY    456.0001709599
 TTTTTTTTTTTTTTTTTTTTTTTTTTTTTT NUMDFT      TELAPSE      404.29 TCPU      364.04
 CYC   3 ETOT(AU) -6.762051586822E+03 DETOT -3.34E+00 tst  1.60E-02 PX  4.85E-01
 TTTTTTTTTTTTTTTTTTTTTTTTTTTTTT DIIS        TELAPSE      404.47 TCPU      364.22
 DIIS TEST: 0.36886E+01 AT SCF   CYCLE   3 - DIIS ACTIVE - HISTORY:     3 CYCLES
 TTTTTTTTTTTTTTTTTTTTTTTTTTTTTT FDIK        TELAPSE      419.62 TCPU      376.95
 INSULATING STATE
 TOP OF VALENCE BANDS -    BAND    228; K    3; EIG -2.3305223E-01 AU
 TOP OF VALENCE BANDS -    BAND    228; K    1; EIG -2.3343366E-01 AU
 BOTTOM OF VIRTUAL BANDS - BAND    229; K    6; EIG -1.1768423E-01 AU
 INDIRECT ENERGY BAND GAP:   3.1393 eV
 BOTTOM OF VIRTUAL BANDS - BAND    229; K    1; EIG -1.1710141E-01 AU
 TTTTTTTTTTTTTTTTTTTTTTTTTTTTTT PDIG        TELAPSE      420.28 TCPU      377.60
 TOTAL ATOMIC CHARGES:
   1.2821287   1.2821287   1.2821287   1.2821287   6.2859826   6.2859826
   6.2859826   6.2859826   5.8807601   5.8807601   5.8807601   5.8807601
   5.7974857   5.7974857   5.7974857   5.7974857   5.8937406   5.8937406
   5.8937406   5.8937406   5.6227767   5.6227767   5.6227767   5.6227767
   5.6377483   5.6377483   5.6377483   5.6377483   7.2523171   7.2523171
   7.2523171   7.2523171   7.0512518   7.0512518   7.0512518   7.0512518
   7.2422712   7.2422712   7.2422712   7.2422712   7.0540086   7.0540086
   7.0540086   7.0540086   6.9834625   6.9834625   6.9834625   6.9834625
   9.1761109   9.1761109   9.1761109   9.1761109   9.2096553   9.2096553
   9.2096553   9.2096553   9.2033351   9.2033351   9.2033351   9.2033351
  28.8479171  28.8599423
 TTTTTTTTTTTTTTTTTTTTTTTTTTTTTT MOQGAD      TELAPSE      420.33 TCPU      377.65
 TTTTTTTTTTTTTTTTTTTTTTTTTTTTTT SHELLXN     TELAPSE      482.08 TCPU      439.09
 TTTTTTTTTTTTTTTTTTTTTTTTTTTTTT MONMO3      TELAPSE      491.90 TCPU      448.87
 NUMERICALLY INTEGRATED DENSITY    456.0001638963
 TTTTTTTTTTTTTTTTTTTTTTTTTTTTTT NUMDFT      TELAPSE      497.90 TCPU      454.84
 CYC   4 ETOT(AU) -6.762482339313E+03 DETOT -4.31E-01 tst  4.68E-03 PX  2.02E-01
 TTTTTTTTTTTTTTTTTTTTTTTTTTTTTT DIIS        TELAPSE      498.19 TCPU      455.13
 DIIS TEST: 0.94173E+00 AT SCF   CYCLE   4 - DIIS ACTIVE - HISTORY:     4 CYCLES
 TTTTTTTTTTTTTTTTTTTTTTTTTTTTTT FDIK        TELAPSE      511.85 TCPU      467.59
 INSULATING STATE
 TOP OF VALENCE BANDS -    BAND    228; K    1; EIG -2.4693293E-01 AU
 BOTTOM OF VIRTUAL BANDS - BAND    229; K    6; EIG -1.2107426E-01 AU
 INDIRECT ENERGY BAND GAP:   3.4248 eV
 BOTTOM OF VIRTUAL BANDS - BAND    229; K    1; EIG -1.2052239E-01 AU
 TTTTTTTTTTTTTTTTTTTTTTTTTTTTTT PDIG        TELAPSE      512.52 TCPU      468.27
 TOTAL ATOMIC CHARGES:
   1.2614980   1.2614980   1.2614980   1.2614980   6.2115983   6.2115983
   6.2115983   6.2115983   5.9069035   5.9069035   5.9069035   5.9069035
   5.7761803   5.7761803   5.7761803   5.7761803   6.0664221   6.0664221
   6.0664221   6.0664221   5.6825558   5.6825558   5.6825558   5.6825558
   5.6135430   5.6135430   5.6135430   5.6135430   7.1938053   7.1938053
   7.1938053   7.1938053   7.0962187   7.0962187   7.0962187   7.0962187
   7.1660274   7.1660274   7.1660274   7.1660274   7.0562283   7.0562283
   7.0562283   7.0562283   7.0819057   7.0819057   7.0819057   7.0819057
   9.1369402   9.1369402   9.1369402   9.1369402   9.1702266   9.1702266
   9.1702266   9.1702266   9.1387037   9.1387037   9.1387037   9.1387037
  28.8856965  28.8792765
 TTTTTTTTTTTTTTTTTTTTTTTTTTTTTT MOQGAD      TELAPSE      512.57 TCPU      468.32
 TTTTTTTTTTTTTTTTTTTTTTTTTTTTTT SHELLXN     TELAPSE      576.89 TCPU      530.29
 TTTTTTTTTTTTTTTTTTTTTTTTTTTTTT MONMO3      TELAPSE      584.46 TCPU      537.83
 NUMERICALLY INTEGRATED DENSITY    456.0001685027
 TTTTTTTTTTTTTTTTTTTTTTTTTTTTTT NUMDFT      TELAPSE      590.50 TCPU      543.85
 CYC   5 ETOT(AU) -6.762615443443E+03 DETOT -1.33E-01 tst  8.06E-04 PX  9.44E-02
 TTTTTTTTTTTTTTTTTTTTTTTTTTTTTT DIIS        TELAPSE      590.85 TCPU      544.19
 DIIS TEST: 0.67717E-01 AT SCF   CYCLE   5 - DIIS ACTIVE - HISTORY:     5 CYCLES
 TTTTTTTTTTTTTTTTTTTTTTTTTTTTTT FDIK        TELAPSE      606.67 TCPU      557.72
 INSULATING STATE
 TOP OF VALENCE BANDS -    BAND    228; K    5; EIG -2.4497446E-01 AU
 TOP OF VALENCE BANDS -    BAND    228; K    1; EIG -2.4512468E-01 AU
 BOTTOM OF VIRTUAL BANDS - BAND    229; K    6; EIG -1.1805656E-01 AU
 INDIRECT ENERGY BAND GAP:   3.4536 eV
 BOTTOM OF VIRTUAL BANDS - BAND    229; K    1; EIG -1.1768700E-01 AU
 TTTTTTTTTTTTTTTTTTTTTTTTTTTTTT PDIG        TELAPSE      607.35 TCPU      558.40
 TOTAL ATOMIC CHARGES:
   1.2648421   1.2648421   1.2648421   1.2648421   6.1568330   6.1568330
   6.1568330   6.1568330   5.9025098   5.9025098   5.9025098   5.9025098
   5.7850334   5.7850334   5.7850334   5.7850334   6.0149556   6.0149556
   6.0149556   6.0149556   5.6575551   5.6575551   5.6575551   5.6575551
   5.6447170   5.6447170   5.6447170   5.6447170   7.1716822   7.1716822
   7.1716822   7.1716822   7.0511395   7.0511395   7.0511395   7.0511395
   7.2117339   7.2117339   7.2117339   7.2117339   7.0877082   7.0877082
   7.0877082   7.0877082   7.1059332   7.1059332   7.1059332   7.1059332
   9.1552676   9.1552676   9.1552676   9.1552676   9.1642193   9.1642193
   9.1642193   9.1642193   9.1708644   9.1708644   9.1708644   9.1708644
  28.9066171  28.9134049
 TTTTTTTTTTTTTTTTTTTTTTTTTTTTTT MOQGAD      TELAPSE      607.40 TCPU      558.44
 TTTTTTTTTTTTTTTTTTTTTTTTTTTTTT SHELLXN     TELAPSE      671.80 TCPU      620.42
 TTTTTTTTTTTTTTTTTTTTTTTTTTTTTT MONMO3      TELAPSE      679.63 TCPU      628.22
 NUMERICALLY INTEGRATED DENSITY    456.0001677136
 TTTTTTTTTTTTTTTTTTTTTTTTTTTTTT NUMDFT      TELAPSE      685.55 TCPU      634.12
 CYC   6 ETOT(AU) -6.762619034963E+03 DETOT -3.59E-03 tst  4.41E-05 PX  1.98E-02
 TTTTTTTTTTTTTTTTTTTTTTTTTTTTTT DIIS        TELAPSE      685.99 TCPU      634.55
 DIIS TEST: 0.42577E-01 AT SCF   CYCLE   6 - DIIS ACTIVE - HISTORY:     6 CYCLES
 TTTTTTTTTTTTTTTTTTTTTTTTTTTTTT FDIK        TELAPSE      697.68 TCPU      644.86
 INSULATING STATE
 TOP OF VALENCE BANDS -    BAND    228; K    1; EIG -2.4527686E-01 AU
 BOTTOM OF VIRTUAL BANDS - BAND    229; K    6; EIG -1.1872948E-01 AU
 INDIRECT ENERGY BAND GAP:   3.4435 eV
 BOTTOM OF VIRTUAL BANDS - BAND    229; K    1; EIG -1.1839185E-01 AU
 TTTTTTTTTTTTTTTTTTTTTTTTTTTTTT PDIG        TELAPSE      698.37 TCPU      645.54
 TOTAL ATOMIC CHARGES:
   1.2638228   1.2638228   1.2638228   1.2638228   6.1663484   6.1663484
   6.1663484   6.1663484   5.9076248   5.9076248   5.9076248   5.9076248
   5.7748821   5.7748821   5.7748821   5.7748821   6.0198667   6.0198667
   6.0198667   6.0198667   5.6743531   5.6743531   5.6743531   5.6743531
   5.6320863   5.6320863   5.6320863   5.6320863   7.2085486   7.2085486
   7.2085486   7.2085486   7.0917872   7.0917872   7.0917872   7.0917872
   7.1685697   7.1685697   7.1685697   7.1685697   7.0506882   7.0506882
   7.0506882   7.0506882   7.1102793   7.1102793   7.1102793   7.1102793
   9.1472915   9.1472915   9.1472915   9.1472915   9.1675598   9.1675598
   9.1675598   9.1675598   9.1621371   9.1621371   9.1621371   9.1621371
  28.9085543  28.9080633
 TTTTTTTTTTTTTTTTTTTTTTTTTTTTTT MOQGAD      TELAPSE      698.41 TCPU      645.58
 TTTTTTTTTTTTTTTTTTTTTTTTTTTTTT SHELLXN     TELAPSE      762.66 TCPU      707.27
 TTTTTTTTTTTTTTTTTTTTTTTTTTTTTT MONMO3      TELAPSE      772.91 TCPU      717.48
 NUMERICALLY INTEGRATED DENSITY    456.0001685954
 TTTTTTTTTTTTTTTTTTTTTTTTTTTTTT NUMDFT      TELAPSE      778.80 TCPU      723.35
 CYC   7 ETOT(AU) -6.762623165610E+03 DETOT -4.13E-03 tst  4.36E-05 PX  1.31E-02
 TTTTTTTTTTTTTTTTTTTTTTTTTTTTTT DIIS        TELAPSE      779.01 TCPU      723.56
 DIIS TEST: 0.15433E-01 AT SCF   CYCLE   7 - DIIS ACTIVE - HISTORY:     7 CYCLES
 TTTTTTTTTTTTTTTTTTTTTTTTTTTTTT FDIK        TELAPSE      791.74 TCPU      734.83
 INSULATING STATE
 TOP OF VALENCE BANDS -    BAND    228; K    1; EIG -2.4527407E-01 AU
 BOTTOM OF VIRTUAL BANDS - BAND    229; K    6; EIG -1.1912199E-01 AU
 INDIRECT ENERGY BAND GAP:   3.4328 eV
 BOTTOM OF VIRTUAL BANDS - BAND    229; K    1; EIG -1.1877117E-01 AU
 TTTTTTTTTTTTTTTTTTTTTTTTTTTTTT PDIG        TELAPSE      792.41 TCPU      735.50
 TOTAL ATOMIC CHARGES:
   1.2623821   1.2623821   1.2623821   1.2623821   6.1745777   6.1745777
   6.1745777   6.1745777   5.9049587   5.9049587   5.9049587   5.9049587
   5.7762875   5.7762875   5.7762875   5.7762875   6.0357728   6.0357728
   6.0357728   6.0357728   5.6697656   5.6697656   5.6697656   5.6697656
   5.6290624   5.6290624   5.6290624   5.6290624   7.1826878   7.1826878
   7.1826878   7.1826878   7.0762146   7.0762146   7.0762146   7.0762146
   7.1881943   7.1881943   7.1881943   7.1881943   7.0722965   7.0722965
   7.0722965   7.0722965   7.1046655   7.1046655   7.1046655   7.1046655
   9.1467136   9.1467136   9.1467136   9.1467136   9.1670017   9.1670017
   9.1670017   9.1670017   9.1559277   9.1559277   9.1559277   9.1559277
  28.9061286  28.9078381
 TTTTTTTTTTTTTTTTTTTTTTTTTTTTTT MOQGAD      TELAPSE      792.46 TCPU      735.55
 TTTTTTTTTTTTTTTTTTTTTTTTTTTTTT SHELLXN     TELAPSE      856.93 TCPU      797.37
 TTTTTTTTTTTTTTTTTTTTTTTTTTTTTT MONMO3      TELAPSE      864.74 TCPU      805.16
 NUMERICALLY INTEGRATED DENSITY    456.0001681847
 TTTTTTTTTTTTTTTTTTTTTTTTTTTTTT NUMDFT      TELAPSE      870.77 TCPU      811.17
 CYC   8 ETOT(AU) -6.762625233001E+03 DETOT -2.07E-03 tst  1.29E-05 PX  7.25E-03
 TTTTTTTTTTTTTTTTTTTTTTTTTTTTTT DIIS        TELAPSE      870.99 TCPU      811.39
 DIIS TEST: 0.16865E-02 AT SCF   CYCLE   8 - DIIS ACTIVE - HISTORY:     8 CYCLES
 TTTTTTTTTTTTTTTTTTTTTTTTTTTTTT FDIK        TELAPSE      886.36 TCPU      824.64
 INSULATING STATE
 TOP OF VALENCE BANDS -    BAND    228; K    1; EIG -2.4565741E-01 AU
 BOTTOM OF VIRTUAL BANDS - BAND    229; K    6; EIG -1.1918575E-01 AU
 INDIRECT ENERGY BAND GAP:   3.4415 eV
 BOTTOM OF VIRTUAL BANDS - BAND    229; K    1; EIG -1.1881772E-01 AU
 TTTTTTTTTTTTTTTTTTTTTTTTTTTTTT PDIG        TELAPSE      887.03 TCPU      825.31
 TOTAL ATOMIC CHARGES:
   1.2620666   1.2620666   1.2620666   1.2620666   6.1739391   6.1739391
   6.1739391   6.1739391   5.8986557   5.8986557   5.8986557   5.8986557
   5.7748532   5.7748532   5.7748532   5.7748532   6.0332670   6.0332670
   6.0332670   6.0332670   5.6650239   5.6650239   5.6650239   5.6650239
   5.6317704   5.6317704   5.6317704   5.6317704   7.1923683   7.1923683
   7.1923683   7.1923683   7.0780185   7.0780185   7.0780185   7.0780185
   7.1861949   7.1861949   7.1861949   7.1861949   7.0669791   7.0669791
   7.0669791   7.0669791   7.1066402   7.1066402   7.1066402   7.1066402
   9.1485520   9.1485520   9.1485520   9.1485520   9.1675355   9.1675355
   9.1675355   9.1675355   9.1597586   9.1597586   9.1597586   9.1597586
  28.9079609  28.9095476
 TTTTTTTTTTTTTTTTTTTTTTTTTTTTTT MOQGAD      TELAPSE      887.08 TCPU      825.35
 TTTTTTTTTTTTTTTTTTTTTTTTTTTTTT SHELLXN     TELAPSE      951.11 TCPU      887.08
 TTTTTTTTTTTTTTTTTTTTTTTTTTTTTT MONMO3      TELAPSE      958.50 TCPU      894.45
 NUMERICALLY INTEGRATED DENSITY    456.0001681733
 TTTTTTTTTTTTTTTTTTTTTTTTTTTTTT NUMDFT      TELAPSE      964.46 TCPU      900.39
 CYC   9 ETOT(AU) -6.762625487289E+03 DETOT -2.54E-04 tst  8.05E-07 PX  2.67E-03
 TTTTTTTTTTTTTTTTTTTTTTTTTTTTTT DIIS        TELAPSE      964.79 TCPU      900.71
 DIIS TEST: 0.20750E-03 AT SCF   CYCLE   9 - DIIS ACTIVE - HISTORY:     9 CYCLES
 TTTTTTTTTTTTTTTTTTTTTTTTTTTTTT FDIK        TELAPSE      978.24 TCPU      911.71
 INSULATING STATE
 TOP OF VALENCE BANDS -    BAND    228; K    1; EIG -2.4550321E-01 AU
 BOTTOM OF VIRTUAL BANDS - BAND    229; K    6; EIG -1.1906392E-01 AU
 INDIRECT ENERGY BAND GAP:   3.4406 eV
 BOTTOM OF VIRTUAL BANDS - BAND    229; K    1; EIG -1.1870560E-01 AU
 TTTTTTTTTTTTTTTTTTTTTTTTTTTTTT PDIG        TELAPSE      978.91 TCPU      912.38
 TOTAL ATOMIC CHARGES:
   1.2626829   1.2626829   1.2626829   1.2626829   6.1722004   6.1722004
   6.1722004   6.1722004   5.9047033   5.9047033   5.9047033   5.9047033
   5.7750775   5.7750775   5.7750775   5.7750775   6.0290321   6.0290321
   6.0290321   6.0290321   5.6699506   5.6699506   5.6699506   5.6699506
   5.6293587   5.6293587   5.6293587   5.6293587   7.1874985   7.1874985
   7.1874985   7.1874985   7.0776899   7.0776899   7.0776899   7.0776899
   7.1859118   7.1859118   7.1859118   7.1859118   7.0685974   7.0685974
   7.0685974   7.0685974   7.1095664   7.1095664   7.1095664   7.1095664
   9.1481359   9.1481359   9.1481359   9.1481359   9.1661807   9.1661807
   9.1661807   9.1661807   9.1596859   9.1596859   9.1596859   9.1596859
  28.9067635  28.9081484
 TTTTTTTTTTTTTTTTTTTTTTTTTTTTTT MOQGAD      TELAPSE      978.96 TCPU      912.43
 TTTTTTTTTTTTTTTTTTTTTTTTTTTTTT SHELLXN     TELAPSE     1041.44 TCPU      974.36
 TTTTTTTTTTTTTTTTTTTTTTTTTTTTTT MONMO3      TELAPSE     1048.48 TCPU      981.38
 NUMERICALLY INTEGRATED DENSITY    456.0001681487
 TTTTTTTTTTTTTTTTTTTTTTTTTTTTTT NUMDFT      TELAPSE     1054.43 TCPU      987.32
 CYC  10 ETOT(AU) -6.762625491660E+03 DETOT -4.37E-06 tst  3.38E-07 PX  1.48E-03
 TTTTTTTTTTTTTTTTTTTTTTTTTTTTTT DIIS        TELAPSE     1054.85 TCPU      987.73
 DIIS TEST: 0.19750E-03 AT SCF   CYCLE  10 - DIIS ACTIVE - HISTORY:    10 CYCLES
 TTTTTTTTTTTTTTTTTTTTTTTTTTTTTT FDIK        TELAPSE     1069.08 TCPU      999.29
 INSULATING STATE
 TOP OF VALENCE BANDS -    BAND    228; K    1; EIG -2.4549784E-01 AU
 BOTTOM OF VIRTUAL BANDS - BAND    229; K    6; EIG -1.1907551E-01 AU
 INDIRECT ENERGY BAND GAP:   3.4401 eV
 BOTTOM OF VIRTUAL BANDS - BAND    229; K    1; EIG -1.1871856E-01 AU
 TTTTTTTTTTTTTTTTTTTTTTTTTTTTTT PDIG        TELAPSE     1069.76 TCPU      999.97
 TOTAL ATOMIC CHARGES:
   1.2624551   1.2624551   1.2624551   1.2624551   6.1714018   6.1714018
   6.1714018   6.1714018   5.9022565   5.9022565   5.9022565   5.9022565
   5.7755406   5.7755406   5.7755406   5.7755406   6.0320913   6.0320913
   6.0320913   6.0320913   5.6678409   5.6678409   5.6678409   5.6678409
   5.6309928   5.6309928   5.6309928   5.6309928   7.1897384   7.1897384
   7.1897384   7.1897384   7.0781271   7.0781271   7.0781271   7.0781271
   7.1859574   7.1859574   7.1859574   7.1859574   7.0682388   7.0682388
   7.0682388   7.0682388   7.1072473   7.1072473   7.1072473   7.1072473
   9.1481380   9.1481380   9.1481380   9.1481380   9.1669458   9.1669458
   9.1669458   9.1669458   9.1591972   9.1591972   9.1591972   9.1591972
  28.9068892  28.9084346
 TTTTTTTTTTTTTTTTTTTTTTTTTTTTTT MOQGAD      TELAPSE     1069.81 TCPU     1000.01
 TTTTTTTTTTTTTTTTTTTTTTTTTTTTTT SHELLXN     TELAPSE     1134.56 TCPU     1061.74
 TTTTTTTTTTTTTTTTTTTTTTTTTTTTTT MONMO3      TELAPSE     1142.01 TCPU     1069.17
 NUMERICALLY INTEGRATED DENSITY    456.0001681479
 TTTTTTTTTTTTTTTTTTTTTTTTTTTTTT NUMDFT      TELAPSE     1147.95 TCPU     1075.09
 CYC  11 ETOT(AU) -6.762625520382E+03 DETOT -2.87E-05 tst  1.05E-07 PX  8.69E-04
 TTTTTTTTTTTTTTTTTTTTTTTTTTTTTT DIIS        TELAPSE     1148.27 TCPU     1075.41
 DIIS TEST: 0.12751E-04 AT SCF   CYCLE  11 - DIIS ACTIVE - HISTORY:    11 CYCLES
 TTTTTTTTTTTTTTTTTTTTTTTTTTTTTT FDIK        TELAPSE     1164.35 TCPU     1086.77
 INSULATING STATE
 TOP OF VALENCE BANDS -    BAND    228; K    1; EIG -2.4551961E-01 AU
 BOTTOM OF VIRTUAL BANDS - BAND    229; K    6; EIG -1.1909605E-01 AU
 INDIRECT ENERGY BAND GAP:   3.4402 eV
 BOTTOM OF VIRTUAL BANDS - BAND    229; K    1; EIG -1.1873620E-01 AU
 TTTTTTTTTTTTTTTTTTTTTTTTTTTTTT PDIG        TELAPSE     1165.02 TCPU     1087.43
 TOTAL ATOMIC CHARGES:
   1.2623958   1.2623958   1.2623958   1.2623958   6.1728428   6.1728428
   6.1728428   6.1728428   5.9017980   5.9017980   5.9017980   5.9017980
   5.7749460   5.7749460   5.7749460   5.7749460   6.0315698   6.0315698
   6.0315698   6.0315698   5.6674288   5.6674288   5.6674288   5.6674288
   5.6305564   5.6305564   5.6305564   5.6305564   7.1899173   7.1899173
   7.1899173   7.1899173   7.0777250   7.0777250   7.0777250   7.0777250
   7.1862213   7.1862213   7.1862213   7.1862213   7.0679653   7.0679653
   7.0679653   7.0679653   7.1079259   7.1079259   7.1079259   7.1079259
   9.1482586   9.1482586   9.1482586   9.1482586   9.1668989   9.1668989
   9.1668989   9.1668989   9.1594833   9.1594833   9.1594833   9.1594833
  28.9073670  28.9089007
 TTTTTTTTTTTTTTTTTTTTTTTTTTTTTT MOQGAD      TELAPSE     1165.07 TCPU     1087.48
 TTTTTTTTTTTTTTTTTTTTTTTTTTTTTT SHELLXN     TELAPSE     1228.47 TCPU     1149.21
 TTTTTTTTTTTTTTTTTTTTTTTTTTTTTT MONMO3      TELAPSE     1236.31 TCPU     1157.03
 NUMERICALLY INTEGRATED DENSITY    456.0001681799
 TTTTTTTTTTTTTTTTTTTTTTTTTTTTTT NUMDFT      TELAPSE     1242.26 TCPU     1162.96
 CYC  12 ETOT(AU) -6.762625522162E+03 DETOT -1.78E-06 tst  7.56E-09 PX  4.10E-04
 TTTTTTTTTTTTTTTTTTTTTTTTTTTTTT DIIS        TELAPSE     1242.58 TCPU     1163.28
 DIIS TEST: 0.30326E-05 AT SCF   CYCLE  12 - DIIS ACTIVE - HISTORY:    12 CYCLES
 TTTTTTTTTTTTTTTTTTTTTTTTTTTTTT FDIK        TELAPSE     1256.78 TCPU     1175.01
 INSULATING STATE
 TOP OF VALENCE BANDS -    BAND    228; K    1; EIG -2.4553475E-01 AU
 BOTTOM OF VIRTUAL BANDS - BAND    229; K    6; EIG -1.1909039E-01 AU
 INDIRECT ENERGY BAND GAP:   3.4407 eV
 BOTTOM OF VIRTUAL BANDS - BAND    229; K    1; EIG -1.1872937E-01 AU
 TTTTTTTTTTTTTTTTTTTTTTTTTTTTTT PDIG        TELAPSE     1257.45 TCPU     1175.69
 TOTAL ATOMIC CHARGES:
   1.2623921   1.2623921   1.2623921   1.2623921   6.1723173   6.1723173
   6.1723173   6.1723173   5.9020079   5.9020079   5.9020079   5.9020079
   5.7752166   5.7752166   5.7752166   5.7752166   6.0315910   6.0315910
   6.0315910   6.0315910   5.6677291   5.6677291   5.6677291   5.6677291
   5.6307474   5.6307474   5.6307474   5.6307474   7.1896326   7.1896326
   7.1896326   7.1896326   7.0780399   7.0780399   7.0780399   7.0780399
   7.1859096   7.1859096   7.1859096   7.1859096   7.0681186   7.0681186
   7.0681186   7.0681186   7.1076745   7.1076745   7.1076745   7.1076745
   9.1482760   9.1482760   9.1482760   9.1482760   9.1669123   9.1669123
   9.1669123   9.1669123   9.1594655   9.1594655   9.1594655   9.1594655
  28.9071577  28.9087211
 TTTTTTTTTTTTTTTTTTTTTTTTTTTTTT MOQGAD      TELAPSE     1257.50 TCPU     1175.73
 TTTTTTTTTTTTTTTTTTTTTTTTTTTTTT SHELLXN     TELAPSE     1322.66 TCPU     1237.56
 TTTTTTTTTTTTTTTTTTTTTTTTTTTTTT MONMO3      TELAPSE     1329.10 TCPU     1243.98
 NUMERICALLY INTEGRATED DENSITY    456.0001681672
 TTTTTTTTTTTTTTTTTTTTTTTTTTTTTT NUMDFT      TELAPSE     1335.02 TCPU     1249.89
 CYC  13 ETOT(AU) -6.762625522481E+03 DETOT -3.19E-07 tst  2.42E-09 PX  1.80E-04
 TTTTTTTTTTTTTTTTTTTTTTTTTTTTTT DIIS        TELAPSE     1335.22 TCPU     1250.09
 DIIS TEST: 0.11353E-05 AT SCF   CYCLE  13 - DIIS ACTIVE - HISTORY:    13 CYCLES
 TTTTTTTTTTTTTTTTTTTTTTTTTTTTTT FDIK        TELAPSE     1349.44 TCPU     1261.90
 INSULATING STATE
 TOP OF VALENCE BANDS -    BAND    228; K    1; EIG -2.4552143E-01 AU
 BOTTOM OF VIRTUAL BANDS - BAND    229; K    6; EIG -1.1909254E-01 AU
 INDIRECT ENERGY BAND GAP:   3.4403 eV
 BOTTOM OF VIRTUAL BANDS - BAND    229; K    1; EIG -1.1873309E-01 AU
 TTTTTTTTTTTTTTTTTTTTTTTTTTTTTT PDIG        TELAPSE     1350.11 TCPU     1262.57
 TOTAL ATOMIC CHARGES:
[...]
 THE NUMBER OF SYMMETRY OPERATORS HAS BEEN REDUCED FROM  4 TO  2

 NEW GRID IN RECIPROCAL SPACE
 *******************************************************************************
 POINTS IN THE IBZ                  10 SHRINKING FACTORS               3  3  3
 *******************************************************************************
 *** K POINTS COORDINATES (OBLIQUE COORDINATES IN UNITS OF SHRINK FAC. )
   1-R(  0  0  0)   2-C(  1  0  0)   3-C(  2  0  1)   4-C(  1  1  0)
   5-C(  1  0  1)   6-C(  2  1  0)   7-C(  0  0  2)   8-C(  2  1  1)
   9-C(  2  1  2)  10-C(  2  2  1)

 GCALCO - MAX INDICES DIRECT LATTICE VECTOR    14    14    16
 NO.OF VECTORS CREATED 6999 STARS  484 RMAX   200.78925 BOHR
 TTTTTTTTTTTTTTTTTTTTTTTTTTTTTT gordsh1     TELAPSE   217461.09 TCPU   215131.43

 MATRIX SIZE: P(G) 1749428, F(G)  875338, P(G) IRR  440928, F(G) IRR  440928
 MAX G-VECTOR INDEX FOR 1- AND 2-ELECTRON INTEGRALS  59

 TTTTTTTTTTTTTTTTTTTTTTTTTTTTTT INPUT       TELAPSE   217461.19 TCPU   215131.53
 TTTTTTTTTTTTTTTTTTTTTTTTTTTTTT SYMM        TELAPSE   217461.19 TCPU   215131.53

 ***** NEW REFERENCE GEOMETRY *****
 TTTTTTTTTTTTTTTTTTTTTTTTTTTTTT INT_SCREEN  TELAPSE   217461.20 TCPU   215131.54
 INFORMATION **** EXCBUF **** EXCH. BIPO BUFFER: WORDS USED =           0

 DFT PARAMETERS

     ATOM       ELECTRONS   NET CHARGE   R(ANGSTROM)
   1   1  H       1.0000      0.0000     1.11000000
   5   6  C       6.0000      0.0000     0.77000000
  29   7  N       7.0000      0.0000     0.74000000
  49   9  F       9.0000      0.0000     0.72000000
  61  30  ZN     30.0000      0.0000     1.37000000

 SIZE OF GRID=     987490
 TTTTTTTTTTTTTTTTTTTTTTTTTTTTTT MAKE_GRID2  TELAPSE   217462.51 TCPU   215132.85
 BECKE WEIGHT FUNCTION
 RADSAFE =     2.00
 TOLERANCES - DENSITY:10**- 6; POTENTIAL:10**- 9; GRID WGT:10**-14

 RADIAL INTEGRATION  - INTERVALS (POINTS,UPPER LIMIT):            1( 75,  4.0*R)

 ANGULAR INTEGRATION - INTERVALS (ACCURACY LEVEL [N. POINTS] UPPER LIMIT):
  1(  4[  86]   0.2)  2(  8[ 194]   0.5)  3( 12[ 350]   0.9)  4( 16[ 974]   3.5)
  5( 12[ 350]9999.0)
 TTTTTTTTTTTTTTTTTTTTTTTTTTTTTT INT_CALC    TELAPSE   217462.57 TCPU   215132.91
 CYCLE   0   ALPHA  558.286681  EPSILON    2.462519  DELTA    5.5829E+02
 TTTTTTTTTTTTTTTTTTTTTTTTTTTTTT MOQGAD      TELAPSE   218085.09 TCPU   215752.89
 TTTTTTTTTTTTTTTTTTTTTTTTTTTTTT CP_MONMON   TELAPSE   218100.46 TCPU   215768.21
 DIIS TEST: 0.93383E+02 AT CPHF  CYCLE   1 - MIX    0 %
 CYCLE   1   ALPHA  220.000771  EPSILON    1.576326  DELTA   -3.3829E+02
 TTTTTTTTTTTTTTTTTTTTTTTTTTTTTT MOQGAD      TELAPSE   218721.62 TCPU   216381.93
 TTTTTTTTTTTTTTTTTTTTTTTTTTTTTT CP_MONMON   TELAPSE   218737.04 TCPU   216397.28
 DIIS TEST: 0.68225E+03 AT CPHF  CYCLE   2 - DIIS ACTIVE - HISTORY:     2 CYCLES
 CYCLE   2   ALPHA  400.057673  EPSILON    2.048014  DELTA    1.8006E+02
 TTTTTTTTTTTTTTTTTTTTTTTTTTTTTT MOQGAD      TELAPSE   219345.45 TCPU   217001.03
 TTTTTTTTTTTTTTTTTTTTTTTTTTTTTT CP_MONMON   TELAPSE   219360.99 TCPU   217016.52
 DIIS TEST: 0.15732E+02 AT CPHF  CYCLE   3 - DIIS ACTIVE - HISTORY:     3 CYCLES
 CYCLE   3   ALPHA  423.635207  EPSILON    2.109779  DELTA    2.3578E+01
 TTTTTTTTTTTTTTTTTTTTTTTTTTTTTT MOQGAD      TELAPSE   219975.01 TCPU   217625.82
 TTTTTTTTTTTTTTTTTTTTTTTTTTTTTT CP_MONMON   TELAPSE   219990.35 TCPU   217641.12
 DIIS TEST: 0.50293E+01 AT CPHF  CYCLE   4 - DIIS ACTIVE - HISTORY:     4 CYCLES
 CYCLE   4   ALPHA  425.705277  EPSILON    2.115202  DELTA    2.0701E+00
 TTTTTTTTTTTTTTTTTTTTTTTTTTTTTT MOQGAD      TELAPSE   220608.68 TCPU   218245.02
 TTTTTTTTTTTTTTTTTTTTTTTTTTTTTT CP_MONMON   TELAPSE   220624.10 TCPU   218260.40
 DIIS TEST: 0.13732E+00 AT CPHF  CYCLE   5 - DIIS ACTIVE - HISTORY:     5 CYCLES
 CYCLE   5   ALPHA  426.268384  EPSILON    2.116677  DELTA    5.6311E-01
 TTTTTTTTTTTTTTTTTTTTTTTTTTTTTT MOQGAD      TELAPSE   221246.89 TCPU   218875.00
 TTTTTTTTTTTTTTTTTTTTTTTTTTTTTT CP_MONMON   TELAPSE   221262.37 TCPU   218890.41
 DIIS TEST: 0.42958E-01 AT CPHF  CYCLE   6 - DIIS ACTIVE - HISTORY:     6 CYCLES
 CYCLE   6   ALPHA  426.456447  EPSILON    2.117169  DELTA    1.8806E-01
 TTTTTTTTTTTTTTTTTTTTTTTTTTTTTT MOQGAD      TELAPSE   221891.03 TCPU   219503.49
 TTTTTTTTTTTTTTTTTTTTTTTTTTTTTT CP_MONMON   TELAPSE   221906.51 TCPU   219518.93
 DIIS TEST: 0.29596E-01 AT CPHF  CYCLE   7 - DIIS ACTIVE - HISTORY:     7 CYCLES
 CYCLE   7   ALPHA  426.490616  EPSILON    2.117259  DELTA    3.4169E-02
 TTTTTTTTTTTTTTTTTTTTTTTTTTTTTT MOQGAD      TELAPSE   222519.42 TCPU   220114.84
 TTTTTTTTTTTTTTTTTTTTTTTTTTTTTT CP_MONMON   TELAPSE   222534.77 TCPU   220130.15
 DIIS TEST: 0.11550E-02 AT CPHF  CYCLE   8 - DIIS ACTIVE - HISTORY:     8 CYCLES
 CYCLE   8   ALPHA  426.490286  EPSILON    2.117258  DELTA   -3.3050E-04
 TTTTTTTTTTTTTTTTTTTTTTTTTTTTTT CP_SC       TELAPSE   222598.69 TCPU   220183.49

 *******************************************************************************

 POLARIZABILITY (ALPHA), DIELECTRIC (EPSILON) AND FIRST-ORDER ELECTRIC
 SUSCEPTIBILITY (CHI(1)) TENSORS (INDEPENDENT COMPONENTS)

  FR.(eV) COMP.   ALPHA(Re,Im)           EPSILON(Re,Im)                CHI(1)
  1.435   XX     824.2534       0.0000       3.1593       0.0000       2.1593
  1.435   ZZ     426.4903       0.0000       2.1173       0.0000       1.1173

 DIELECTRIC TENSOR

 TENSOR IN PRINCIPAL AXES SYSTEM
 AA  3.159261E+00 BB  3.159261E+00 CC  2.117258E+00

 REFRACTIVE INDICES 
 AA  1.455080E+00 BB  1.777431E+00 CC  1.777431E+00

 OPTICALLY ANISOTROPIC - UNIAXIAL CRYSTAL

 BIREFRINGENCE =  0.3224 (NEGATIVE) - OBLATE OPTICAL ELLIPSOID

 EPSILON=N**2=1+CHI(1)=1+ALPHA*4*PI/V,   4*PI/V=   0.00262 BOHR**(-3)
 ALPHA IN BOHR**3; EPSILON AND CHI(1) ARE DIMENSIONLESS.
 *******************************************************************************

 DYNAMIC FIELD: RUN 10/ 10 - RADIATION WAVELENGTH: 1064.0000 NM

 *******************************************************************************

 ELECTRIC FIELD APPLIED ALONG CARTESIAN DIRECTION X

 *******************************************************************************
 THE NUMBER OF SYMMETRY OPERATORS HAS BEEN REDUCED FROM  4 TO  1

 NEW GRID IN RECIPROCAL SPACE
 *******************************************************************************
 POINTS IN THE IBZ                  14 SHRINKING FACTORS               3  3  3
 *******************************************************************************
 *** K POINTS COORDINATES (OBLIQUE COORDINATES IN UNITS OF SHRINK FAC. )
   1-R(  0  0  0)   2-C(  1  0  0)   3-C(  0  1  2)   4-C(  2  0  1)
   5-C(  0  2  0)   6-C(  1  1  0)   7-C(  1  1  1)   8-C(  1  0  1)
   9-C(  0  1  1)  10-C(  2  1  0)  11-C(  0  0  2)  12-C(  2  1  1)
  13-C(  2  1  2)  14-C(  2  2  1)

 GCALCO - MAX INDICES DIRECT LATTICE VECTOR    14    14    16
 NO.OF VECTORS CREATED 6999 STARS  484 RMAX   200.78925 BOHR
 TTTTTTTTTTTTTTTTTTTTTTTTTTTTTT gordsh1     TELAPSE   222598.71 TCPU   220183.50

 MATRIX SIZE: P(G) 1749428, F(G)  875338, P(G) IRR  876904, F(G) IRR  876904
 MAX G-VECTOR INDEX FOR 1- AND 2-ELECTRON INTEGRALS  59

 TTTTTTTTTTTTTTTTTTTTTTTTTTTTTT INPUT       TELAPSE   222599.07 TCPU   220183.86
 TTTTTTTTTTTTTTTTTTTTTTTTTTTTTT SYMM        TELAPSE   222599.07 TCPU   220183.86

 ***** NEW REFERENCE GEOMETRY *****
 TTTTTTTTTTTTTTTTTTTTTTTTTTTTTT INT_SCREEN  TELAPSE   222599.09 TCPU   220183.88
 INFORMATION **** EXCBUF **** EXCH. BIPO BUFFER: WORDS USED =           0

 DFT PARAMETERS

     ATOM       ELECTRONS   NET CHARGE   R(ANGSTROM)
   1   1  H       1.0000      0.0000     1.11000000
   5   6  C       6.0000      0.0000     0.77000000
  29   7  N       7.0000      0.0000     0.74000000
  49   9  F       9.0000      0.0000     0.72000000
  61  30  ZN     30.0000      0.0000     1.37000000

 SIZE OF GRID=    1974746
 TTTTTTTTTTTTTTTTTTTTTTTTTTTTTT MAKE_GRID2  TELAPSE   222601.22 TCPU   220186.00
 BECKE WEIGHT FUNCTION
 RADSAFE =     2.00
 TOLERANCES - DENSITY:10**- 6; POTENTIAL:10**- 9; GRID WGT:10**-14

 RADIAL INTEGRATION  - INTERVALS (POINTS,UPPER LIMIT):            1( 75,  4.0*R)

 ANGULAR INTEGRATION - INTERVALS (ACCURACY LEVEL [N. POINTS] UPPER LIMIT):
  1(  4[  86]   0.2)  2(  8[ 194]   0.5)  3( 12[ 350]   0.9)  4( 16[ 974]   3.5)
  5( 12[ 350]9999.0)
 TTTTTTTTTTTTTTTTTTTTTTTTTTTTTT INT_CALC    TELAPSE   222601.32 TCPU   220186.10
 CYCLE   0   ALPHA 1192.791815  EPSILON    4.124705  DELTA    1.1928E+03
 TTTTTTTTTTTTTTTTTTTTTTTTTTTTTT MOQGAD      TELAPSE   223786.23 TCPU   221358.06
 TTTTTTTTTTTTTTTTTTTTTTTTTTTTTT CP_MONMON   TELAPSE   223814.89 TCPU   221386.46
 DIIS TEST: 0.36536E+03 AT CPHF  CYCLE   1 - MIX    0 %
 CYCLE   1   ALPHA  -21.700957  EPSILON    0.943151  DELTA   -1.2145E+03
 TTTTTTTTTTTTTTTTTTTTTTTTTTTTTT MOQGAD      TELAPSE   224995.79 TCPU   222555.60
 TTTTTTTTTTTTTTTTTTTTTTTTTTTTTT CP_MONMON   TELAPSE   225027.19 TCPU   222584.08
 DIIS TEST: 0.27941E+04 AT CPHF  CYCLE   2 - DIIS ACTIVE - HISTORY:     2 CYCLES
 CYCLE   2   ALPHA  760.947159  EPSILON    2.993420  DELTA    7.8265E+02
 TTTTTTTTTTTTTTTTTTTTTTTTTTTTTT MOQGAD      TELAPSE   226207.66 TCPU   223755.27
 TTTTTTTTTTTTTTTTTTTTTTTTTTTTTT CP_MONMON   TELAPSE   226236.09 TCPU   223783.62
 DIIS TEST: 0.54651E+02 AT CPHF  CYCLE   3 - DIIS ACTIVE - HISTORY:     3 CYCLES
 CYCLE   3   ALPHA  795.142104  EPSILON    3.082999  DELTA    3.4195E+01
 TTTTTTTTTTTTTTTTTTTTTTTTTTTTTT MOQGAD      TELAPSE   227407.18 TCPU   224948.36
 TTTTTTTTTTTTTTTTTTTTTTTTTTTTTT CP_MONMON   TELAPSE   227435.86 TCPU   224976.96
 DIIS TEST: 0.34312E+01 AT CPHF  CYCLE   4 - DIIS ACTIVE - HISTORY:     4 CYCLES
 CYCLE   4   ALPHA  805.224605  EPSILON    3.109412  DELTA    1.0083E+01
 TTTTTTTTTTTTTTTTTTTTTTTTTTTTTT MOQGAD      TELAPSE   228608.12 TCPU   226129.90
 TTTTTTTTTTTTTTTTTTTTTTTTTTTTTT CP_MONMON   TELAPSE   228636.56 TCPU   226158.25
 DIIS TEST: 0.11507E+01 AT CPHF  CYCLE   5 - DIIS ACTIVE - HISTORY:     5 CYCLES
 CYCLE   5   ALPHA  811.106993  EPSILON    3.124822  DELTA    5.8824E+00
 TTTTTTTTTTTTTTTTTTTTTTTTTTTTTT MOQGAD      TELAPSE   229817.37 TCPU   227329.23
 TTTTTTTTTTTTTTTTTTTTTTTTTTTTTT CP_MONMON   TELAPSE   229846.05 TCPU   227357.83
 DIIS TEST: 0.81045E-01 AT CPHF  CYCLE   6 - DIIS ACTIVE - HISTORY:     6 CYCLES
 CYCLE   6   ALPHA  812.603176  EPSILON    3.128741  DELTA    1.4962E+00
 TTTTTTTTTTTTTTTTTTTTTTTTTTTTTT MOQGAD      TELAPSE   231017.96 TCPU   228519.67
 TTTTTTTTTTTTTTTTTTTTTTTTTTTTTT CP_MONMON   TELAPSE   231046.63 TCPU   228548.20
 DIIS TEST: 0.80872E-02 AT CPHF  CYCLE   7 - DIIS ACTIVE - HISTORY:     7 CYCLES
 CYCLE   7   ALPHA  812.769428  EPSILON    3.129177  DELTA    1.6625E-01
 TTTTTTTTTTTTTTTTTTTTTTTTTTTTTT MOQGAD      TELAPSE   232218.22 TCPU   229697.53
 TTTTTTTTTTTTTTTTTTTTTTTTTTTTTT CP_MONMON   TELAPSE   232246.73 TCPU   229725.96
 DIIS TEST: 0.83654E-03 AT CPHF  CYCLE   8 - DIIS ACTIVE - HISTORY:     8 CYCLES
 CYCLE   8   ALPHA  812.824706  EPSILON    3.129321  DELTA    5.5278E-02
 TTTTTTTTTTTTTTTTTTTTTTTTTTTTTT MOQGAD      TELAPSE   233428.94 TCPU   230900.97
 TTTTTTTTTTTTTTTTTTTTTTTTTTTTTT CP_MONMON   TELAPSE   233457.35 TCPU   230929.27
 DIIS TEST: 0.12153E-03 AT CPHF  CYCLE   9 - DIIS ACTIVE - HISTORY:     9 CYCLES
 CYCLE   9   ALPHA  812.818979  EPSILON    3.129306  DELTA   -5.7268E-03
 TTTTTTTTTTTTTTTTTTTTTTTTTTTTTT MOQGAD      TELAPSE   234632.29 TCPU   232095.83
 TTTTTTTTTTTTTTTTTTTTTTTTTTTTTT CP_MONMON   TELAPSE   234670.02 TCPU   232131.09
 DIIS TEST: 0.11897E-04 AT CPHF  CYCLE  10 - DIIS ACTIVE - HISTORY:    10 CYCLES
 CYCLE  10   ALPHA  812.805891  EPSILON    3.129272  DELTA   -1.3088E-02
 TTTTTTTTTTTTTTTTTTTTTTTTTTTTTT MOQGAD      TELAPSE   235855.91 TCPU   233310.54
 TTTTTTTTTTTTTTTTTTTTTTTTTTTTTT CP_MONMON   TELAPSE   235884.34 TCPU   233338.82
 DIIS TEST: 0.18544E-05 AT CPHF  CYCLE  11 - DIIS ACTIVE - HISTORY:    11 CYCLES
 CYCLE  11   ALPHA  812.799685  EPSILON    3.129256  DELTA   -6.2066E-03
 TTTTTTTTTTTTTTTTTTTTTTTTTTTTTT MOQGAD      TELAPSE   237057.86 TCPU   234502.68
 TTTTTTTTTTTTTTTTTTTTTTTTTTTTTT CP_MONMON   TELAPSE   237086.40 TCPU   234531.15
 DIIS TEST: 0.23957E-06 AT CPHF  CYCLE  12 - DIIS ACTIVE - HISTORY:    12 CYCLES
 CYCLE  12   ALPHA  812.798659  EPSILON    3.129253  DELTA   -1.0256E-03
 TTTTTTTTTTTTTTTTTTTTTTTTTTTTTT MOQGAD      TELAPSE   238259.08 TCPU   235691.74
 TTTTTTTTTTTTTTTTTTTTTTTTTTTTTT CP_MONMON   TELAPSE   238287.51 TCPU   235720.06
 DIIS TEST: 0.34842E-07 AT CPHF  CYCLE  13 - DIIS ACTIVE - HISTORY:    13 CYCLES
 CYCLE  13   ALPHA  812.798315  EPSILON    3.129252  DELTA   -3.4439E-04
 TTTTTTTTTTTTTTTTTTTTTTTTTTTTTT CP_SC       TELAPSE   238379.77 TCPU   235776.65

 *******************************************************************************

 ELECTRIC FIELD APPLIED ALONG CARTESIAN DIRECTION Z

 *******************************************************************************
 THE NUMBER OF SYMMETRY OPERATORS HAS BEEN REDUCED FROM  4 TO  2

 NEW GRID IN RECIPROCAL SPACE
 *******************************************************************************
 POINTS IN THE IBZ                  10 SHRINKING FACTORS               3  3  3
 *******************************************************************************
 *** K POINTS COORDINATES (OBLIQUE COORDINATES IN UNITS OF SHRINK FAC. )
   1-R(  0  0  0)   2-C(  1  0  0)   3-C(  2  0  1)   4-C(  1  1  0)
   5-C(  1  0  1)   6-C(  2  1  0)   7-C(  0  0  2)   8-C(  2  1  1)
   9-C(  2  1  2)  10-C(  2  2  1)

 GCALCO - MAX INDICES DIRECT LATTICE VECTOR    14    14    16
 NO.OF VECTORS CREATED 6999 STARS  484 RMAX   200.78925 BOHR
 TTTTTTTTTTTTTTTTTTTTTTTTTTTTTT gordsh1     TELAPSE   238379.78 TCPU   235776.66

 MATRIX SIZE: P(G) 1749428, F(G)  875338, P(G) IRR  440928, F(G) IRR  440928
 MAX G-VECTOR INDEX FOR 1- AND 2-ELECTRON INTEGRALS  59

 TTTTTTTTTTTTTTTTTTTTTTTTTTTTTT INPUT       TELAPSE   238379.89 TCPU   235776.77
 TTTTTTTTTTTTTTTTTTTTTTTTTTTTTT SYMM        TELAPSE   238379.89 TCPU   235776.77

 ***** NEW REFERENCE GEOMETRY *****
 TTTTTTTTTTTTTTTTTTTTTTTTTTTTTT INT_SCREEN  TELAPSE   238379.90 TCPU   235776.78
 INFORMATION **** EXCBUF **** EXCH. BIPO BUFFER: WORDS USED =           0

 DFT PARAMETERS

     ATOM       ELECTRONS   NET CHARGE   R(ANGSTROM)
   1   1  H       1.0000      0.0000     1.11000000
   5   6  C       6.0000      0.0000     0.77000000
  29   7  N       7.0000      0.0000     0.74000000
  49   9  F       9.0000      0.0000     0.72000000
  61  30  ZN     30.0000      0.0000     1.37000000

 SIZE OF GRID=     987490
 TTTTTTTTTTTTTTTTTTTTTTTTTTTTTT MAKE_GRID2  TELAPSE   238381.21 TCPU   235778.08
 BECKE WEIGHT FUNCTION
 RADSAFE =     2.00
 TOLERANCES - DENSITY:10**- 6; POTENTIAL:10**- 9; GRID WGT:10**-14

 RADIAL INTEGRATION  - INTERVALS (POINTS,UPPER LIMIT):            1( 75,  4.0*R)

 ANGULAR INTEGRATION - INTERVALS (ACCURACY LEVEL [N. POINTS] UPPER LIMIT):
  1(  4[  86]   0.2)  2(  8[ 194]   0.5)  3( 12[ 350]   0.9)  4( 16[ 974]   3.5)
  5( 12[ 350]9999.0)
 TTTTTTTTTTTTTTTTTTTTTTTTTTTTTT INT_CALC    TELAPSE   238381.28 TCPU   235778.15
 CYCLE   0   ALPHA  552.919238  EPSILON    2.448458  DELTA    5.5292E+02
 TTTTTTTTTTTTTTTTTTTTTTTTTTTTTT MOQGAD      TELAPSE   239034.30 TCPU   236404.97
 TTTTTTTTTTTTTTTTTTTTTTTTTTTTTT CP_MONMON   TELAPSE   239049.69 TCPU   236420.28
 DIIS TEST: 0.90342E+02 AT CPHF  CYCLE   1 - MIX    0 %
 CYCLE   1   ALPHA  224.398685  EPSILON    1.587847  DELTA   -3.2852E+02
 TTTTTTTTTTTTTTTTTTTTTTTTTTTTTT MOQGAD      TELAPSE   239699.58 TCPU   237044.06
 TTTTTTTTTTTTTTTTTTTTTTTTTTTTTT CP_MONMON   TELAPSE   239714.98 TCPU   237059.38
 DIIS TEST: 0.63704E+03 AT CPHF  CYCLE   2 - DIIS ACTIVE - HISTORY:     2 CYCLES
 CYCLE   2   ALPHA  397.704568  EPSILON    2.041849  DELTA    1.7331E+02
 TTTTTTTTTTTTTTTTTTTTTTTTTTTTTT MOQGAD      TELAPSE   240337.58 TCPU   237679.42
 TTTTTTTTTTTTTTTTTTTTTTTTTTTTTT CP_MONMON   TELAPSE   240352.86 TCPU   237694.62
 DIIS TEST: 0.15402E+02 AT CPHF  CYCLE   3 - DIIS ACTIVE - HISTORY:     3 CYCLES
 CYCLE   3   ALPHA  420.651232  EPSILON    2.101962  DELTA    2.2947E+01
 TTTTTTTTTTTTTTTTTTTTTTTTTTTTTT MOQGAD      TELAPSE   240966.61 TCPU   238299.09
 TTTTTTTTTTTTTTTTTTTTTTTTTTTTTT CP_MONMON   TELAPSE   240981.88 TCPU   238314.27
 DIIS TEST: 0.46711E+01 AT CPHF  CYCLE   4 - DIIS ACTIVE - HISTORY:     4 CYCLES
 CYCLE   4   ALPHA  422.672720  EPSILON    2.107257  DELTA    2.0215E+00
 TTTTTTTTTTTTTTTTTTTTTTTTTTTTTT MOQGAD      TELAPSE   241592.32 TCPU   238921.92
 TTTTTTTTTTTTTTTTTTTTTTTTTTTTTT CP_MONMON   TELAPSE   241607.63 TCPU   238937.14
 DIIS TEST: 0.11664E+00 AT CPHF  CYCLE   5 - DIIS ACTIVE - HISTORY:     5 CYCLES
 CYCLE   5   ALPHA  423.209017  EPSILON    2.108662  DELTA    5.3630E-01
 TTTTTTTTTTTTTTTTTTTTTTTTTTTTTT MOQGAD      TELAPSE   242224.93 TCPU   239547.90
 TTTTTTTTTTTTTTTTTTTTTTTTTTTTTT CP_MONMON   TELAPSE   242240.31 TCPU   239563.24
 DIIS TEST: 0.38471E-01 AT CPHF  CYCLE   6 - DIIS ACTIVE - HISTORY:     6 CYCLES
 CYCLE   6   ALPHA  423.379764  EPSILON    2.109110  DELTA    1.7075E-01
 TTTTTTTTTTTTTTTTTTTTTTTTTTTTTT MOQGAD      TELAPSE   242858.89 TCPU   240169.33
 TTTTTTTTTTTTTTTTTTTTTTTTTTTTTT CP_MONMON   TELAPSE   242874.15 TCPU   240184.55
 DIIS TEST: 0.26643E-01 AT CPHF  CYCLE   7 - DIIS ACTIVE - HISTORY:     7 CYCLES
 CYCLE   7   ALPHA  423.406926  EPSILON    2.109181  DELTA    2.7162E-02
 TTTTTTTTTTTTTTTTTTTTTTTTTTTTTT MOQGAD      TELAPSE   243496.99 TCPU   240796.69
 TTTTTTTTTTTTTTTTTTTTTTTTTTTTTT CP_MONMON   TELAPSE   243512.40 TCPU   240812.05
 DIIS TEST: 0.10439E-02 AT CPHF  CYCLE   8 - DIIS ACTIVE - HISTORY:     8 CYCLES
 CYCLE   8   ALPHA  423.406215  EPSILON    2.109179  DELTA   -7.1053E-04
 TTTTTTTTTTTTTTTTTTTTTTTTTTTTTT CP_SC       TELAPSE   243606.30 TCPU   240894.32

 *******************************************************************************

 POLARIZABILITY (ALPHA), DIELECTRIC (EPSILON) AND FIRST-ORDER ELECTRIC
 SUSCEPTIBILITY (CHI(1)) TENSORS (INDEPENDENT COMPONENTS)

  FR.(eV) COMP.   ALPHA(Re,Im)           EPSILON(Re,Im)                CHI(1)
  1.165   XX     812.7983       0.0000       3.1293       0.0000       2.1293
  1.165   ZZ     423.4062       0.0000       2.1092       0.0000       1.1092

 DIELECTRIC TENSOR

 TENSOR IN PRINCIPAL AXES SYSTEM
 AA  3.129252E+00 BB  3.129252E+00 CC  2.109179E+00

 REFRACTIVE INDICES 
 AA  1.452301E+00 BB  1.768969E+00 CC  1.768969E+00

 OPTICALLY ANISOTROPIC - UNIAXIAL CRYSTAL

 BIREFRINGENCE =  0.3167 (NEGATIVE) - OBLATE OPTICAL ELLIPSOID

 EPSILON=N**2=1+CHI(1)=1+ALPHA*4*PI/V,   4*PI/V=   0.00262 BOHR**(-3)
 ALPHA IN BOHR**3; EPSILON AND CHI(1) ARE DIMENSIONLESS.
 *******************************************************************************


 GCALCO - MAX INDICES DIRECT LATTICE VECTOR    14    14    16
 NO.OF VECTORS CREATED 6999 STARS  484 RMAX   200.78925 BOHR

 CAPPA:IS1  3;IS2  3;IS3  3; K PTS MONK NET   6; SYMMOPS:K SPACE   8;G SPACE   4

 TTTTTTTTTTTTTTTTTTTTTTTTTTTTTT END         TELAPSE   243606.64 TCPU   240894.32
 EEEEEEEEEE TERMINATION  DATE 04 12 2023 TIME 05:59:56.4
NODE    0 CPU TIME =    240894.324
NODE    1 CPU TIME =    241200.239
NODE    2 CPU TIME =    241847.763
NODE    3 CPU TIME =    241227.212
NODE    4 CPU TIME =    240974.161
NODE    5 CPU TIME =    241123.251
NODE    6 CPU TIME =    241431.034
NODE    7 CPU TIME =    241156.984
NODE    8 CPU TIME =    240887.538
NODE    9 CPU TIME =    241125.451
NODE   10 CPU TIME =    241017.209
NODE   11 CPU TIME =    240491.672
NODE   12 CPU TIME =    240614.585
NODE   13 CPU TIME =    240467.446
NODE   14 CPU TIME =    239983.951
NODE   15 CPU TIME =    240314.779
NODE   16 CPU TIME =    240073.902
NODE   17 CPU TIME =    239900.253
NODE   18 CPU TIME =    240755.122
NODE   19 CPU TIME =    239979.901
NODE   20 CPU TIME =    239592.327
NODE   21 CPU TIME =    239903.176
NODE   22 CPU TIME =    239859.439
NODE   23 CPU TIME =    238788.077
    TOTAL CPU TIME =   5773609.794
trying normal rsh (/usr/bin/rsh)
exec: No such file or directory
trying normal rsh (/usr/bin/rsh)
exec: No such file or directory
trying normal rsh (/usr/bin/rsh)
exec: No such file or directory
trying normal rsh (/usr/bin/rsh)
exec: No such file or directory
