Loading crystal17/1.0.2/intel/19.0
  Loading requirement: intel/19.0 ompi/4.0.1/intel/19.0
          64 PROCESSORS WORKING

         
 *******************************************************************************
 *                                                                             *
 *                               CRYSTAL17                                     *
 *                      public : 1.0.2 - March 1st, 2018                       *
 *                       HTTP://WWW.CRYSTAL.UNITO.IT                           *
 *                                                                             *
 *                              MAIN AUTHORS                                   *
 *                                                                             *
 *  R. DOVESI(1,11), V.R. SAUNDERS(2), C. ROETTI(1,11), R. ORLANDO(1,11),      *
 *  C.M. ZICOVICH-WILSON(1,3), F. PASCALE(4), B. CIVALLERI(1,11),              *
 *  K. DOLL(5), N.M. HARRISON(2,6), I.J. BUSH(7), Ph. D'ARCO(8),               *
 *  M. LLUNELL(9), M. CAUSA'(10), Y. NOEL(8), L. MASCHIO(1,11), A. ERBA(1,11)  *
 *  M. RE'RAT(14), S. CASASSA(1,11)                                            *
 *                                                                             *
 *        CONTRIBUTIONS TO THE CODE HAVE ALSO BEEN GIVEN BY                    *
 *                                                                             *
 *  M. FERRABONE(1,11), M. DE LA PIERRE(1,11), M. FERRERO(1,11),               *
 *  J. BAIMA(1,11), E. ALBANESE(1,11), M.F. PEINTINGER(12), R. BAST(13),       *
 *  B. KIRTMAN(15), V. LACIVITA(1,11), R. DEMICHELIS(1,16)                     *
 *  G. BRANDEBURG(17), S. SALUSTRO(1,11), G. SANSONE(1,11)                     *
 *  M.T. RUGGIERO(18)                                                          *
 *                                                                             *
 * (1) THEORETICAL CHEMISTRY GROUP - UNIVERSITA' DI TORINO - TORINO (ITALY)    *
 * (2) COMPUTATIONAL SCIENCE & ENGINEERING DEPARTMENT - STFC DARESBURY (UK)    *
 * (3) UNIVERSIDAD AUTONOMA DEL ESTADO DE MORELOS - CUERNAVACA (MEXICO)        *
 * (4) UNIVERSITE' DE LORRAINE - NANCY (FRANCE)                                *
 * (5) UNIVERSITAET STUTTGART- STUTTGART (GERMANY)                             *
 * (6) IMPERIAL COLLEGE - LONDON (UK)                                          *
 * (7) OXFORD E-RESEARCH CENTRE - OXFORD (UK)                                  *
 * (8) UPMC - SORBONNE UNIVERSITES - PARIS (FRANCE)                            *
 * (9) UNIVERSIDAD DE BARCELONA - BARCELONA (SPAIN)                            *
 *(10) UNIVERSITA' DI NAPOLI "FEDERICO II" - NAPOLI (ITALY)                    *
 *(11) NIS - NANOSTRUCTURED INTERFACES AND SURFACES - TORINO (ITALY)           *
 *(12) MPI FUER CHEMISCHE ENERGIEKONVERSION - MUELHEIM AN DER RUHR (GERMANY)   *
 *(13) UNIVERSITY OF TROMSO - TROMSO (NORWAY)                                  *
 *(14) UNIVERSITE' DE PAU ET DES PAYS DE L'ADOUR - PAU (FRANCE)                *
 *(15) UNIVERSITY OF CALIFORNIA SANTA BARBARA - SANTA BARBARA (USA)            *
 *(16) CURTIN UNIVERSITY - PERTH (AUSTRALIA)                                   *
 *(17) UNIVERSITY COLLEGE LONDON - LONDON (UK)                                 *
 *(18) CAMBRIDGE UNIVERSITY - CAMBRIDGE (UK)                                   *
 *                                                                             *
 *******************************************************************************
 EEEEEEEEEE STARTING  DATE 07 12 2023 TIME 13:54:59.5
 Z:\home\sanoj\Downloads\tmp_p\newconn.mol                                       

 CRYSTAL CALCULATION
 (INPUT ACCORDING TO THE INTERNATIONAL TABLES FOR X-RAY CRYSTALLOGRAPHY)
 CRYSTAL FAMILY                       :  TETRAGONAL  
 CRYSTAL CLASS  (GROTH - 1921)        :  TETRAGONAL DISPHENOIDAL              

 SPACE GROUP (NONCENTROSYMMETRIC)     :  I -4            

 LATTICE PARAMETERS  (ANGSTROMS AND DEGREES) - CONVENTIONAL CELL
        A           B           C        ALPHA        BETA       GAMMA
    10.77771    10.77771    12.20798    90.00000    90.00000    90.00000


 NUMBER OF IRREDUCIBLE ATOMS IN THE CONVENTIONAL CELL:   17

 INPUT COORDINATES

 ATOM AT. N.              COORDINATES
   1   1     7.284000000000E-02  7.684100000000E-01  3.488800000000E-01
   2   6     2.634600000000E-01  8.216900000000E-01  3.888700000000E-01
   3   6     2.500300000000E-01 -4.462000000000E-02  3.782400000000E-01
   4   6     1.671800000000E-01  7.374000000000E-01  3.660900000000E-01
   5   6     3.191500000000E-01  5.742800000000E-01  3.748400000000E-01
   6   6     3.799700000000E-01  7.698600000000E-01  4.109700000000E-01
   7   6     8.038800000000E-01  3.877300000000E-01  3.601200000000E-01
   8   7     3.360100000000E-01  3.039000000000E-02  3.312300000000E-01
   9   7     2.879900000000E-01  1.487600000000E-01  3.332000000000E-01
  10   7     1.509300000000E-01  2.442000000000E-02  4.078500000000E-01
  11   7     1.766500000000E-01  1.453800000000E-01  3.778400000000E-01
  12   7     4.087300000000E-01  6.513700000000E-01  4.028900000000E-01
  13   9     4.731300000000E-01  8.463900000000E-01  4.414100000000E-01
  14   9     1.109700000000E-01  5.262100000000E-01  3.365700000000E-01
  15   9     3.475100000000E-01  4.550600000000E-01  3.577700000000E-01
  16  30     0.000000000000E+00  5.000000000000E-01  7.500000000000E-01
  17  30     0.000000000000E+00  0.000000000000E+00  5.000000000000E-01

 *******************************************************************************

 << INFORMATION >>: FROM NOW ON, ALL COORDINATES REFER TO THE PRIMITIVE CELL

 *******************************************************************************

 LATTICE PARAMETERS  (ANGSTROMS AND DEGREES) - PRIMITIVE CELL
       A          B          C        ALPHA      BETA     GAMMA        VOLUME
    9.76413    9.76413    9.76413   113.00462 113.00462 102.61444    709.033453

 COORDINATES OF THE EQUIVALENT ATOMS (FRACTIONAL UNITS)

 N. ATOM EQUIV AT. N.          X                  Y                  Z

   1   1   1    1 H     1.17290000000E-01  4.21720000000E-01 -1.58750000000E-01
   2   1   2    1 H    -4.19530000000E-01  2.76040000000E-01  1.58750000000E-01
   3   1   3    1 H    -4.21720000000E-01  4.19530000000E-01 -3.04430000000E-01
   4   1   4    1 H    -2.76040000000E-01 -1.17290000000E-01  3.04430000000E-01

   5   2   1    6 C     2.10560000000E-01 -3.47670000000E-01  8.51500000000E-02
   6   2   2    6 C    -4.32820000000E-01  1.25410000000E-01 -8.51500000000E-02
   7   2   3    6 C     3.47670000000E-01  4.32820000000E-01 -4.41770000000E-01
   8   2   4    6 C    -1.25410000000E-01 -2.10560000000E-01  4.41770000000E-01

   9   3   1    6 C     3.33620000000E-01 -3.71730000000E-01  2.05410000000E-01
  10   3   2    6 C     4.22860000000E-01  1.28210000000E-01 -2.05410000000E-01
  11   3   3    6 C     3.71730000000E-01 -4.22860000000E-01 -2.94650000000E-01
  12   3   4    6 C    -1.28210000000E-01 -3.33620000000E-01  2.94650000000E-01

  13   4   1    6 C     1.03490000000E-01 -4.66730000000E-01 -9.54200000000E-02
  14   4   2    6 C    -3.71310000000E-01  1.98910000000E-01  9.54200000000E-02
  15   4   3    6 C     4.66730000000E-01  3.71310000000E-01 -4.29780000000E-01
  16   4   4    6 C    -1.98910000000E-01 -1.03490000000E-01  4.29780000000E-01

  17   5   1    6 C    -5.08800000000E-02 -3.06010000000E-01 -1.06570000000E-01
  18   5   2    6 C    -1.99440000000E-01  5.56900000000E-02  1.06570000000E-01
  19   5   3    6 C     3.06010000000E-01  1.99440000000E-01  2.55130000000E-01
  20   5   4    6 C    -5.56900000000E-02  5.08800000000E-02 -2.55130000000E-01

  21   6   1    6 C     1.80830000000E-01 -2.09060000000E-01  1.49830000000E-01
  22   6   2    6 C    -3.58890000000E-01  3.10000000000E-02 -1.49830000000E-01
  23   6   3    6 C     2.09060000000E-01  3.58890000000E-01  3.89890000000E-01
  24   6   4    6 C    -3.10000000000E-02 -1.80830000000E-01 -3.89890000000E-01

  25   7   1    6 C    -2.52150000000E-01  1.64000000000E-01  1.91610000000E-01
  26   7   2    6 C    -2.76100000000E-02 -4.43760000000E-01 -1.91610000000E-01
  27   7   3    6 C    -1.64000000000E-01  2.76100000000E-02 -4.16150000000E-01
  28   7   4    6 C     4.43760000000E-01  2.52150000000E-01  4.16150000000E-01

  29   8   1    7 N     3.61620000000E-01 -3.32760000000E-01  3.66400000000E-01
  30   8   2    7 N     3.00840000000E-01 -4.78000000000E-03 -3.66400000000E-01
  31   8   3    7 N     3.32760000000E-01 -3.00840000000E-01 -3.05620000000E-01
  32   8   4    7 N     4.78000000000E-03 -3.61620000000E-01  3.05620000000E-01

  33   9   1    7 N     4.81960000000E-01 -3.78810000000E-01  4.36750000000E-01
  34   9   2    7 N     1.84440000000E-01  4.52100000000E-02 -4.36750000000E-01
  35   9   3    7 N     3.78810000000E-01 -1.84440000000E-01 -1.39230000000E-01
  36   9   4    7 N    -4.52100000000E-02 -4.81960000000E-01  1.39230000000E-01

  37  10   1    7 N     4.32270000000E-01 -4.41220000000E-01  1.75350000000E-01
  38  10   2    7 N     3.83430000000E-01  2.56920000000E-01 -1.75350000000E-01
  39  10   3    7 N     4.41220000000E-01 -3.83430000000E-01 -1.26510000000E-01
  40  10   4    7 N    -2.56920000000E-01 -4.32270000000E-01  1.26510000000E-01

  41  11   1    7 N    -4.76780000000E-01 -4.45510000000E-01  3.22030000000E-01
  42  11   2    7 N     2.32460000000E-01  2.01190000000E-01 -3.22030000000E-01
  43  11   3    7 N     4.45510000000E-01 -2.32460000000E-01 -3.12700000000E-02
  44  11   4    7 N    -2.01190000000E-01  4.76780000000E-01  3.12700000000E-02

  45  12   1    7 N     5.42600000000E-02 -1.88380000000E-01  6.01000000000E-02
  46  12   2    7 N    -2.48480000000E-01 -5.84000000000E-03 -6.01000000000E-02
  47  12   3    7 N     1.88380000000E-01  2.48480000000E-01  2.42640000000E-01
  48  12   4    7 N     5.84000000000E-03 -5.42600000000E-02 -2.42640000000E-01

  49  13   1    9 F     2.87800000000E-01 -8.54600000000E-02  3.19520000000E-01
  50  13   2    9 F    -4.04980000000E-01 -3.17200000000E-02 -3.19520000000E-01
  51  13   3    9 F     8.54600000000E-02  4.04980000000E-01  3.73260000000E-01
  52  13   4    9 F     3.17200000000E-02 -2.87800000000E-01 -3.73260000000E-01

  53  14   1    9 F    -1.37220000000E-01  4.47540000000E-01 -3.62820000000E-01
  54  14   2    9 F    -1.89640000000E-01  2.25600000000E-01  3.62820000000E-01
  55  14   3    9 F    -4.47540000000E-01  1.89640000000E-01  4.15240000000E-01
  56  14   4    9 F    -2.25600000000E-01  1.37220000000E-01 -4.15240000000E-01

  57  15   1    9 F    -1.87170000000E-01 -2.94720000000E-01 -1.97430000000E-01
  58  15   2    9 F    -9.72900000000E-02  1.02600000000E-02  1.97430000000E-01
  59  15   3    9 F     2.94720000000E-01  9.72900000000E-02  1.07550000000E-01
  60  15   4    9 F    -1.02600000000E-02  1.87170000000E-01 -1.07550000000E-01

  61  16   1   30 ZN    2.50000000000E-01 -2.50000000000E-01 -5.00000000000E-01

  62  17   1   30 ZN   -5.00000000000E-01 -5.00000000000E-01  0.00000000000E+00

 NUMBER OF SYMMETRY OPERATORS         :    4
 *******************************************************************************
 * GEOMETRY EDITING - INPUT COORDINATES ARE GIVEN IN ANGSTROM         
 *******************************************************************************

 GEOMETRY NOW FULLY CONSISTENT WITH THE GROUP

 GCALCO - MAX INDICES DIRECT LATTICE VECTOR    14    14    15
 NO.OF VECTORS CREATED 6999 STARS  486 RMAX   200.28847 BOHR

 GEOMETRY FOR WAVE FUNCTION - DIMENSIONALITY OF THE SYSTEM    3
 (NON PERIODIC DIRECTION: LATTICE PARAMETER FORMALLY SET TO 500)
 *******************************************************************************
 LATTICE PARAMETERS (ANGSTROMS AND DEGREES) - BOHR = 0.5291772083 ANGSTROM
 PRIMITIVE CELL - CENTRING CODE 6/0 VOLUME=   709.033453 - DENSITY  2.173 g/cm^3
         A              B              C           ALPHA      BETA       GAMMA 
     9.76412807     9.76412807     9.76412807   113.004621 113.004621 102.614445
 *******************************************************************************
 ATOMS IN THE ASYMMETRIC UNIT   17 - ATOMS IN THE UNIT CELL:   62
     ATOM                 X/A                 Y/B                 Z/C    
 *******************************************************************************
      1 T   1 H     1.172900000000E-01  4.217200000000E-01 -1.587500000000E-01
      2 F   1 H    -4.195300000000E-01  2.760400000000E-01  1.587500000000E-01
      3 F   1 H    -4.217200000000E-01  4.195300000000E-01 -3.044300000000E-01
      4 F   1 H    -2.760400000000E-01 -1.172900000000E-01  3.044300000000E-01
      5 T   6 C     2.105600000000E-01 -3.476700000000E-01  8.515000000000E-02
      6 F   6 C    -4.328200000000E-01  1.254100000000E-01 -8.515000000000E-02
      7 F   6 C     3.476700000000E-01  4.328200000000E-01 -4.417700000000E-01
      8 F   6 C    -1.254100000000E-01 -2.105600000000E-01  4.417700000000E-01
      9 T   6 C     3.336200000000E-01 -3.717300000000E-01  2.054100000000E-01
     10 F   6 C     4.228600000000E-01  1.282100000000E-01 -2.054100000000E-01
     11 F   6 C     3.717300000000E-01 -4.228600000000E-01 -2.946500000000E-01
     12 F   6 C    -1.282100000000E-01 -3.336200000000E-01  2.946500000000E-01
     13 T   6 C     1.034900000000E-01 -4.667300000000E-01 -9.542000000000E-02
     14 F   6 C    -3.713100000000E-01  1.989100000000E-01  9.542000000000E-02
     15 F   6 C     4.667300000000E-01  3.713100000000E-01 -4.297800000000E-01
     16 F   6 C    -1.989100000000E-01 -1.034900000000E-01  4.297800000000E-01
     17 T   6 C    -5.088000000000E-02 -3.060100000000E-01 -1.065700000000E-01
     18 F   6 C    -1.994400000000E-01  5.569000000000E-02  1.065700000000E-01
     19 F   6 C     3.060100000000E-01  1.994400000000E-01  2.551300000000E-01
     20 F   6 C    -5.569000000000E-02  5.088000000000E-02 -2.551300000000E-01
     21 T   6 C     1.808300000000E-01 -2.090600000000E-01  1.498300000000E-01
     22 F   6 C    -3.588900000000E-01  3.100000000000E-02 -1.498300000000E-01
     23 F   6 C     2.090600000000E-01  3.588900000000E-01  3.898900000000E-01
     24 F   6 C    -3.100000000000E-02 -1.808300000000E-01 -3.898900000000E-01
     25 T   6 C    -2.521500000000E-01  1.640000000000E-01  1.916100000000E-01
     26 F   6 C    -2.761000000000E-02 -4.437600000000E-01 -1.916100000000E-01
     27 F   6 C    -1.640000000000E-01  2.761000000000E-02 -4.161500000000E-01
     28 F   6 C     4.437600000000E-01  2.521500000000E-01  4.161500000000E-01
     29 T   7 N     3.616200000000E-01 -3.327600000000E-01  3.664000000000E-01
     30 F   7 N     3.008400000000E-01 -4.780000000000E-03 -3.664000000000E-01
     31 F   7 N     3.327600000000E-01 -3.008400000000E-01 -3.056200000000E-01
     32 F   7 N     4.780000000000E-03 -3.616200000000E-01  3.056200000000E-01
     33 T   7 N     4.819600000000E-01 -3.788100000000E-01  4.367500000000E-01
     34 F   7 N     1.844400000000E-01  4.521000000000E-02 -4.367500000000E-01
     35 F   7 N     3.788100000000E-01 -1.844400000000E-01 -1.392300000000E-01
     36 F   7 N    -4.521000000000E-02 -4.819600000000E-01  1.392300000000E-01
     37 T   7 N     4.322700000000E-01 -4.412200000000E-01  1.753500000000E-01
     38 F   7 N     3.834300000000E-01  2.569200000000E-01 -1.753500000000E-01
     39 F   7 N     4.412200000000E-01 -3.834300000000E-01 -1.265100000000E-01
     40 F   7 N    -2.569200000000E-01 -4.322700000000E-01  1.265100000000E-01
     41 T   7 N    -4.767800000000E-01 -4.455100000000E-01  3.220300000000E-01
     42 F   7 N     2.324600000000E-01  2.011900000000E-01 -3.220300000000E-01
     43 F   7 N     4.455100000000E-01 -2.324600000000E-01 -3.127000000000E-02
     44 F   7 N    -2.011900000000E-01  4.767800000000E-01  3.127000000000E-02
     45 T   7 N     5.426000000000E-02 -1.883800000000E-01  6.010000000000E-02
     46 F   7 N    -2.484800000000E-01 -5.840000000000E-03 -6.010000000000E-02
     47 F   7 N     1.883800000000E-01  2.484800000000E-01  2.426400000000E-01
     48 F   7 N     5.840000000000E-03 -5.426000000000E-02 -2.426400000000E-01
     49 T   9 F     2.878000000000E-01 -8.546000000000E-02  3.195200000000E-01
     50 F   9 F    -4.049800000000E-01 -3.172000000000E-02 -3.195200000000E-01
     51 F   9 F     8.546000000000E-02  4.049800000000E-01  3.732600000000E-01
     52 F   9 F     3.172000000000E-02 -2.878000000000E-01 -3.732600000000E-01
     53 T   9 F    -1.372200000000E-01  4.475400000000E-01 -3.628200000000E-01
     54 F   9 F    -1.896400000000E-01  2.256000000000E-01  3.628200000000E-01
     55 F   9 F    -4.475400000000E-01  1.896400000000E-01  4.152400000000E-01
     56 F   9 F    -2.256000000000E-01  1.372200000000E-01 -4.152400000000E-01
     57 T   9 F    -1.871700000000E-01 -2.947200000000E-01 -1.974300000000E-01
     58 F   9 F    -9.729000000000E-02  1.026000000000E-02  1.974300000000E-01
     59 F   9 F     2.947200000000E-01  9.729000000000E-02  1.075500000000E-01
     60 F   9 F    -1.026000000000E-02  1.871700000000E-01 -1.075500000000E-01
     61 T  30 ZN    2.500000000000E-01 -2.500000000000E-01  5.000000000000E-01
     62 T  30 ZN   -5.000000000000E-01 -5.000000000000E-01  0.000000000000E+00

 TRANSFORMATION MATRIX PRIMITIVE-CRYSTALLOGRAPHIC CELL
  0.0000  1.0000  1.0000  1.0000  0.0000  1.0000  1.0000  1.0000  0.0000

 *******************************************************************************
 CRYSTALLOGRAPHIC CELL (VOLUME=       1418.06690659)
         A              B              C           ALPHA      BETA       GAMMA 
    10.77771017    10.77771017    12.20797753    90.000000  90.000000  90.000000

 COORDINATES IN THE CRYSTALLOGRAPHIC CELL
     ATOM                 X/A                 Y/B                 Z/C    
 *******************************************************************************
      1 T   1 H     7.284000000000E-02 -2.315900000000E-01  3.488800000000E-01
      2 F   1 H    -7.284000000000E-02  2.315900000000E-01  3.488800000000E-01
      3 F   1 H    -2.315900000000E-01 -7.284000000000E-02 -3.488800000000E-01
      4 F   1 H     2.315900000000E-01  7.284000000000E-02 -3.488800000000E-01
      5 T   6 C    -2.365400000000E-01  3.216900000000E-01 -1.111300000000E-01
      6 F   6 C     2.365400000000E-01 -3.216900000000E-01 -1.111300000000E-01
      7 F   6 C     3.216900000000E-01  2.365400000000E-01  1.111300000000E-01
      8 F   6 C    -3.216900000000E-01 -2.365400000000E-01  1.111300000000E-01
      9 T   6 C     2.500300000000E-01 -4.462000000000E-02  3.782400000000E-01
     10 F   6 C    -2.500300000000E-01  4.462000000000E-02  3.782400000000E-01
     11 F   6 C    -4.462000000000E-02 -2.500300000000E-01 -3.782400000000E-01
     12 F   6 C     4.462000000000E-02  2.500300000000E-01 -3.782400000000E-01
     13 T   6 C    -3.328200000000E-01  2.374000000000E-01 -1.339100000000E-01
     14 F   6 C     3.328200000000E-01 -2.374000000000E-01 -1.339100000000E-01
     15 F   6 C     2.374000000000E-01  3.328200000000E-01  1.339100000000E-01
     16 F   6 C    -2.374000000000E-01 -3.328200000000E-01  1.339100000000E-01
     17 T   6 C    -1.808500000000E-01  7.428000000000E-02 -1.251600000000E-01
     18 F   6 C     1.808500000000E-01 -7.428000000000E-02 -1.251600000000E-01
     19 F   6 C     7.428000000000E-02  1.808500000000E-01  1.251600000000E-01
     20 F   6 C    -7.428000000000E-02 -1.808500000000E-01  1.251600000000E-01
     21 T   6 C    -1.200300000000E-01  2.698600000000E-01 -8.903000000000E-02
     22 F   6 C     1.200300000000E-01 -2.698600000000E-01 -8.903000000000E-02
     23 F   6 C     2.698600000000E-01  1.200300000000E-01  8.903000000000E-02
     24 F   6 C    -2.698600000000E-01 -1.200300000000E-01  8.903000000000E-02
     25 T   6 C     3.038800000000E-01 -1.122700000000E-01 -1.398800000000E-01
     26 F   6 C    -3.038800000000E-01  1.122700000000E-01 -1.398800000000E-01
     27 F   6 C    -1.122700000000E-01 -3.038800000000E-01  1.398800000000E-01
     28 F   6 C     1.122700000000E-01  3.038800000000E-01  1.398800000000E-01
     29 T   7 N     3.360100000000E-01  3.039000000000E-02  3.312300000000E-01
     30 F   7 N    -3.360100000000E-01 -3.039000000000E-02  3.312300000000E-01
     31 F   7 N     3.039000000000E-02 -3.360100000000E-01 -3.312300000000E-01
     32 F   7 N    -3.039000000000E-02  3.360100000000E-01 -3.312300000000E-01
     33 T   7 N    -2.120100000000E-01 -3.512400000000E-01 -1.668000000000E-01
     34 F   7 N     2.120100000000E-01  3.512400000000E-01 -1.668000000000E-01
     35 F   7 N    -3.512400000000E-01  2.120100000000E-01  1.668000000000E-01
     36 F   7 N     3.512400000000E-01 -2.120100000000E-01  1.668000000000E-01
     37 T   7 N     1.509300000000E-01  2.442000000000E-02  4.078500000000E-01
     38 F   7 N    -1.509300000000E-01 -2.442000000000E-02  4.078500000000E-01
     39 F   7 N     2.442000000000E-02 -1.509300000000E-01 -4.078500000000E-01
     40 F   7 N    -2.442000000000E-02  1.509300000000E-01 -4.078500000000E-01
     41 T   7 N     1.766500000000E-01  1.453800000000E-01  3.778400000000E-01
     42 F   7 N    -1.766500000000E-01 -1.453800000000E-01  3.778400000000E-01
     43 F   7 N     1.453800000000E-01 -1.766500000000E-01 -3.778400000000E-01
     44 F   7 N    -1.453800000000E-01  1.766500000000E-01 -3.778400000000E-01
     45 T   7 N    -9.127000000000E-02  1.513700000000E-01 -9.711000000000E-02
     46 F   7 N     9.127000000000E-02 -1.513700000000E-01 -9.711000000000E-02
     47 F   7 N     1.513700000000E-01  9.127000000000E-02  9.711000000000E-02
     48 F   7 N    -1.513700000000E-01 -9.127000000000E-02  9.711000000000E-02
     49 T   9 F    -2.687000000000E-02  3.463900000000E-01 -5.859000000000E-02
     50 F   9 F     2.687000000000E-02 -3.463900000000E-01 -5.859000000000E-02
     51 F   9 F     3.463900000000E-01  2.687000000000E-02  5.859000000000E-02
     52 F   9 F    -3.463900000000E-01 -2.687000000000E-02  5.859000000000E-02
     53 T   9 F    -3.890300000000E-01  2.621000000000E-02 -1.634300000000E-01
     54 F   9 F     3.890300000000E-01 -2.621000000000E-02 -1.634300000000E-01
     55 F   9 F     2.621000000000E-02  3.890300000000E-01  1.634300000000E-01
     56 F   9 F    -2.621000000000E-02 -3.890300000000E-01  1.634300000000E-01
     57 T   9 F    -1.524900000000E-01 -4.494000000000E-02 -1.422300000000E-01
     58 F   9 F     1.524900000000E-01  4.494000000000E-02 -1.422300000000E-01
     59 F   9 F    -4.494000000000E-02  1.524900000000E-01  1.422300000000E-01
     60 F   9 F     4.494000000000E-02 -1.524900000000E-01  1.422300000000E-01
     61 T  30 ZN    5.000000000000E-01  4.360887139415E-17  2.500000000000E-01
     62 T  30 ZN    0.000000000000E+00  0.000000000000E+00 -5.000000000000E-01

 T = ATOM BELONGING TO THE ASYMMETRIC UNIT

 ****    4 SYMMOPS - TRANSLATORS IN FRACTIONAL UNITS
 **** MATRICES AND TRANSLATORS IN THE CRYSTALLOGRAPHIC REFERENCE FRAME
   V INV                    ROTATION MATRICES                   TRANSLATORS
   1   1  1.00  0.00  0.00  0.00  1.00  0.00  0.00  0.00  1.00  0.00  0.00  0.00
   2   2  0.00  1.00 -1.00  1.00  0.00 -1.00  0.00  0.00 -1.00  0.00  0.00  0.00
   3   4 -0.00 -1.00  0.00 -0.00 -1.00  1.00  1.00 -1.00  0.00  0.00  0.00  0.00
   4   3 -1.00 -0.00  1.00 -1.00 -0.00  0.00 -1.00  1.00  0.00  0.00  0.00  0.00

 DIRECT LATTICE VECTORS CARTESIAN COMPONENTS (ANGSTROM)
          X                    Y                    Z
  -0.538885508365E+01   0.538885508365E+01   0.610398876370E+01
   0.538885508365E+01  -0.538885508365E+01   0.610398876370E+01
   0.538885508365E+01   0.538885508365E+01  -0.610398876370E+01


 CARTESIAN COORDINATES - PRIMITIVE CELL
 *******************************************************************************
 *      ATOM          X(ANGSTROM)         Y(ANGSTROM)         Z(ANGSTROM)
 *******************************************************************************
    1     1 H     7.850484085861E-01 -2.496009897645E+00  4.259119199759E+00
    2     1 H    -7.850484085861E-01  2.496009897645E+00  4.259119199759E+00
    3     1 H    -2.496009897645E+00 -7.850484085861E-01 -4.259119199759E+00
    4     1 H     2.496009897645E+00  7.850484085861E-01 -4.259119199759E+00
    5     6 C    -2.549359562973E+00  3.467081583719E+00 -1.356672542620E+00
    6     6 C     2.549359562973E+00 -3.467081583719E+00 -1.356672542620E+00
    7     6 C     3.467081583719E+00  2.549359562973E+00  1.356672542620E+00
    8     6 C    -3.467081583719E+00 -2.549359562973E+00  1.356672542620E+00
    9     6 C     2.694750873130E+00 -4.809014276649E-01  4.617545419964E+00
   10     6 C    -2.694750873130E+00  4.809014276649E-01  4.617545419964E+00
   11     6 C    -4.809014276649E-01 -2.694750873130E+00 -4.617545419964E+00
   12     6 C     4.809014276649E-01  2.694750873130E+00 -4.617545419964E+00
   13     6 C    -3.587037497881E+00  2.558628393717E+00 -1.634770270694E+00
   14     6 C     3.587037497881E+00 -2.558628393717E+00 -1.634770270694E+00
   15     6 C     2.558628393717E+00  3.587037497881E+00  1.634770270694E+00
   16     6 C    -2.558628393717E+00 -3.587037497881E+00  1.634770270694E+00
   17     6 C    -1.949148883756E+00  8.005683112270E-01 -1.527950467329E+00
   18     6 C     1.949148883756E+00 -8.005683112270E-01 -1.527950467329E+00
   19     6 C     8.005683112270E-01  1.949148883756E+00  1.527950467329E+00
   20     6 C    -8.005683112270E-01 -1.949148883756E+00  1.527950467329E+00
   21     6 C    -1.293648551381E+00  2.908472865748E+00 -1.086876239264E+00
   22     6 C     1.293648551381E+00 -2.908472865748E+00 -1.086876239264E+00
   23     6 C     2.908472865748E+00  1.293648551381E+00  1.086876239264E+00
   24     6 C    -2.908472865748E+00 -1.293648551381E+00  1.086876239264E+00
   25     6 C     3.275130565639E+00 -1.210013520483E+00 -1.707651896533E+00
   26     6 C    -3.275130565639E+00  1.210013520483E+00 -1.707651896533E+00
   27     6 C    -1.210013520483E+00 -3.275130565639E+00  1.707651896533E+00
   28     6 C     1.210013520483E+00  3.275130565639E+00  1.707651896533E+00
   29     7 N     3.621418393314E+00  3.275346119842E-01  4.043648396401E+00
   30     7 N    -3.621418393314E+00 -3.275346119842E-01  4.043648396401E+00
   31     7 N     3.275346119842E-01 -3.621418393314E+00 -4.043648396401E+00
   32     7 N    -3.275346119842E-01  3.621418393314E+00 -4.043648396401E+00
   33     7 N    -2.284982332569E+00 -3.785562919162E+00 -2.036290651570E+00
   34     7 N     2.284982332569E+00  3.785562919162E+00 -2.036290651570E+00
   35     7 N    -3.785562919162E+00  2.284982332569E+00  2.036290651570E+00
   36     7 N     3.785562919162E+00 -2.284982332569E+00  2.036290651570E+00
   37     7 N     1.626679795551E+00  2.631916822855E-01  4.979023634550E+00
   38     7 N    -1.626679795551E+00 -2.631916822855E-01  4.979023634550E+00
   39     7 N     2.631916822855E-01 -1.626679795551E+00 -4.979023634550E+00
   40     7 N    -2.631916822855E-01  1.626679795551E+00 -4.979023634550E+00
   41     7 N     1.903882501054E+00  1.566863504122E+00  4.612662228953E+00
   42     7 N    -1.903882501054E+00 -1.566863504122E+00  4.612662228953E+00
   43     7 N     1.566863504122E+00 -1.903882501054E+00 -4.612662228953E+00
   44     7 N    -1.566863504122E+00  1.903882501054E+00 -4.612662228953E+00
   45     7 N    -9.836816069695E-01  1.631421988024E+00 -1.185516697686E+00
   46     7 N     9.836816069695E-01 -1.631421988024E+00 -1.185516697686E+00
   47     7 N     1.631421988024E+00  9.836816069695E-01  1.185516697686E+00
   48     7 N    -1.631421988024E+00 -9.836816069695E-01  1.185516697686E+00
   49     9 F    -2.895970721954E-01  3.733291024851E+00 -7.152654033304E-01
   50     9 F     2.895970721954E-01 -3.733291024851E+00 -7.152654033304E-01
   51     9 F     3.733291024851E+00  2.895970721954E-01  7.152654033304E-01
   52     9 F    -3.733291024851E+00 -2.895970721954E-01  7.152654033304E-01
   53     9 F    -4.192852586385E+00  2.824837834849E-01 -1.995149767303E+00
   54     9 F     4.192852586385E+00 -2.824837834849E-01 -1.995149767303E+00
   55     9 F     2.824837834849E-01  4.192852586385E+00  1.995149767303E+00
   56     9 F    -2.824837834849E-01 -4.192852586385E+00  1.995149767303E+00
   57     9 F    -1.643493023412E+00 -4.843502949185E-01 -1.736340643722E+00
   58     9 F     1.643493023412E+00  4.843502949185E-01 -1.736340643722E+00
   59     9 F    -4.843502949185E-01  1.643493023412E+00  1.736340643722E+00
   60     9 F     4.843502949185E-01 -1.643493023412E+00  1.736340643722E+00
   61    30 ZN    5.388855083650E+00  4.700037766092E-16 -9.155983145550E+00
   62    30 ZN    0.000000000000E+00  0.000000000000E+00  6.103988763700E+00

 *******************************************************************************
 STARTING BASIS SET HANDLING 
 *******************************************************************************

 Loading internal basis set: POB-DZVPP           

 Please cite in your publication:
 Peintinger, M. F., Oliveira, D. V. and Bredow, T. (2013), Generally applicable 
 solid-state Gaussian basis sets, in preparation                                
                                                                                
                    

 *******************************************************************************
 LOCAL ATOMIC FUNCTIONS BASIS SET
 *******************************************************************************
   ATOM   X(AU)   Y(AU)   Z(AU)  N. TYPE  EXPONENT  S COEF   P COEF   D/F/G COEF
 *******************************************************************************
   1 H    1.484  -4.717   8.049
                                  1 S  
                                         2.263E+01 1.441E-02 0.000E+00 0.000E+00
                                         3.236E+00 1.072E-01 0.000E+00 0.000E+00
                                         7.304E-01 3.846E-01 0.000E+00 0.000E+00
                                  2 S  
                                         1.417E-01 1.000E+00 0.000E+00 0.000E+00
                           3-     5 P  
                                         3.944E-01 0.000E+00 1.000E+00 0.000E+00
                           6-     8 P  
                                         1.006E-01 0.000E+00 1.000E+00 0.000E+00
   2 H   -1.484   4.717   8.049
   3 H   -4.717  -1.484  -8.049
   4 H    4.717   1.484  -8.049
   5 C   -4.818   6.552  -2.564
                                 33 S  
                                         1.238E+03 5.457E-03 0.000E+00 0.000E+00
                                         1.863E+02 4.064E-02 0.000E+00 0.000E+00
                                         4.225E+01 1.803E-01 0.000E+00 0.000E+00
                                         1.168E+01 4.632E-01 0.000E+00 0.000E+00
                                         3.593E+00 4.409E-01 0.000E+00 0.000E+00
                                 34 S  
                                         5.281E+00 1.000E+00 0.000E+00 0.000E+00
                                 35 S  
                                         4.447E-01 1.000E+00 0.000E+00 0.000E+00
                          36-    38 P  
                                         9.468E+00 0.000E+00 3.839E-02 0.000E+00
                                         2.010E+00 0.000E+00 2.112E-01 0.000E+00
                                         5.477E-01 0.000E+00 5.133E-01 0.000E+00
                          39-    41 P  
                                         1.604E-01 0.000E+00 1.000E+00 0.000E+00
                          42-    46 D  
                                         6.070E-01 0.000E+00 0.000E+00 1.000E+00
                          47-    51 D  
                                         2.939E-01 0.000E+00 0.000E+00 1.000E+00
   6 C    4.818  -6.552  -2.564
   7 C    6.552   4.818   2.564
   8 C   -6.552  -4.818   2.564
   9 C    5.092  -0.909   8.726
  10 C   -5.092   0.909   8.726
  11 C   -0.909  -5.092  -8.726
  12 C    0.909   5.092  -8.726
  13 C   -6.779   4.835  -3.089
  14 C    6.779  -4.835  -3.089
  15 C    4.835   6.779   3.089
  16 C   -4.835  -6.779   3.089
  17 C   -3.683   1.513  -2.887
  18 C    3.683  -1.513  -2.887
  19 C    1.513   3.683   2.887
  20 C   -1.513  -3.683   2.887
  21 C   -2.445   5.496  -2.054
  22 C    2.445  -5.496  -2.054
  23 C    5.496   2.445   2.054
  24 C   -5.496  -2.445   2.054
  25 C    6.189  -2.287  -3.227
  26 C   -6.189   2.287  -3.227
  27 C   -2.287  -6.189   3.227
  28 C    2.287   6.189   3.227
  29 N    6.843   0.619   7.641
                                489 S  
                                         1.713E+03-5.393E-03 0.000E+00 0.000E+00
                                         2.576E+02-4.022E-02 0.000E+00 0.000E+00
                                         5.846E+01-1.793E-01 0.000E+00 0.000E+00
                                         1.620E+01-4.638E-01 0.000E+00 0.000E+00
                                         5.005E+00-4.417E-01 0.000E+00 0.000E+00
                                490 S  
                                         6.217E-01 1.000E+00 0.000E+00 0.000E+00
                                491 S  
                                         2.921E-01 1.000E+00 0.000E+00 0.000E+00
                         492-   494 P  
                                         1.357E+01 0.000E+00-4.007E-02 0.000E+00
                                         2.926E+00 0.000E+00-2.181E-01 0.000E+00
                                         7.993E-01 0.000E+00-5.129E-01 0.000E+00
                         495-   497 P  
                                         2.244E-01 0.000E+00 1.000E+00 0.000E+00
                         498-   502 D  
                                         3.118E-01 0.000E+00 0.000E+00 1.000E+00
  30 N   -6.843  -0.619   7.641
  31 N    0.619  -6.843  -7.641
  32 N   -0.619   6.843  -7.641
  33 N   -4.318  -7.154  -3.848
  34 N    4.318   7.154  -3.848
  35 N   -7.154   4.318   3.848
  36 N    7.154  -4.318   3.848
  37 N    3.074   0.497   9.409
  38 N   -3.074  -0.497   9.409
  39 N    0.497  -3.074  -9.409
  40 N   -0.497   3.074  -9.409
  41 N    3.598   2.961   8.717
  42 N   -3.598  -2.961   8.717
  43 N    2.961  -3.598  -8.717
  44 N   -2.961   3.598  -8.717
  45 N   -1.859   3.083  -2.240
  46 N    1.859  -3.083  -2.240
  47 N    3.083   1.859   2.240
  48 N   -3.083  -1.859   2.240
  49 F   -0.547   7.055  -1.352
                                769 S  
                                         2.895E+03-5.341E-03 0.000E+00 0.000E+00
                                         4.354E+02-3.990E-02 0.000E+00 0.000E+00
                                         9.884E+01-1.791E-01 0.000E+00 0.000E+00
                                         2.749E+01-4.676E-01 0.000E+00 0.000E+00
                                         8.541E+00-4.465E-01 0.000E+00 0.000E+00
                                770 S  
                                         1.123E+00 1.000E+00 0.000E+00 0.000E+00
                                771 S  
                                         3.743E-01 1.000E+00 0.000E+00 0.000E+00
                         772-   774 P  
                                         2.270E+01 0.000E+00-4.521E-02 0.000E+00
                                         4.987E+00 0.000E+00-2.375E-01 0.000E+00
                                         1.349E+00 0.000E+00-5.129E-01 0.000E+00
                         775-   777 P  
                                         3.474E-01 0.000E+00 1.000E+00 0.000E+00
                         778-   782 D  
                                         9.203E-01 0.000E+00 0.000E+00 1.000E+00
                         783-   787 D  
                                         3.977E-01 0.000E+00 0.000E+00 1.000E+00
  50 F    0.547  -7.055  -1.352
  51 F    7.055   0.547   1.352
  52 F   -7.055  -0.547   1.352
  53 F   -7.923   0.534  -3.770
  54 F    7.923  -0.534  -3.770
  55 F    0.534   7.923   3.770
  56 F   -0.534  -7.923   3.770
  57 F   -3.106  -0.915  -3.281
  58 F    3.106   0.915  -3.281
  59 F   -0.915   3.106   3.281
  60 F    0.915  -3.106   3.281
  61 ZN  10.183   0.000 -17.302
                                997 S  
                                         8.200E+04 1.421E-03 0.000E+00 0.000E+00
                                         1.231E+04 1.089E-02 0.000E+00 0.000E+00
                                         2.801E+03 5.406E-02 0.000E+00 0.000E+00
                                         7.910E+02 1.885E-01 0.000E+00 0.000E+00
                                         2.576E+02 3.835E-01 0.000E+00 0.000E+00
                                         8.881E+01 2.972E-01 0.000E+00 0.000E+00
                                998 S  
                                         1.719E+02-1.105E-01 0.000E+00 0.000E+00
                                         2.030E+01 6.461E-01 0.000E+00 0.000E+00
                                         8.346E+00 4.422E-01 0.000E+00 0.000E+00
                                999 S  
                                         1.485E+01-2.271E-01 0.000E+00 0.000E+00
                                         2.450E+00 7.243E-01 0.000E+00 0.000E+00
                                         9.985E-01 4.484E-01 0.000E+00 0.000E+00
                               1000 S  
                                         1.493E+00 1.000E+00 0.000E+00 0.000E+00
                               1001 S  
                                         1.830E-01 1.000E+00 0.000E+00 0.000E+00
                        1002-  1004 P  
                                         1.072E+03 0.000E+00 9.277E-03 0.000E+00
                                         2.527E+02 0.000E+00 6.954E-02 0.000E+00
                                         8.010E+01 0.000E+00 2.716E-01 0.000E+00
                                         2.890E+01 0.000E+00 5.340E-01 0.000E+00
                                         1.077E+01 0.000E+00 3.450E-01 0.000E+00
                        1005-  1007 P  
                                         5.645E+00 0.000E+00 3.413E-01 0.000E+00
                                         2.168E+00 0.000E+00 5.639E-01 0.000E+00
                                         8.054E-01 0.000E+00 2.368E-01 0.000E+00
                        1008-  1010 P  
                                         2.721E-01 0.000E+00 1.000E+00 0.000E+00
                        1011-  1015 D  
                                         5.609E+01 0.000E+00 0.000E+00 2.959E-02
                                         1.575E+01 0.000E+00 0.000E+00 1.587E-01
                                         5.312E+00 0.000E+00 0.000E+00 3.798E-01
                                         1.774E+00 0.000E+00 0.000E+00 4.690E-01
                        1016-  1020 D  
                                         5.073E-01 0.000E+00 0.000E+00 1.000E+00
                        1021-  1027 F  
                                         2.814E+00 0.000E+00 0.000E+00 1.000E+00
                        1028-  1034 F  
                                         1.300E+00 0.000E+00 0.000E+00 1.000E+00
  62 ZN   0.000   0.000  11.535

 *******************************************************************************
 FINISHED BASIS SET HANDLING 
 *******************************************************************************

 INFORMATION **** SET_MPP **** PCRYSTAL CALCULATION
 INFORMATION **** READM2 **** NEW DEFAULT: FOCK/KS MATRIX MIXING SET TO 30 %
 INFORMATION **** READM2 **** NEW DEFAULT: FULL DIRECT SCF MODE
 INFORMATION **** READM2 **** NEW DEFAULT: COULOMB BIPOLAR BUFFER SET TO 32 Mb
 INFORMATION **** READM2 **** NEW DEFAULT: EXCHANGE BIPOLAR BUFFER SET TO 32 Mb

 *******************************************************************************
 NEW DEFAULT: DFT INTEGRATION GRID INCREASED TO XLGRID
 NEW DEFAULT: DIIS ACCELERATOR ACTIVE
 USE KEYWORD NODIIS TO TURN IT OFF
 *******************************************************************************

 INFORMATION **** DFTD3_INPUT **** PERFORM DISPERSION CORRECTION DFT-D3(BJ) IN THE BECKE-JOHNSON DAMPING SCHEME

 PLEASE CITE:
 (1) DFT-D3 Reference
  S. Grimme, J. Antony, S. Ehrlich, and H. Krieg, J. Chem. Phys. 132 (2010), 154104
 (2) BJ-Damping Reference
  S. Grimme, S. Ehrlich, and L. Goerigk, J. Comput. Chem. 32 (2011), 1456-1465
 (3) General DFT-D Review
  S. Grimme, A. Hansen, J. G. Brandenburg, and C. Bannwarth,
  Chem. Rev. 116 (2016), 5105-5154

 INFORMATION **** TOLINTEG **** COULOMB AND EXCHANGE SERIES TOLERANCES MODIFIED
 INFORMATION **** BIPOSIZE **** COULOMB BIPOLAR BUFFER SET TO   100000000
 INFORMATION **** MAXCYCLE **** MAX NUMBER OF SCF CYCLES SET TO          50
 *******************************************************************************
 N. OF ATOMS PER CELL        62  COULOMB OVERLAP TOL         (T1) 10**  -12
 NUMBER OF SHELLS           412  COULOMB PENETRATION TOL     (T2) 10**  -12
 NUMBER OF AO              1072  EXCHANGE OVERLAP TOL        (T3) 10**   20
 N. OF ELECTRONS PER CELL   456  EXCHANGE PSEUDO OVP (F(G))  (T4) 10**   20
 CORE ELECTRONS PER CELL    148  EXCHANGE PSEUDO OVP (P(G))  (T5) 10**   20
 N. OF SYMMETRY OPERATORS     4  POLE ORDER IN MONO ZONE                  4
 *******************************************************************************
 TYPE OF CALCULATION :  RESTRICTED CLOSED SHELL
 KOHN-SHAM HAMILTONIAN

 (EXCHANGE)[CORRELATION] FUNCTIONAL:(PERDEW-BURKE-ERNZERHOF)[PERDEW-BURKE-ERNZERHOF]


 CAPPA:IS1  3;IS2  3;IS3  3; K PTS MONK NET   6; SYMMOPS:K SPACE   8;G SPACE   4

 *******************************************************************************
 MAX NUMBER OF SCF CYCLES      50  CONVERGENCE ON DELTAP        10**-16
 WEIGHT OF F(I) IN F(I+1)      30% CONVERGENCE ON ENERGY        10**- 6
 SHRINK. FACT.(MONKH.)    3  3  3  NUMBER OF K POINTS IN THE IBZ      6
 SHRINKING FACTOR(GILAT NET)    3  NUMBER OF K POINTS(GILAT NET)      6
 *******************************************************************************
 *** K POINTS COORDINATES (OBLIQUE COORDINATES IN UNITS OF IS =  3)
   1-R(  0  0  0)   2-C(  1  0  0)   3-C(  1  1  0)   4-C(  2  1  0)
   5-C(  2  1  1)   6-C(  2  2  1)

 DIRECT LATTICE VECTORS COMPON. (A.U.)     RECIP. LATTICE VECTORS COMPON. (A.U.) 
        X            Y            Z              X            Y            Z
  -10.1834603   10.1834603   11.5348671      0.0000000    0.3084995    0.2723562
   10.1834603  -10.1834603   11.5348671      0.3084995    0.0000000    0.2723562
   10.1834603   10.1834603  -11.5348671      0.3084995    0.3084995    0.0000000

 DISK SPACE FOR EIGENVECTORS (FTN 10)    12641024 REALS

 SYMMETRY ADAPTION OF THE BLOCH FUNCTIONS ENABLED
 TTTTTTTTTTTTTTTTTTTTTTTTTTTTTT gordsh1     TELAPSE       11.35 TCPU        0.10

 MATRIX SIZE: P(G) 1750036, F(G)  875942, P(G) IRR  221569, F(G) IRR  221569
 MAX G-VECTOR INDEX FOR 1- AND 2-ELECTRON INTEGRALS  59

 TTTTTTTTTTTTTTTTTTTTTTTTTTTTTT INPUT       TELAPSE       11.48 TCPU        0.23

 NEIGHBORS OF THE NON-EQUIVALENT ATOMS

 N = NUMBER OF NEIGHBORS AT DISTANCE R
    ATOM  N     R/ANG      R/AU   NEIGHBORS (ATOM LABELS AND CELL INDICES)
   1 H    1     1.0907     2.0612   13 C    0 1 0
   1 H    1     2.1485     4.0601   26 C    0 1 0
   1 H    1     2.1883     4.1354    5 C    0 1 0
   1 H    1     2.6468     5.0017   53 F    0 1 0
   1 H    1     2.6799     5.0642   60 F    0 0 0
   1 H    1     2.7993     5.2899    9 C    0 0 0

   5 C    1     1.4006     2.6467   21 C    0 0 0
   5 C    1     1.4069     2.6587   13 C    0 0 0
   5 C    1     1.4539     2.7475    9 C    0-1 0
   5 C    1     2.1883     4.1354    1 H    0-1 0
   5 C    1     2.3641     4.4674   49 F    0 0 0
   5 C    1     2.3967     4.5292   26 C    0 0 0

   9 C    1     1.3510     2.5530   37 N    0 0 0
   9 C    1     1.3571     2.5645   29 N    0 0 0
   9 C    1     1.4539     2.7475    5 C    0 1 0
   9 C    1     2.1940     4.1460   33 N    1 1 1
   9 C    1     2.1952     4.1483   41 N    0 0 0
   9 C    1     2.4736     4.6745   21 C    0 1 0

  13 C    1     1.0907     2.0612    1 H    0-1 0
  13 C    1     1.3861     2.6194   26 C    0 0 0
  13 C    1     1.4069     2.6587    5 C    0 0 0
  13 C    1     2.3828     4.5028   53 F    0 0 0
  13 C    1     2.3837     4.5046   21 C    0 0 0
  13 C    1     2.4052     4.5451   17 C    0 0 0

  17 C    1     1.3190     2.4925   45 N    0 0 0
  17 C    1     1.3371     2.5268   57 F    0 0 0
  17 C    1     1.3993     2.6444   26 C    0 0 0
  17 C    1     2.2511     4.2540   21 C    0 0 0
  17 C    1     2.3497     4.4402   53 F    0 0 0
  17 C    1     2.4052     4.5451   13 C    0 0 0

  21 C    1     1.3178     2.4903   45 N    0 0 0
  21 C    1     1.3515     2.5540   49 F    0 0 0
  21 C    1     1.4006     2.6467    5 C    0 0 0
  21 C    1     2.2511     4.2540   17 C    0 0 0
  21 C    1     2.3837     4.5046   13 C    0 0 0
  21 C    1     2.4736     4.6745    9 C    0-1 0

  25 C    1     1.3361     2.5249   54 F    0 0 0
  25 C    1     1.3861     2.6194   14 C    0 0 0
  25 C    1     1.3993     2.6444   18 C    0 0 0
  25 C    1     2.1485     4.0601    2 H   -1 0 0
  25 C    1     2.3524     4.4455   58 F    0 0 0
  25 C    1     2.3877     4.5120   46 N    0 0 0

  29 N    1     1.3571     2.5645    9 C    0 0 0
  29 N    1     1.3769     2.6021   33 N    1 1 1
  29 N    1     2.0529     3.8795   61 ZN   1 1 0
  29 N    1     2.1931     4.1443   41 N    0 0 0
  29 N    1     2.2041     4.1651   37 N    0 0 0
  29 N    1     2.4831     4.6924    5 C    0 1 0

  33 N    1     1.3184     2.4915   41 N   -1-1-1
  33 N    1     1.3769     2.6021   29 N   -1-1-1
  33 N    1     2.1928     4.1438   37 N   -1-1-1
  33 N    1     2.1940     4.1460    9 C   -1-1-1
  33 N    1     2.8942     5.4692   50 F    0 0 0
  33 N    1     2.8942     5.4693    7 C   -1-1-1

  37 N    1     1.3510     2.5530    9 C    0 0 0
  37 N    1     1.3823     2.6121   41 N    0 0 0
  37 N    1     1.9952     3.7704   62 ZN   0 0 0
  37 N    1     2.1928     4.1438   33 N    1 1 1
  37 N    1     2.2041     4.1651   29 N    0 0 0
  37 N    1     2.5097     4.7427    5 C    0 1 0

  41 N    1     1.3184     2.4915   33 N    1 1 1
  41 N    1     1.3823     2.6121   37 N    0 0 0
  41 N    1     2.1931     4.1443   29 N    0 0 0
  41 N    1     2.1952     4.1483    9 C    0 0 0
  41 N    1     2.8668     5.4175    2 H    0 0 0
  41 N    1     2.8816     5.4455   62 ZN   0 0 0

  45 N    1     1.3178     2.4903   21 C    0 0 0
  45 N    1     1.3190     2.4925   17 C    0 0 0
  45 N    1     2.2629     4.2763   49 F    0 0 0
  45 N    1     2.2837     4.3156   57 F    0 0 0
  45 N    1     2.3877     4.5120   26 C    0 0 0
  45 N    1     2.4187     4.5708    5 C    0 0 0

  49 F    1     1.3515     2.5540   21 C    0 0 0
  49 F    1     2.2629     4.2763   45 N    0 0 0
  49 F    1     2.3641     4.4674    5 C    0 0 0
  49 F    1     2.7850     5.2629    9 C    0-1 0
  49 F    1     2.7936     5.2792   30 N    0 0 1
  49 F    1     2.8080     5.3063   55 F    0 0 0

  53 F    1     1.3361     2.5249   26 C    0 0 0
  53 F    1     2.3497     4.4402   17 C    0 0 0
  53 F    1     2.3828     4.5028   13 C    0 0 0
  53 F    1     2.4578     4.6446   54 F    0-1-1
  53 F    1     2.6468     5.0017    1 H    0-1 0
  53 F    1     2.6747     5.0545   57 F    0 0 0

  57 F    1     1.3371     2.5268   17 C    0 0 0
  57 F    1     2.2837     4.3156   45 N    0 0 0
  57 F    1     2.3524     4.4455   26 C    0 0 0
  57 F    1     2.6747     5.0545   53 F    0 0 0
  57 F    1     2.6799     5.0642    3 H    0 0 0
  57 F    1     2.9191     5.5163   46 N    0 0 0

  61 ZN   4     2.0529     3.8795   29 N   -1-1 0   30 N   -1 0 1   31 N    0 0 1
                                    32 N   -1 0 0
  61 ZN   4     2.8784     5.4393   49 F   -1 0 0   50 F    0 0 1   51 F   -1-1 0
                                    52 F   -1 0 1
  61 ZN   4     2.9704     5.6133   33 N    0 0 1   34 N   -1 0 0   35 N   -1 0 1
                                    36 N   -1-1 0
  61 ZN   4     3.1528     5.9580    9 C   -1-1 0   10 C   -1 0 1   11 C    0 0 1
                                    12 C   -1 0 0
  61 ZN   4     3.4187     6.4604   21 C   -1 0 0   22 C    0 0 1   23 C   -1-1 0
                                    24 C   -1 0 1
  61 ZN   4     3.6148     6.8309    5 C   -1 0 0    6 C    0 0 1    7 C   -1-1 0
                                     8 C   -1 0 1

  62 ZN   4     1.9952     3.7704   37 N    0 0 0   38 N    0 0 0   39 N    1 1 0
                                    40 N    1 1 0
  62 ZN   4     2.8816     5.4455   41 N    0 0 0   42 N    0 0 0   43 N    1 1 0
                                    44 N    1 1 0
  62 ZN   4     3.1149     5.8863    9 C    0 0 0   10 C    0 0 0   11 C    1 1 0
                                    12 C    1 1 0
  62 ZN   4     3.2015     6.0500    1 H    0 0 0    2 H    0 0 0    3 H    1 1 0
                                     4 H    1 1 0
  62 ZN   4     3.6873     6.9681    5 C    0 1 0    6 C    1 0 0    7 C    0 0-1
                                     8 C    1 1 1
  62 ZN   4     3.7322     7.0528   13 C    0 1 0   14 C    1 0 0   15 C    0 0-1
                                    16 C    1 1 1


 SYMMETRY ALLOWED INTERNAL DEGREE(S) OF FREEDOM:  45
 TTTTTTTTTTTTTTTTTTTTTTTTTTTTTT SYMM        TELAPSE       11.61 TCPU        0.34
 TTTTTTTTTTTTTTTTTTTTTTTTTTTTTT INT_SCREEN  TELAPSE       11.62 TCPU        0.35
 INFORMATION **** EXCBUF **** EXCH. BIPO BUFFER: WORDS USED =           0

 DFT PARAMETERS

     ATOM       ELECTRONS   NET CHARGE   R(ANGSTROM)
   1   1  H       1.0000      0.0000     1.11000000
   5   6  C       6.0000      0.0000     0.77000000
  29   7  N       7.0000      0.0000     0.74000000
  49   9  F       9.0000      0.0000     0.72000000
  61  30  ZN     30.0000      0.0000     1.37000000

 SIZE OF GRID=     493158
 TTTTTTTTTTTTTTTTTTTTTTTTTTTTTT MAKE_GRID2  TELAPSE       12.24 TCPU        0.96
 BECKE WEIGHT FUNCTION
 RADSAFE =     2.00
 TOLERANCES - DENSITY:10**- 6; POTENTIAL:10**- 9; GRID WGT:10**-14

 RADIAL INTEGRATION  - INTERVALS (POINTS,UPPER LIMIT):            1( 75,  4.0*R)

 ANGULAR INTEGRATION - INTERVALS (ACCURACY LEVEL [N. POINTS] UPPER LIMIT):
  1(  4[  86]   0.2)  2(  8[ 194]   0.5)  3( 12[ 350]   0.9)  4( 16[ 974]   3.5)
  5( 12[ 350]9999.0)
 TTTTTTTTTTTTTTTTTTTTTTTTTTTTTT INT_CALC    TELAPSE       12.28 TCPU        1.01
 EEEEEEEEEE INT_CALC TERMINATION  DATE 07 12 2023 TIME 13:55:11.6

 *******************************************************************************
 Z:\home\sanoj\Downloads\tmp_p\newconn.mol                                       
 CRYSTAL - SCF - TYPE OF CALCULATION :  RESTRICTED CLOSED SHELL
 *******************************************************************************

 CAPPA:IS1  3;IS2  3;IS3  3; K PTS MONK NET   6; SYMMOPS:K SPACE   8;G SPACE   4

 TTTTTTTTTTTTTTTTTTTTTTTTTTTTTT SDIK        TELAPSE       12.47 TCPU        1.20

 AAAAAAAAAAAAAAAAAAAAAAAAAAAAAAAAAAAAAAAAAAAAAAAAAAAAAAAAAAAAAAAAAAAAAAAAAAAAAAA
         ATOMIC WAVEFUNCTION(S)


 NUCLEAR CHARGE  1.0  SYMMETRY SPECIES            S
 N. ELECTRONS    1.0  NUMBER OF PRIMITIVE GTOS    4
                      NUMBER OF CONTRACTED GTOS   2
                      NUMBER OF CLOSED SHELLS     0
                      OPEN SHELL OCCUPATION       1

  ZNUC SCFIT  TOTAL HF ENERGY   KINETIC ENERGY   VIRIAL THEOREM ACCURACY
   1.0   1   -4.946643675E-01  4.917913167E-01 -2.005842012E+00  9.4E-17

 NUCLEAR CHARGE  6.0  SYMMETRY SPECIES            S    P
 N. ELECTRONS    6.0  NUMBER OF PRIMITIVE GTOS    7    4
                      NUMBER OF CONTRACTED GTOS   3    2
                      NUMBER OF CLOSED SHELLS     2    0
                      OPEN SHELL OCCUPATION       0    2

  ZNUC SCFIT  TOTAL HF ENERGY   KINETIC ENERGY   VIRIAL THEOREM ACCURACY
   6.0   6   -3.750912652E+01  3.905246519E+01 -1.960480378E+00  3.7E-06

 NUCLEAR CHARGE  7.0  SYMMETRY SPECIES            S    P
 N. ELECTRONS    7.0  NUMBER OF PRIMITIVE GTOS    7    4
                      NUMBER OF CONTRACTED GTOS   3    2
                      NUMBER OF CLOSED SHELLS     2    0
                      OPEN SHELL OCCUPATION       0    3

  ZNUC SCFIT  TOTAL HF ENERGY   KINETIC ENERGY   VIRIAL THEOREM ACCURACY
   7.0   9   -5.432196661E+01  5.425066284E+01 -2.001314339E+00  1.2E-06

 NUCLEAR CHARGE  9.0  SYMMETRY SPECIES            S    P
 N. ELECTRONS    9.0  NUMBER OF PRIMITIVE GTOS    7    4
                      NUMBER OF CONTRACTED GTOS   3    2
                      NUMBER OF CLOSED SHELLS     2    0
                      OPEN SHELL OCCUPATION       0    5

  ZNUC SCFIT  TOTAL HF ENERGY   KINETIC ENERGY   VIRIAL THEOREM ACCURACY
   9.0  14   -9.927886620E+01  9.927374065E+01 -2.000051630E+00  4.0E-06

 NUCLEAR CHARGE 30.0  SYMMETRY SPECIES            S    P    D
 N. ELECTRONS   30.0  NUMBER OF PRIMITIVE GTOS   14    9    5
                      NUMBER OF CONTRACTED GTOS   5    3    2
                      NUMBER OF CLOSED SHELLS     4    2    1
                      OPEN SHELL OCCUPATION       0    0    0

  ZNUC SCFIT  TOTAL HF ENERGY   KINETIC ENERGY   VIRIAL THEOREM ACCURACY
  30.0  10   -1.777404290E+03  1.777325716E+03 -2.000044209E+00  2.5E-06

 AAAAAAAAAAAAAAAAAAAAAAAAAAAAAAAAAAAAAAAAAAAAAAAAAAAAAAAAAAAAAAAAAAAAAAAAAAAAAAA

 TOTAL ATOMIC CHARGES:
   1.0000000   1.0000000   1.0000000   1.0000000   6.0000000   6.0000000
   6.0000000   6.0000000   6.0000000   6.0000000   6.0000000   6.0000000
   6.0000000   6.0000000   6.0000000   6.0000000   6.0000000   6.0000000
   6.0000000   6.0000000   6.0000000   6.0000000   6.0000000   6.0000000
   6.0000000   6.0000000   6.0000000   6.0000000   7.0000000   7.0000000
   7.0000000   7.0000000   7.0000000   7.0000000   7.0000000   7.0000000
   7.0000000   7.0000000   7.0000000   7.0000000   7.0000000   7.0000000
   7.0000000   7.0000000   7.0000000   7.0000000   7.0000000   7.0000000
   9.0000000   9.0000000   9.0000000   9.0000000   9.0000000   9.0000000
   9.0000000   9.0000000   9.0000000   9.0000000   9.0000000   9.0000000
  30.0000000  30.0000000
 TTTTTTTTTTTTTTTTTTTTTTTTTTTTTT MOQGAD      TELAPSE       13.43 TCPU        2.15
 TTTTTTTTTTTTTTTTTTTTTTTTTTTTTT SHELLXN     TELAPSE       41.32 TCPU       18.17
 TTTTTTTTTTTTTTTTTTTTTTTTTTTTTT MONMO3      TELAPSE       45.44 TCPU       22.27
 NUMERICALLY INTEGRATED DENSITY    456.0001188711
 TTTTTTTTTTTTTTTTTTTTTTTTTTTTTT NUMDFT      TELAPSE       45.95 TCPU       22.78
 CYC   0 ETOT(AU) -6.767055335519E+03 DETOT -6.77E+03 tst  0.00E+00 PX  1.00E+00
 TTTTTTTTTTTTTTTTTTTTTTTTTTTTTT DIIS        TELAPSE       46.01 TCPU       22.83
 TTTTTTTTTTTTTTTTTTTTTTTTTTTTTT FDIK        TELAPSE       72.37 TCPU       40.36
 INSULATING STATE
 TOP OF VALENCE BANDS -    BAND    228; K    3; EIG -1.2993808E-01 AU
 TOP OF VALENCE BANDS -    BAND    228; K    1; EIG -1.3168885E-01 AU
 BOTTOM OF VIRTUAL BANDS - BAND    229; K    5; EIG -8.5839142E-02 AU
 INDIRECT ENERGY BAND GAP:   1.2000 eV
 BOTTOM OF VIRTUAL BANDS - BAND    229; K    1; EIG -8.3293085E-02 AU
 TTTTTTTTTTTTTTTTTTTTTTTTTTTTTT PDIG        TELAPSE       72.90 TCPU       40.89
 TOTAL ATOMIC CHARGES:
   1.3167773   1.3167773   1.3167773   1.3167773   6.2604475   6.2604475
   6.2604475   6.2604475   5.5379856   5.5379856   5.5379856   5.5379856
   6.4331818   6.4331818   6.4331818   6.4331818   5.1233064   5.1233064
   5.1233064   5.1233064   5.1185561   5.1185561   5.1185561   5.1185561
   5.4503212   5.4503212   5.4503212   5.4503212   7.4356343   7.4356343
   7.4356343   7.4356343   7.1997144   7.1997144   7.1997144   7.1997144
   7.4160752   7.4160752   7.4160752   7.4160752   7.1823165   7.1823165
   7.1823165   7.1823165   7.6738024   7.6738024   7.6738024   7.6738024
   9.3046060   9.3046060   9.3046060   9.3046060   9.3072417   9.3072417
   9.3072417   9.3072417   9.2776181   9.2776181   9.2776181   9.2776181
  27.9626744  27.8869879
 TTTTTTTTTTTTTTTTTTTTTTTTTTTTTT MOQGAD      TELAPSE       72.92 TCPU       40.91
 TTTTTTTTTTTTTTTTTTTTTTTTTTTTTT SHELLXN     TELAPSE       97.05 TCPU       60.39
 TTTTTTTTTTTTTTTTTTTTTTTTTTTTTT MONMO3      TELAPSE      100.12 TCPU       63.44
 NUMERICALLY INTEGRATED DENSITY    456.0000853826
 TTTTTTTTTTTTTTTTTTTTTTTTTTTTTT NUMDFT      TELAPSE      101.75 TCPU       65.06
 CYC   1 ETOT(AU) -6.760524967273E+03 DETOT  6.53E+00 tst  0.00E+00 PX  1.00E+00
 TTTTTTTTTTTTTTTTTTTTTTTTTTTTTT DIIS        TELAPSE      101.97 TCPU       65.29
 DIIS TEST: 0.12410E+02 AT SCF   CYCLE   1 - MIX   30 %
 TTTTTTTTTTTTTTTTTTTTTTTTTTTTTT FDIK        TELAPSE      113.23 TCPU       72.60
 INSULATING STATE
 TOP OF VALENCE BANDS -    BAND    228; K    2; EIG -2.0586749E-01 AU
 TOP OF VALENCE BANDS -    BAND    228; K    1; EIG -2.0596124E-01 AU
 BOTTOM OF VIRTUAL BANDS - BAND    229; K    6; EIG -1.1133139E-01 AU
 INDIRECT ENERGY BAND GAP:   2.5725 eV
 BOTTOM OF VIRTUAL BANDS - BAND    229; K    1; EIG -1.1067916E-01 AU
 TTTTTTTTTTTTTTTTTTTTTTTTTTTTTT PDIG        TELAPSE      113.76 TCPU       73.12
 TOTAL ATOMIC CHARGES:
   1.3102720   1.3102720   1.3102720   1.3102720   6.0808208   6.0808208
   6.0808208   6.0808208   6.2765200   6.2765200   6.2765200   6.2765200
   6.2023030   6.2023030   6.2023030   6.2023030   6.2309874   6.2309874
   6.2309874   6.2309874   6.2823042   6.2823042   6.2823042   6.2823042
   5.9007980   5.9007980   5.9007980   5.9007980   6.9043306   6.9043306
   6.9043306   6.9043306   6.8541354   6.8541354   6.8541354   6.8541354
   6.9368619   6.9368619   6.9368619   6.9368619   6.8876576   6.8876576
   6.8876576   6.8876576   6.2950463   6.2950463   6.2950463   6.2950463
   9.0600950   9.0600950   9.0600950   9.0600950   8.9580356   8.9580356
   8.9580356   8.9580356   8.9796316   8.9796316   8.9796316   8.9796316
  29.6311870  29.7296149
 TTTTTTTTTTTTTTTTTTTTTTTTTTTTTT MOQGAD      TELAPSE      113.78 TCPU       73.14
 TTTTTTTTTTTTTTTTTTTTTTTTTTTTTT SHELLXN     TELAPSE      135.61 TCPU       92.70
 TTTTTTTTTTTTTTTTTTTTTTTTTTTTTT MONMO3      TELAPSE      138.30 TCPU       95.39
 NUMERICALLY INTEGRATED DENSITY    456.0001003034
 TTTTTTTTTTTTTTTTTTTTTTTTTTTTTT NUMDFT      TELAPSE      139.87 TCPU       96.95
 CYC   2 ETOT(AU) -6.759893741937E+03 DETOT  6.31E-01 tst  4.67E-02 PX  7.02E-01
 TTTTTTTTTTTTTTTTTTTTTTTTTTTTTT DIIS        TELAPSE      140.19 TCPU       97.27
 DIIS TEST: 0.14415E+02 AT SCF   CYCLE   2 - DIIS ACTIVE - HISTORY:     2 CYCLES
 TTTTTTTTTTTTTTTTTTTTTTTTTTTTTT FDIK        TELAPSE      148.50 TCPU      103.39
 INSULATING STATE
 TOP OF VALENCE BANDS -    BAND    228; K    5; EIG -2.3473953E-01 AU
 TOP OF VALENCE BANDS -    BAND    228; K    1; EIG -2.3826854E-01 AU
 BOTTOM OF VIRTUAL BANDS - BAND    229; K    6; EIG -1.0949870E-01 AU
 INDIRECT ENERGY BAND GAP:   3.4080 eV
 BOTTOM OF VIRTUAL BANDS - BAND    229; K    1; EIG -1.0947812E-01 AU
 TTTTTTTTTTTTTTTTTTTTTTTTTTTTTT PDIG        TELAPSE      149.04 TCPU      103.92
 TOTAL ATOMIC CHARGES:
   1.2792058   1.2792058   1.2792058   1.2792058   6.0285298   6.0285298
   6.0285298   6.0285298   5.7855032   5.7855032   5.7855032   5.7855032
   6.2277912   6.2277912   6.2277912   6.2277912   5.6131610   5.6131610
   5.6131610   5.6131610   5.5648875   5.5648875   5.5648875   5.5648875
   5.6175389   5.6175389   5.6175389   5.6175389   7.1400342   7.1400342
   7.1400342   7.1400342   7.1444116   7.1444116   7.1444116   7.1444116
   7.1043158   7.1043158   7.1043158   7.1043158   7.1292108   7.1292108
   7.1292108   7.1292108   7.3726066   7.3726066   7.3726066   7.3726066
   9.1424675   9.1424675   9.1424675   9.1424675   9.2019887   9.2019887
   9.2019887   9.2019887   9.1480480   9.1480480   9.1480480   9.1480480
  28.9724914  29.0287056
 TTTTTTTTTTTTTTTTTTTTTTTTTTTTTT MOQGAD      TELAPSE      149.06 TCPU      103.94
 TTTTTTTTTTTTTTTTTTTTTTTTTTTTTT SHELLXN     TELAPSE      170.98 TCPU      123.52
 TTTTTTTTTTTTTTTTTTTTTTTTTTTTTT MONMO3      TELAPSE      173.61 TCPU      126.14
 NUMERICALLY INTEGRATED DENSITY    456.0000855525
 TTTTTTTTTTTTTTTTTTTTTTTTTTTTTT NUMDFT      TELAPSE      175.14 TCPU      127.67
 CYC   3 ETOT(AU) -6.762503413483E+03 DETOT -2.61E+00 tst  4.09E-03 PX  6.37E-01
 TTTTTTTTTTTTTTTTTTTTTTTTTTTTTT DIIS        TELAPSE      175.25 TCPU      127.78
 DIIS TEST: 0.10309E+01 AT SCF   CYCLE   3 - DIIS ACTIVE - HISTORY:     3 CYCLES
 TTTTTTTTTTTTTTTTTTTTTTTTTTTTTT FDIK        TELAPSE      184.77 TCPU      133.80
 INSULATING STATE
 TOP OF VALENCE BANDS -    BAND    228; K    5; EIG -2.3812298E-01 AU
 TOP OF VALENCE BANDS -    BAND    228; K    1; EIG -2.4129760E-01 AU
 BOTTOM OF VIRTUAL BANDS - BAND    229; K    6; EIG -1.1528887E-01 AU
 INDIRECT ENERGY BAND GAP:   3.3425 eV
 BOTTOM OF VIRTUAL BANDS - BAND    229; K    1; EIG -1.1496063E-01 AU
 TTTTTTTTTTTTTTTTTTTTTTTTTTTTTT PDIG        TELAPSE      185.32 TCPU      134.34
 TOTAL ATOMIC CHARGES:
   1.2590072   1.2590072   1.2590072   1.2590072   6.2541272   6.2541272
   6.2541272   6.2541272   5.8680164   5.8680164   5.8680164   5.8680164
   6.4260006   6.4260006   6.4260006   6.4260006   5.5167855   5.5167855
   5.5167855   5.5167855   5.6092730   5.6092730   5.6092730   5.6092730
   5.6341246   5.6341246   5.6341246   5.6341246   7.2032522   7.2032522
   7.2032522   7.2032522   7.0140586   7.0140586   7.0140586   7.0140586
   7.2267934   7.2267934   7.2267934   7.2267934   7.0565474   7.0565474
   7.0565474   7.0565474   7.0064029   7.0064029   7.0064029   7.0064029
   9.2008233   9.2008233   9.2008233   9.2008233   9.1670959   9.1670959
   9.1670959   9.1670959   9.1448134   9.1448134   9.1448134   9.1448134
  28.8169395  28.8345740
 TTTTTTTTTTTTTTTTTTTTTTTTTTTTTT MOQGAD      TELAPSE      185.34 TCPU      134.36
 TTTTTTTTTTTTTTTTTTTTTTTTTTTTTT SHELLXN     TELAPSE      207.33 TCPU      153.93
 TTTTTTTTTTTTTTTTTTTTTTTTTTTTTT MONMO3      TELAPSE      210.08 TCPU      156.66
 NUMERICALLY INTEGRATED DENSITY    456.0000877120
 TTTTTTTTTTTTTTTTTTTTTTTTTTTTTT NUMDFT      TELAPSE      211.66 TCPU      158.23
 CYC   4 ETOT(AU) -6.762530542686E+03 DETOT -2.71E-02 tst  1.34E-03 PX  1.07E-01
 TTTTTTTTTTTTTTTTTTTTTTTTTTTTTT DIIS        TELAPSE      211.79 TCPU      158.36
 DIIS TEST: 0.86456E+00 AT SCF   CYCLE   4 - DIIS ACTIVE - HISTORY:     4 CYCLES
 TTTTTTTTTTTTTTTTTTTTTTTTTTTTTT FDIK        TELAPSE      219.06 TCPU      163.69
 INSULATING STATE
 TOP OF VALENCE BANDS -    BAND    228; K    5; EIG -2.4111782E-01 AU
 TOP OF VALENCE BANDS -    BAND    228; K    1; EIG -2.4455249E-01 AU
 BOTTOM OF VIRTUAL BANDS - BAND    229; K    6; EIG -1.1331619E-01 AU
 INDIRECT ENERGY BAND GAP:   3.4777 eV
 BOTTOM OF VIRTUAL BANDS - BAND    229; K    1; EIG -1.1190457E-01 AU
 TTTTTTTTTTTTTTTTTTTTTTTTTTTTTT PDIG        TELAPSE      219.60 TCPU      164.23
 TOTAL ATOMIC CHARGES:
   1.2707438   1.2707438   1.2707438   1.2707438   6.1393833   6.1393833
   6.1393833   6.1393833   5.8547064   5.8547064   5.8547064   5.8547064
   6.3070678   6.3070678   6.3070678   6.3070678   5.6393226   5.6393226
   5.6393226   5.6393226   5.6352456   5.6352456   5.6352456   5.6352456
   5.6555439   5.6555439   5.6555439   5.6555439   7.1693863   7.1693863
   7.1693863   7.1693863   7.0867950   7.0867950   7.0867950   7.0867950
   7.1405874   7.1405874   7.1405874   7.1405874   7.0687946   7.0687946
   7.0687946   7.0687946   7.1374548   7.1374548   7.1374548   7.1374548
   9.1767164   9.1767164   9.1767164   9.1767164   9.1531234   9.1531234
   9.1531234   9.1531234   9.1374065   9.1374065   9.1374065   9.1374065
  28.8475104  28.8633783
 TTTTTTTTTTTTTTTTTTTTTTTTTTTTTT MOQGAD      TELAPSE      219.62 TCPU      164.24
 TTTTTTTTTTTTTTTTTTTTTTTTTTTTTT SHELLXN     TELAPSE      242.84 TCPU      183.73
 TTTTTTTTTTTTTTTTTTTTTTTTTTTTTT MONMO3      TELAPSE      245.83 TCPU      186.71
 NUMERICALLY INTEGRATED DENSITY    456.0000888316
 TTTTTTTTTTTTTTTTTTTTTTTTTTTTTT NUMDFT      TELAPSE      247.43 TCPU      188.30
 CYC   5 ETOT(AU) -6.762653618831E+03 DETOT -1.23E-01 tst  7.47E-04 PX  6.83E-02
 TTTTTTTTTTTTTTTTTTTTTTTTTTTTTT DIIS        TELAPSE      247.60 TCPU      188.47
 DIIS TEST: 0.32592E-01 AT SCF   CYCLE   5 - DIIS ACTIVE - HISTORY:     5 CYCLES
 TTTTTTTTTTTTTTTTTTTTTTTTTTTTTT FDIK        TELAPSE      254.84 TCPU      194.38
 INSULATING STATE
 TOP OF VALENCE BANDS -    BAND    228; K    5; EIG -2.3836544E-01 AU
 TOP OF VALENCE BANDS -    BAND    228; K    1; EIG -2.4213946E-01 AU
 BOTTOM OF VIRTUAL BANDS - BAND    229; K    6; EIG -1.1222114E-01 AU
 INDIRECT ENERGY BAND GAP:   3.4326 eV
 BOTTOM OF VIRTUAL BANDS - BAND    229; K    1; EIG -1.1151333E-01 AU
 TTTTTTTTTTTTTTTTTTTTTTTTTTTTTT PDIG        TELAPSE      255.37 TCPU      194.91
 TOTAL ATOMIC CHARGES:
   1.2729197   1.2729197   1.2729197   1.2729197   6.1443645   6.1443645
   6.1443645   6.1443645   5.8502725   5.8502725   5.8502725   5.8502725
   6.3135557   6.3135557   6.3135557   6.3135557   5.6094711   5.6094711
   5.6094711   5.6094711   5.6259570   5.6259570   5.6259570   5.6259570
   5.6463415   5.6463415   5.6463415   5.6463415   7.1493460   7.1493460
   7.1493460   7.1493460   7.0539965   7.0539965   7.0539965   7.0539965
   7.1799332   7.1799332   7.1799332   7.1799332   7.0940862   7.0940862
   7.0940862   7.0940862   7.1440401   7.1440401   7.1440401   7.1440401
   9.1635808   9.1635808   9.1635808   9.1635808   9.1730644   9.1730644
   9.1730644   9.1730644   9.1358786   9.1358786   9.1358786   9.1358786
  28.8707943  28.9019742
 TTTTTTTTTTTTTTTTTTTTTTTTTTTTTT MOQGAD      TELAPSE      255.39 TCPU      194.93
 TTTTTTTTTTTTTTTTTTTTTTTTTTTTTT SHELLXN     TELAPSE      277.50 TCPU      214.50
 TTTTTTTTTTTTTTTTTTTTTTTTTTTTTT MONMO3      TELAPSE      280.05 TCPU      217.03
 NUMERICALLY INTEGRATED DENSITY    456.0000883241
 TTTTTTTTTTTTTTTTTTTTTTTTTTTTTT NUMDFT      TELAPSE      281.62 TCPU      218.60
 CYC   6 ETOT(AU) -6.762655655318E+03 DETOT -2.04E-03 tst  4.07E-05 PX  2.83E-02
 TTTTTTTTTTTTTTTTTTTTTTTTTTTTTT DIIS        TELAPSE      281.76 TCPU      218.74
 DIIS TEST: 0.24457E-01 AT SCF   CYCLE   6 - DIIS ACTIVE - HISTORY:     6 CYCLES
 TTTTTTTTTTTTTTTTTTTTTTTTTTTTTT FDIK        TELAPSE      289.12 TCPU      223.60
 INSULATING STATE
 TOP OF VALENCE BANDS -    BAND    228; K    5; EIG -2.3916449E-01 AU
 TOP OF VALENCE BANDS -    BAND    228; K    1; EIG -2.4260041E-01 AU
 BOTTOM OF VIRTUAL BANDS - BAND    229; K    6; EIG -1.1247940E-01 AU
 INDIRECT ENERGY BAND GAP:   3.4473 eV
 BOTTOM OF VIRTUAL BANDS - BAND    229; K    1; EIG -1.1115666E-01 AU
 TTTTTTTTTTTTTTTTTTTTTTTTTTTTTT PDIG        TELAPSE      289.65 TCPU      224.13
 TOTAL ATOMIC CHARGES:
   1.2715621   1.2715621   1.2715621   1.2715621   6.1396549   6.1396549
   6.1396549   6.1396549   5.8542787   5.8542787   5.8542787   5.8542787
   6.3102259   6.3102259   6.3102259   6.3102259   5.6159740   5.6159740
   5.6159740   5.6159740   5.6369609   5.6369609   5.6369609   5.6369609
   5.6476913   5.6476913   5.6476913   5.6476913   7.1786792   7.1786792
   7.1786792   7.1786792   7.0841213   7.0841213   7.0841213   7.0841213
   7.1466059   7.1466059   7.1466059   7.1466059   7.0654344   7.0654344
   7.0654344   7.0654344   7.1349610   7.1349610   7.1349610   7.1349610
   9.1697419   9.1697419   9.1697419   9.1697419   9.1662108   9.1662108
   9.1662108   9.1662108   9.1359724   9.1359724   9.1359724   9.1359724
  28.8718642  28.8958371
 TTTTTTTTTTTTTTTTTTTTTTTTTTTTTT MOQGAD      TELAPSE      289.68 TCPU      224.15
 TTTTTTTTTTTTTTTTTTTTTTTTTTTTTT SHELLXN     TELAPSE      313.53 TCPU      243.60
 TTTTTTTTTTTTTTTTTTTTTTTTTTTTTT MONMO3      TELAPSE      316.31 TCPU      246.37
 NUMERICALLY INTEGRATED DENSITY    456.0000881981
 TTTTTTTTTTTTTTTTTTTTTTTTTTTTTT NUMDFT      TELAPSE      317.85 TCPU      247.89
 CYC   7 ETOT(AU) -6.762658175725E+03 DETOT -2.52E-03 tst  1.51E-05 PX  1.06E-02
 TTTTTTTTTTTTTTTTTTTTTTTTTTTTTT DIIS        TELAPSE      317.96 TCPU      248.00
 DIIS TEST: 0.80241E-02 AT SCF   CYCLE   7 - DIIS ACTIVE - HISTORY:     7 CYCLES
 TTTTTTTTTTTTTTTTTTTTTTTTTTTTTT FDIK        TELAPSE      324.97 TCPU      253.08
 INSULATING STATE
 TOP OF VALENCE BANDS -    BAND    228; K    5; EIG -2.3929166E-01 AU
 TOP OF VALENCE BANDS -    BAND    228; K    1; EIG -2.4285100E-01 AU
 BOTTOM OF VIRTUAL BANDS - BAND    229; K    6; EIG -1.1265508E-01 AU
 INDIRECT ENERGY BAND GAP:   3.4460 eV
 BOTTOM OF VIRTUAL BANDS - BAND    229; K    1; EIG -1.1161255E-01 AU
 TTTTTTTTTTTTTTTTTTTTTTTTTTTTTT PDIG        TELAPSE      325.50 TCPU      253.62
 TOTAL ATOMIC CHARGES:
   1.2713317   1.2713317   1.2713317   1.2713317   6.1364300   6.1364300
   6.1364300   6.1364300   5.8535466   5.8535466   5.8535466   5.8535466
   6.3101520   6.3101520   6.3101520   6.3101520   5.6266952   5.6266952
   5.6266952   5.6266952   5.6333305   5.6333305   5.6333305   5.6333305
   5.6517234   5.6517234   5.6517234   5.6517234   7.1599120   7.1599120
   7.1599120   7.1599120   7.0703179   7.0703179   7.0703179   7.0703179
   7.1610139   7.1610139   7.1610139   7.1610139   7.0812856   7.0812856
   7.0812856   7.0812856   7.1346565   7.1346565   7.1346565   7.1346565
   9.1705988   9.1705988   9.1705988   9.1705988   9.1619835   9.1619835
   9.1619835   9.1619835   9.1359020   9.1359020   9.1359020   9.1359020
  28.8698151  28.8946667
 TTTTTTTTTTTTTTTTTTTTTTTTTTTTTT MOQGAD      TELAPSE      325.52 TCPU      253.63
 TTTTTTTTTTTTTTTTTTTTTTTTTTTTTT SHELLXN     TELAPSE      347.45 TCPU      273.21
 TTTTTTTTTTTTTTTTTTTTTTTTTTTTTT MONMO3      TELAPSE      350.12 TCPU      275.88
 NUMERICALLY INTEGRATED DENSITY    456.0000882861
 TTTTTTTTTTTTTTTTTTTTTTTTTTTTTT NUMDFT      TELAPSE      351.66 TCPU      277.41
 CYC   8 ETOT(AU) -6.762659193693E+03 DETOT -1.02E-03 tst  4.12E-06 PX  5.72E-03
 TTTTTTTTTTTTTTTTTTTTTTTTTTTTTT DIIS        TELAPSE      351.82 TCPU      277.57
 DIIS TEST: 0.11092E-02 AT SCF   CYCLE   8 - DIIS ACTIVE - HISTORY:     8 CYCLES
 TTTTTTTTTTTTTTTTTTTTTTTTTTTTTT FDIK        TELAPSE      362.16 TCPU      283.38
 INSULATING STATE
 TOP OF VALENCE BANDS -    BAND    228; K    5; EIG -2.3945351E-01 AU
 TOP OF VALENCE BANDS -    BAND    228; K    1; EIG -2.4296091E-01 AU
 BOTTOM OF VIRTUAL BANDS - BAND    229; K    6; EIG -1.1272349E-01 AU
 INDIRECT ENERGY BAND GAP:   3.4485 eV
 BOTTOM OF VIRTUAL BANDS - BAND    229; K    1; EIG -1.1160619E-01 AU
 TTTTTTTTTTTTTTTTTTTTTTTTTTTTTT PDIG        TELAPSE      362.69 TCPU      283.91
 TOTAL ATOMIC CHARGES:
   1.2709445   1.2709445   1.2709445   1.2709445   6.1420533   6.1420533
   6.1420533   6.1420533   5.8502987   5.8502987   5.8502987   5.8502987
   6.3089846   6.3089846   6.3089846   6.3089846   5.6197900   5.6197900
   5.6197900   5.6197900   5.6329216   5.6329216   5.6329216   5.6329216
   5.6496881   5.6496881   5.6496881   5.6496881   7.1669331   7.1669331
   7.1669331   7.1669331   7.0713659   7.0713659   7.0713659   7.0713659
   7.1596751   7.1596751   7.1596751   7.1596751   7.0747828   7.0747828
   7.0747828   7.0747828   7.1393414   7.1393414   7.1393414   7.1393414
   9.1694754   9.1694754   9.1694754   9.1694754   9.1653173   9.1653173
   9.1653173   9.1653173   9.1356678   9.1356678   9.1356678   9.1356678
  28.8724795  28.8985621
 TTTTTTTTTTTTTTTTTTTTTTTTTTTTTT MOQGAD      TELAPSE      362.71 TCPU      283.92
 TTTTTTTTTTTTTTTTTTTTTTTTTTTTTT SHELLXN     TELAPSE      384.50 TCPU      303.48
 TTTTTTTTTTTTTTTTTTTTTTTTTTTTTT MONMO3      TELAPSE      387.46 TCPU      306.44
 NUMERICALLY INTEGRATED DENSITY    456.0000883466
 TTTTTTTTTTTTTTTTTTTTTTTTTTTTTT NUMDFT      TELAPSE      389.03 TCPU      308.00
 CYC   9 ETOT(AU) -6.762659361229E+03 DETOT -1.68E-04 tst  6.74E-07 PX  3.20E-03
 TTTTTTTTTTTTTTTTTTTTTTTTTTTTTT DIIS        TELAPSE      389.19 TCPU      308.15
 DIIS TEST: 0.19661E-03 AT SCF   CYCLE   9 - DIIS ACTIVE - HISTORY:     9 CYCLES
 TTTTTTTTTTTTTTTTTTTTTTTTTTTTTT FDIK        TELAPSE      396.62 TCPU      311.70
 INSULATING STATE
 TOP OF VALENCE BANDS -    BAND    228; K    5; EIG -2.3932030E-01 AU
 TOP OF VALENCE BANDS -    BAND    228; K    1; EIG -2.4286549E-01 AU
 BOTTOM OF VIRTUAL BANDS - BAND    229; K    6; EIG -1.1261915E-01 AU
 INDIRECT ENERGY BAND GAP:   3.4477 eV
 BOTTOM OF VIRTUAL BANDS - BAND    229; K    1; EIG -1.1152092E-01 AU
 TTTTTTTTTTTTTTTTTTTTTTTTTTTTTT PDIG        TELAPSE      397.15 TCPU      312.23
 TOTAL ATOMIC CHARGES:
   1.2711082   1.2711082   1.2711082   1.2711082   6.1382295   6.1382295
   6.1382295   6.1382295   5.8522328   5.8522328   5.8522328   5.8522328
   6.3107585   6.3107585   6.3107585   6.3107585   5.6221776   5.6221776
   5.6221776   5.6221776   5.6337291   5.6337291   5.6337291   5.6337291
   5.6502712   5.6502712   5.6502712   5.6502712   7.1643093   7.1643093
   7.1643093   7.1643093   7.0738021   7.0738021   7.0738021   7.0738021
   7.1573062   7.1573062   7.1573062   7.1573062   7.0780650   7.0780650
   7.0780650   7.0780650   7.1357554   7.1357554   7.1357554   7.1357554
   9.1693249   9.1693249   9.1693249   9.1693249   9.1648514   9.1648514
   9.1648514   9.1648514   9.1360604   9.1360604   9.1360604   9.1360604
  28.8714979  28.8965759
 TTTTTTTTTTTTTTTTTTTTTTTTTTTTTT MOQGAD      TELAPSE      397.17 TCPU      312.25
 TTTTTTTTTTTTTTTTTTTTTTTTTTTTTT SHELLXN     TELAPSE      419.23 TCPU      331.84
 TTTTTTTTTTTTTTTTTTTTTTTTTTTTTT MONMO3      TELAPSE      421.78 TCPU      334.38
 NUMERICALLY INTEGRATED DENSITY    456.0000882842
 TTTTTTTTTTTTTTTTTTTTTTTTTTTTTT NUMDFT      TELAPSE      423.34 TCPU      335.93
 CYC  10 ETOT(AU) -6.762659385164E+03 DETOT -2.39E-05 tst  1.61E-07 PX  1.11E-03
 TTTTTTTTTTTTTTTTTTTTTTTTTTTTTT DIIS        TELAPSE      423.49 TCPU      336.08
 DIIS TEST: 0.72075E-04 AT SCF   CYCLE  10 - DIIS ACTIVE - HISTORY:    10 CYCLES
 TTTTTTTTTTTTTTTTTTTTTTTTTTTTTT FDIK        TELAPSE      429.55 TCPU      341.57
 INSULATING STATE
 TOP OF VALENCE BANDS -    BAND    228; K    5; EIG -2.3930570E-01 AU
 TOP OF VALENCE BANDS -    BAND    228; K    1; EIG -2.4283588E-01 AU
 BOTTOM OF VIRTUAL BANDS - BAND    229; K    6; EIG -1.1265453E-01 AU
 INDIRECT ENERGY BAND GAP:   3.4464 eV
 BOTTOM OF VIRTUAL BANDS - BAND    229; K    1; EIG -1.1155494E-01 AU
 TTTTTTTTTTTTTTTTTTTTTTTTTTTTTT PDIG        TELAPSE      430.08 TCPU      342.10
 TOTAL ATOMIC CHARGES:
   1.2712516   1.2712516   1.2712516   1.2712516   6.1388271   6.1388271
   6.1388271   6.1388271   5.8523001   5.8523001   5.8523001   5.8523001
   6.3096704   6.3096704   6.3096704   6.3096704   5.6221391   5.6221391
   5.6221391   5.6221391   5.6337142   5.6337142   5.6337142   5.6337142
   5.6498095   5.6498095   5.6498095   5.6498095   7.1655290   7.1655290
   7.1655290   7.1655290   7.0720778   7.0720778   7.0720778   7.0720778
   7.1593009   7.1593009   7.1593009   7.1593009   7.0765859   7.0765859
   7.0765859   7.0765859   7.1372799   7.1372799   7.1372799   7.1372799
   9.1694932   9.1694932   9.1694932   9.1694932   9.1643060   9.1643060
   9.1643060   9.1643060   9.1357578   9.1357578   9.1357578   9.1357578
  28.8712384  28.8965913
 TTTTTTTTTTTTTTTTTTTTTTTTTTTTTT MOQGAD      TELAPSE      430.10 TCPU      342.12
 TTTTTTTTTTTTTTTTTTTTTTTTTTTTTT SHELLXN     TELAPSE      452.39 TCPU      361.66
 TTTTTTTTTTTTTTTTTTTTTTTTTTTTTT MONMO3      TELAPSE      454.90 TCPU      364.16
 NUMERICALLY INTEGRATED DENSITY    456.0000882896
 TTTTTTTTTTTTTTTTTTTTTTTTTTTTTT NUMDFT      TELAPSE      456.49 TCPU      365.74
 CYC  11 ETOT(AU) -6.762659395124E+03 DETOT -9.96E-06 tst  4.49E-08 PX  4.93E-04
 TTTTTTTTTTTTTTTTTTTTTTTTTTTTTT DIIS        TELAPSE      456.93 TCPU      366.18
 DIIS TEST: 0.14731E-04 AT SCF   CYCLE  11 - DIIS ACTIVE - HISTORY:    11 CYCLES
 TTTTTTTTTTTTTTTTTTTTTTTTTTTTTT FDIK        TELAPSE      466.33 TCPU      371.15
 INSULATING STATE
 TOP OF VALENCE BANDS -    BAND    228; K    5; EIG -2.3933184E-01 AU
 TOP OF VALENCE BANDS -    BAND    228; K    1; EIG -2.4286302E-01 AU
 BOTTOM OF VIRTUAL BANDS - BAND    229; K    6; EIG -1.1264068E-01 AU
 INDIRECT ENERGY BAND GAP:   3.4474 eV
 BOTTOM OF VIRTUAL BANDS - BAND    229; K    1; EIG -1.1153939E-01 AU
 TTTTTTTTTTTTTTTTTTTTTTTTTTTTTT PDIG        TELAPSE      466.86 TCPU      371.69
 TOTAL ATOMIC CHARGES:
   1.2711358   1.2711358   1.2711358   1.2711358   6.1392959   6.1392959
   6.1392959   6.1392959   5.8518565   5.8518565   5.8518565   5.8518565
   6.3098411   6.3098411   6.3098411   6.3098411   5.6217786   5.6217786
   5.6217786   5.6217786   5.6333637   5.6333637   5.6333637   5.6333637
   5.6502134   5.6502134   5.6502134   5.6502134   7.1650815   7.1650815
   7.1650815   7.1650815   7.0725519   7.0725519   7.0725519   7.0725519
   7.1586400   7.1586400   7.1586400   7.1586400   7.0769550   7.0769550
   7.0769550   7.0769550   7.1371136   7.1371136   7.1371136   7.1371136
   9.1695844   9.1695844   9.1695844   9.1695844   9.1646114   9.1646114
   9.1646114   9.1646114   9.1357972   9.1357972   9.1357972   9.1357972
  28.8715982  28.8971214
 TTTTTTTTTTTTTTTTTTTTTTTTTTTTTT MOQGAD      TELAPSE      466.88 TCPU      371.70
 TTTTTTTTTTTTTTTTTTTTTTTTTTTTTT SHELLXN     TELAPSE      490.84 TCPU      391.27
 TTTTTTTTTTTTTTTTTTTTTTTTTTTTTT MONMO3      TELAPSE      493.55 TCPU      393.97
 NUMERICALLY INTEGRATED DENSITY    456.0000882982
 TTTTTTTTTTTTTTTTTTTTTTTTTTTTTT NUMDFT      TELAPSE      495.13 TCPU      395.55
 CYC  12 ETOT(AU) -6.762659397301E+03 DETOT -2.18E-06 tst  6.77E-09 PX  2.09E-04
 TTTTTTTTTTTTTTTTTTTTTTTTTTTTTT DIIS        TELAPSE      495.30 TCPU      395.71
 DIIS TEST: 0.11601E-05 AT SCF   CYCLE  12 - DIIS ACTIVE - HISTORY:    12 CYCLES
 TTTTTTTTTTTTTTTTTTTTTTTTTTTTTT FDIK        TELAPSE      505.30 TCPU      401.28
 INSULATING STATE
 TOP OF VALENCE BANDS -    BAND    228; K    5; EIG -2.3933066E-01 AU
 TOP OF VALENCE BANDS -    BAND    228; K    1; EIG -2.4286188E-01 AU
 BOTTOM OF VIRTUAL BANDS - BAND    229; K    6; EIG -1.1264844E-01 AU
 INDIRECT ENERGY BAND GAP:   3.4472 eV
 BOTTOM OF VIRTUAL BANDS - BAND    229; K    1; EIG -1.1154705E-01 AU
 TTTTTTTTTTTTTTTTTTTTTTTTTTTTTT PDIG        TELAPSE      505.84 TCPU      401.82
 TOTAL ATOMIC CHARGES:
   1.2711336   1.2711336   1.2711336   1.2711336   6.1391374   6.1391374
   6.1391374   6.1391374   5.8518662   5.8518662   5.8518662   5.8518662
   6.3099558   6.3099558   6.3099558   6.3099558   5.6218860   5.6218860
   5.6218860   5.6218860   5.6335539   5.6335539   5.6335539   5.6335539
   5.6499710   5.6499710   5.6499710   5.6499710   7.1652390   7.1652390
   7.1652390   7.1652390   7.0724342   7.0724342   7.0724342   7.0724342
   7.1587909   7.1587909   7.1587909   7.1587909   7.0768888   7.0768888
   7.0768888   7.0768888   7.1370449   7.1370449   7.1370449   7.1370449
   9.1694941   9.1694941   9.1694941   9.1694941   9.1646043   9.1646043
   9.1646043   9.1646043   9.1358762   9.1358762   9.1358762   9.1358762
  28.8715581  28.8969367
 TTTTTTTTTTTTTTTTTTTTTTTTTTTTTT MOQGAD      TELAPSE      505.86 TCPU      401.83
 TTTTTTTTTTTTTTTTTTTTTTTTTTTTTT SHELLXN     TELAPSE      527.80 TCPU      421.43
 TTTTTTTTTTTTTTTTTTTTTTTTTTTTTT MONMO3      TELAPSE      530.46 TCPU      424.08
 NUMERICALLY INTEGRATED DENSITY    456.0000882986
 TTTTTTTTTTTTTTTTTTTTTTTTTTTTTT NUMDFT      TELAPSE      531.99 TCPU      425.61
 CYC  13 ETOT(AU) -6.762659397454E+03 DETOT -1.53E-07 tst  5.44E-10 PX  8.70E-05
 TTTTTTTTTTTTTTTTTTTTTTTTTTTTTT DIIS        TELAPSE      532.12 TCPU      425.73
 DIIS TEST: 0.29014E-06 AT SCF   CYCLE  13 - DIIS ACTIVE - HISTORY:    13 CYCLES
 TTTTTTTTTTTTTTTTTTTTTTTTTTTTTT FDIK        TELAPSE      541.59 TCPU      430.81
 INSULATING STATE
 TOP OF VALENCE BANDS -    BAND    228; K    5; EIG -2.3932713E-01 AU
 TOP OF VALENCE BANDS -    BAND    228; K    1; EIG -2.4285855E-01 AU
 BOTTOM OF VIRTUAL BANDS - BAND    229; K    6; EIG -1.1264386E-01 AU
 INDIRECT ENERGY BAND GAP:   3.4472 eV
 BOTTOM OF VIRTUAL BANDS - BAND    229; K    1; EIG -1.1154323E-01 AU
 TTTTTTTTTTTTTTTTTTTTTTTTTTTTTT PDIG        TELAPSE      542.12 TCPU      431.34
 TOTAL ATOMIC CHARGES:
   1.2711480   1.2711480   1.2711480   1.2711480   6.1391972   6.1391972
   6.1391972   6.1391972   5.8519337   5.8519337   5.8519337   5.8519337
   6.3098623   6.3098623   6.3098623   6.3098623   5.6218175   5.6218175
   5.6218175   5.6218175   5.6334488   5.6334488   5.6334488   5.6334488
   5.6501079   5.6501079   5.6501079   5.6501079   7.1651796   7.1651796
[...]
   5   6  C       6.0000      0.0000     0.77000000
  29   7  N       7.0000      0.0000     0.74000000
  49   9  F       9.0000      0.0000     0.72000000
  61  30  ZN     30.0000      0.0000     1.37000000

 SIZE OF GRID=     986316
 TTTTTTTTTTTTTTTTTTTTTTTTTTTTTT MAKE_GRID2  TELAPSE    61769.54 TCPU    60944.82
 BECKE WEIGHT FUNCTION
 RADSAFE =     2.00
 TOLERANCES - DENSITY:10**- 6; POTENTIAL:10**- 9; GRID WGT:10**-14

 RADIAL INTEGRATION  - INTERVALS (POINTS,UPPER LIMIT):            1( 75,  4.0*R)

 ANGULAR INTEGRATION - INTERVALS (ACCURACY LEVEL [N. POINTS] UPPER LIMIT):
  1(  4[  86]   0.2)  2(  8[ 194]   0.5)  3( 12[ 350]   0.9)  4( 16[ 974]   3.5)
  5( 12[ 350]9999.0)
 TTTTTTTTTTTTTTTTTTTTTTTTTTTTTT INT_CALC    TELAPSE    61769.58 TCPU    60944.85
 CYCLE   0   ALPHA  547.681355  EPSILON    2.438383  DELTA    5.4768E+02
 TTTTTTTTTTTTTTTTTTTTTTTTTTTTTT MOQGAD      TELAPSE    61938.25 TCPU    61112.61
 TTTTTTTTTTTTTTTTTTTTTTTTTTTTTT CP_MONMON   TELAPSE    61942.47 TCPU    61116.81
 DIIS TEST: 0.81082E+02 AT CPHF  CYCLE   1 - MIX    0 %
 CYCLE   1   ALPHA  240.672914  EPSILON    1.632082  DELTA   -3.0701E+02
 TTTTTTTTTTTTTTTTTTTTTTTTTTTTTT MOQGAD      TELAPSE    62114.36 TCPU    61287.47
 TTTTTTTTTTTTTTTTTTTTTTTTTTTTTT CP_MONMON   TELAPSE    62118.58 TCPU    61291.67
 DIIS TEST: 0.57914E+03 AT CPHF  CYCLE   2 - DIIS ACTIVE - HISTORY:     2 CYCLES
 CYCLE   2   ALPHA  398.299960  EPSILON    2.046060  DELTA    1.5763E+02
 TTTTTTTTTTTTTTTTTTTTTTTTTTTTTT MOQGAD      TELAPSE    62291.60 TCPU    61463.36
 TTTTTTTTTTTTTTTTTTTTTTTTTTTTTT CP_MONMON   TELAPSE    62295.82 TCPU    61467.56
 DIIS TEST: 0.17933E+02 AT CPHF  CYCLE   3 - DIIS ACTIVE - HISTORY:     3 CYCLES
 CYCLE   3   ALPHA  421.219552  EPSILON    2.106255  DELTA    2.2920E+01
 TTTTTTTTTTTTTTTTTTTTTTTTTTTTTT MOQGAD      TELAPSE    62469.19 TCPU    61639.64
 TTTTTTTTTTTTTTTTTTTTTTTTTTTTTT CP_MONMON   TELAPSE    62473.41 TCPU    61643.83
 DIIS TEST: 0.53628E+01 AT CPHF  CYCLE   4 - DIIS ACTIVE - HISTORY:     4 CYCLES
 CYCLE   4   ALPHA  423.410486  EPSILON    2.112009  DELTA    2.1909E+00
 TTTTTTTTTTTTTTTTTTTTTTTTTTTTTT MOQGAD      TELAPSE    62646.57 TCPU    61815.71
 TTTTTTTTTTTTTTTTTTTTTTTTTTTTTT CP_MONMON   TELAPSE    62650.78 TCPU    61819.91
 DIIS TEST: 0.12478E+00 AT CPHF  CYCLE   5 - DIIS ACTIVE - HISTORY:     5 CYCLES
 CYCLE   5   ALPHA  423.954465  EPSILON    2.113437  DELTA    5.4398E-01
 TTTTTTTTTTTTTTTTTTTTTTTTTTTTTT MOQGAD      TELAPSE    62824.14 TCPU    61991.96
 TTTTTTTTTTTTTTTTTTTTTTTTTTTTTT CP_MONMON   TELAPSE    62828.36 TCPU    61996.17
 DIIS TEST: 0.28417E-01 AT CPHF  CYCLE   6 - DIIS ACTIVE - HISTORY:     6 CYCLES
 CYCLE   6   ALPHA  424.087394  EPSILON    2.113786  DELTA    1.3293E-01
 TTTTTTTTTTTTTTTTTTTTTTTTTTTTTT MOQGAD      TELAPSE    63000.66 TCPU    62167.16
 TTTTTTTTTTTTTTTTTTTTTTTTTTTTTT CP_MONMON   TELAPSE    63004.89 TCPU    62171.37
 DIIS TEST: 0.37463E-01 AT CPHF  CYCLE   7 - DIIS ACTIVE - HISTORY:     7 CYCLES
 CYCLE   7   ALPHA  424.117040  EPSILON    2.113864  DELTA    2.9646E-02
 TTTTTTTTTTTTTTTTTTTTTTTTTTTTTT MOQGAD      TELAPSE    63177.37 TCPU    62342.53
 TTTTTTTTTTTTTTTTTTTTTTTTTTTTTT CP_MONMON   TELAPSE    63181.59 TCPU    62346.74
 DIIS TEST: 0.20862E-02 AT CPHF  CYCLE   8 - DIIS ACTIVE - HISTORY:     8 CYCLES
 CYCLE   8   ALPHA  424.120442  EPSILON    2.113873  DELTA    3.4024E-03
 TTTTTTTTTTTTTTTTTTTTTTTTTTTTTT MOQGAD      TELAPSE    63354.30 TCPU    62518.19
 TTTTTTTTTTTTTTTTTTTTTTTTTTTTTT CP_MONMON   TELAPSE    63358.52 TCPU    62522.39
 DIIS TEST: 0.38429E-03 AT CPHF  CYCLE   9 - DIIS ACTIVE - HISTORY:     9 CYCLES
 CYCLE   9   ALPHA  424.126277  EPSILON    2.113888  DELTA    5.8348E-03
 TTTTTTTTTTTTTTTTTTTTTTTTTTTTTT MOQGAD      TELAPSE    63530.58 TCPU    62692.95
 TTTTTTTTTTTTTTTTTTTTTTTTTTTTTT CP_MONMON   TELAPSE    63534.80 TCPU    62697.15
 DIIS TEST: 0.34678E-04 AT CPHF  CYCLE  10 - DIIS ACTIVE - HISTORY:    10 CYCLES
 CYCLE  10   ALPHA  424.117837  EPSILON    2.113866  DELTA   -8.4396E-03
 TTTTTTTTTTTTTTTTTTTTTTTTTTTTTT MOQGAD      TELAPSE    63706.76 TCPU    62867.64
 TTTTTTTTTTTTTTTTTTTTTTTTTTTTTT CP_MONMON   TELAPSE    63710.98 TCPU    62871.84
 DIIS TEST: 0.46310E-05 AT CPHF  CYCLE  11 - DIIS ACTIVE - HISTORY:    11 CYCLES
 CYCLE  11   ALPHA  424.115012  EPSILON    2.113859  DELTA   -2.8254E-03
 TTTTTTTTTTTTTTTTTTTTTTTTTTTTTT MOQGAD      TELAPSE    63882.77 TCPU    63042.26
 TTTTTTTTTTTTTTTTTTTTTTTTTTTTTT CP_MONMON   TELAPSE    63886.99 TCPU    63046.47
 DIIS TEST: 0.31867E-06 AT CPHF  CYCLE  12 - DIIS ACTIVE - HISTORY:    12 CYCLES
 CYCLE  12   ALPHA  424.114397  EPSILON    2.113857  DELTA   -6.1514E-04
 TTTTTTTTTTTTTTTTTTTTTTTTTTTTTT CP_SC       TELAPSE    63899.36 TCPU    63057.53

 *******************************************************************************

 POLARIZABILITY (ALPHA), DIELECTRIC (EPSILON) AND FIRST-ORDER ELECTRIC
 SUSCEPTIBILITY (CHI(1)) TENSORS (INDEPENDENT COMPONENTS)

  FR.(eV) COMP.   ALPHA(Re,Im)           EPSILON(Re,Im)                CHI(1)
  1.435   XX     825.0820       0.0000       3.1669       0.0000       2.1669
  1.435   ZZ     424.1144       0.0000       2.1139       0.0000       1.1139

 DIELECTRIC TENSOR

 TENSOR IN PRINCIPAL AXES SYSTEM
 AA  3.166924E+00 BB  3.166924E+00 CC  2.113857E+00

 REFRACTIVE INDICES 
 AA  1.453911E+00 BB  1.779585E+00 CC  1.779585E+00

 OPTICALLY ANISOTROPIC - UNIAXIAL CRYSTAL

 BIREFRINGENCE =  0.3257 (NEGATIVE) - OBLATE OPTICAL ELLIPSOID

 EPSILON=N**2=1+CHI(1)=1+ALPHA*4*PI/V,   4*PI/V=   0.00263 BOHR**(-3)
 ALPHA IN BOHR**3; EPSILON AND CHI(1) ARE DIMENSIONLESS.
 *******************************************************************************

 DYNAMIC FIELD: RUN 10/ 10 - RADIATION WAVELENGTH: 1064.0000 NM

 *******************************************************************************

 ELECTRIC FIELD APPLIED ALONG CARTESIAN DIRECTION X

 *******************************************************************************
 THE NUMBER OF SYMMETRY OPERATORS HAS BEEN REDUCED FROM  4 TO  1

 NEW GRID IN RECIPROCAL SPACE
 *******************************************************************************
 POINTS IN THE IBZ                  14 SHRINKING FACTORS               3  3  3
 *******************************************************************************
 *** K POINTS COORDINATES (OBLIQUE COORDINATES IN UNITS OF SHRINK FAC. )
   1-R(  0  0  0)   2-C(  1  0  0)   3-C(  0  1  2)   4-C(  2  0  1)
   5-C(  0  2  0)   6-C(  1  1  0)   7-C(  1  1  1)   8-C(  1  0  1)
   9-C(  0  1  1)  10-C(  2  1  0)  11-C(  0  0  2)  12-C(  2  1  1)
  13-C(  2  1  2)  14-C(  2  2  1)

 GCALCO - MAX INDICES DIRECT LATTICE VECTOR    14    14    15
 NO.OF VECTORS CREATED 6999 STARS  486 RMAX   200.28847 BOHR
 TTTTTTTTTTTTTTTTTTTTTTTTTTTTTT gordsh1     TELAPSE    63899.37 TCPU    63057.53

 MATRIX SIZE: P(G) 1750036, F(G)  875942, P(G) IRR  878108, F(G) IRR  878108
 MAX G-VECTOR INDEX FOR 1- AND 2-ELECTRON INTEGRALS  59

 TTTTTTTTTTTTTTTTTTTTTTTTTTTTTT INPUT       TELAPSE    63899.45 TCPU    63057.62
 TTTTTTTTTTTTTTTTTTTTTTTTTTTTTT SYMM        TELAPSE    63899.45 TCPU    63057.62

 ***** NEW REFERENCE GEOMETRY *****
 TTTTTTTTTTTTTTTTTTTTTTTTTTTTTT INT_SCREEN  TELAPSE    63899.46 TCPU    63057.63
 INFORMATION **** EXCBUF **** EXCH. BIPO BUFFER: WORDS USED =           0

 DFT PARAMETERS

     ATOM       ELECTRONS   NET CHARGE   R(ANGSTROM)
   1   1  H       1.0000      0.0000     1.11000000
   5   6  C       6.0000      0.0000     0.77000000
  29   7  N       7.0000      0.0000     0.74000000
  49   9  F       9.0000      0.0000     0.72000000
  61  30  ZN     30.0000      0.0000     1.37000000

 SIZE OF GRID=    1972394
 TTTTTTTTTTTTTTTTTTTTTTTTTTTTTT MAKE_GRID2  TELAPSE    63900.68 TCPU    63058.84
 BECKE WEIGHT FUNCTION
 RADSAFE =     2.00
 TOLERANCES - DENSITY:10**- 6; POTENTIAL:10**- 9; GRID WGT:10**-14

 RADIAL INTEGRATION  - INTERVALS (POINTS,UPPER LIMIT):            1( 75,  4.0*R)

 ANGULAR INTEGRATION - INTERVALS (ACCURACY LEVEL [N. POINTS] UPPER LIMIT):
  1(  4[  86]   0.2)  2(  8[ 194]   0.5)  3( 12[ 350]   0.9)  4( 16[ 974]   3.5)
  5( 12[ 350]9999.0)
 TTTTTTTTTTTTTTTTTTTTTTTTTTTTTT INT_CALC    TELAPSE    63900.73 TCPU    63058.89
 CYCLE   0   ALPHA 1216.409497  EPSILON    4.194672  DELTA    1.2164E+03
 TTTTTTTTTTTTTTTTTTTTTTTTTTTTTT MOQGAD      TELAPSE    64223.08 TCPU    63379.56
 TTTTTTTTTTTTTTTTTTTTTTTTTTTTTT CP_MONMON   TELAPSE    64230.77 TCPU    63387.23
 DIIS TEST: 0.39487E+03 AT CPHF  CYCLE   1 - MIX    0 %
 CYCLE   1   ALPHA  -88.329552  EPSILON    0.768019  DELTA   -1.3047E+03
 TTTTTTTTTTTTTTTTTTTTTTTTTTTTTT MOQGAD      TELAPSE    64555.39 TCPU    63709.30
 TTTTTTTTTTTTTTTTTTTTTTTTTTTTTT CP_MONMON   TELAPSE    64563.05 TCPU    63716.92
 DIIS TEST: 0.31830E+04 AT CPHF  CYCLE   2 - DIIS ACTIVE - HISTORY:     2 CYCLES
 CYCLE   2   ALPHA  751.958822  EPSILON    2.974879  DELTA    8.4029E+02
 TTTTTTTTTTTTTTTTTTTTTTTTTTTTTT MOQGAD      TELAPSE    64887.87 TCPU    64039.11
 TTTTTTTTTTTTTTTTTTTTTTTTTTTTTT CP_MONMON   TELAPSE    64895.52 TCPU    64046.73
 DIIS TEST: 0.88472E+02 AT CPHF  CYCLE   3 - DIIS ACTIVE - HISTORY:     3 CYCLES
 CYCLE   3   ALPHA  793.690261  EPSILON    3.084479  DELTA    4.1731E+01
 TTTTTTTTTTTTTTTTTTTTTTTTTTTTTT MOQGAD      TELAPSE    65219.08 TCPU    64367.86
 TTTTTTTTTTTTTTTTTTTTTTTTTTTTTT CP_MONMON   TELAPSE    65226.75 TCPU    64375.50
 DIIS TEST: 0.41943E+01 AT CPHF  CYCLE   4 - DIIS ACTIVE - HISTORY:     4 CYCLES
 CYCLE   4   ALPHA  804.465301  EPSILON    3.112778  DELTA    1.0775E+01
 TTTTTTTTTTTTTTTTTTTTTTTTTTTTTT MOQGAD      TELAPSE    65549.99 TCPU    64696.14
 TTTTTTTTTTTTTTTTTTTTTTTTTTTTTT CP_MONMON   TELAPSE    65557.66 TCPU    64703.77
 DIIS TEST: 0.10478E+01 AT CPHF  CYCLE   5 - DIIS ACTIVE - HISTORY:     5 CYCLES
 CYCLE   5   ALPHA  811.308646  EPSILON    3.130751  DELTA    6.8433E+00
 TTTTTTTTTTTTTTTTTTTTTTTTTTTTTT MOQGAD      TELAPSE    65880.74 TCPU    65024.29
 TTTTTTTTTTTTTTTTTTTTTTTTTTTTTT CP_MONMON   TELAPSE    65888.39 TCPU    65031.91
 DIIS TEST: 0.10789E+00 AT CPHF  CYCLE   6 - DIIS ACTIVE - HISTORY:     6 CYCLES
 CYCLE   6   ALPHA  813.224004  EPSILON    3.135781  DELTA    1.9154E+00
 TTTTTTTTTTTTTTTTTTTTTTTTTTTTTT MOQGAD      TELAPSE    66211.71 TCPU    65352.70
 TTTTTTTTTTTTTTTTTTTTTTTTTTTTTT CP_MONMON   TELAPSE    66219.36 TCPU    65360.32
 DIIS TEST: 0.86164E-02 AT CPHF  CYCLE   7 - DIIS ACTIVE - HISTORY:     7 CYCLES
 CYCLE   7   ALPHA  813.377773  EPSILON    3.136185  DELTA    1.5377E-01
 TTTTTTTTTTTTTTTTTTTTTTTTTTTTTT MOQGAD      TELAPSE    66543.37 TCPU    65681.75
 TTTTTTTTTTTTTTTTTTTTTTTTTTTTTT CP_MONMON   TELAPSE    66551.02 TCPU    65689.37
 DIIS TEST: 0.85665E-03 AT CPHF  CYCLE   8 - DIIS ACTIVE - HISTORY:     8 CYCLES
 CYCLE   8   ALPHA  813.447119  EPSILON    3.136367  DELTA    6.9346E-02
 TTTTTTTTTTTTTTTTTTTTTTTTTTTTTT MOQGAD      TELAPSE    66875.42 TCPU    66011.22
 TTTTTTTTTTTTTTTTTTTTTTTTTTTTTT CP_MONMON   TELAPSE    66883.15 TCPU    66018.88
 DIIS TEST: 0.12762E-03 AT CPHF  CYCLE   9 - DIIS ACTIVE - HISTORY:     9 CYCLES
 CYCLE   9   ALPHA  813.441112  EPSILON    3.136351  DELTA   -6.0071E-03
 TTTTTTTTTTTTTTTTTTTTTTTTTTTTTT MOQGAD      TELAPSE    67206.63 TCPU    66339.81
 TTTTTTTTTTTTTTTTTTTTTTTTTTTTTT CP_MONMON   TELAPSE    67214.28 TCPU    66347.42
 DIIS TEST: 0.82041E-05 AT CPHF  CYCLE  10 - DIIS ACTIVE - HISTORY:    10 CYCLES
 CYCLE  10   ALPHA  813.425306  EPSILON    3.136310  DELTA   -1.5806E-02
 TTTTTTTTTTTTTTTTTTTTTTTTTTTTTT MOQGAD      TELAPSE    67538.04 TCPU    66668.65
 TTTTTTTTTTTTTTTTTTTTTTTTTTTTTT CP_MONMON   TELAPSE    67545.69 TCPU    66676.26
 DIIS TEST: 0.20638E-05 AT CPHF  CYCLE  11 - DIIS ACTIVE - HISTORY:    11 CYCLES
 CYCLE  11   ALPHA  813.420100  EPSILON    3.136296  DELTA   -5.2062E-03
 TTTTTTTTTTTTTTTTTTTTTTTTTTTTTT MOQGAD      TELAPSE    67870.27 TCPU    66998.23
 TTTTTTTTTTTTTTTTTTTTTTTTTTTTTT CP_MONMON   TELAPSE    67878.02 TCPU    67005.91
 DIIS TEST: 0.60199E-06 AT CPHF  CYCLE  12 - DIIS ACTIVE - HISTORY:    12 CYCLES
 CYCLE  12   ALPHA  813.419289  EPSILON    3.136294  DELTA   -8.1043E-04
 TTTTTTTTTTTTTTTTTTTTTTTTTTTTTT CP_SC       TELAPSE    67892.13 TCPU    67018.94

 *******************************************************************************

 ELECTRIC FIELD APPLIED ALONG CARTESIAN DIRECTION Z

 *******************************************************************************
 THE NUMBER OF SYMMETRY OPERATORS HAS BEEN REDUCED FROM  4 TO  2

 NEW GRID IN RECIPROCAL SPACE
 *******************************************************************************
 POINTS IN THE IBZ                  10 SHRINKING FACTORS               3  3  3
 *******************************************************************************
 *** K POINTS COORDINATES (OBLIQUE COORDINATES IN UNITS OF SHRINK FAC. )
   1-R(  0  0  0)   2-C(  1  0  0)   3-C(  2  0  1)   4-C(  1  1  0)
   5-C(  1  0  1)   6-C(  2  1  0)   7-C(  0  0  2)   8-C(  2  1  1)
   9-C(  2  1  2)  10-C(  2  2  1)

 GCALCO - MAX INDICES DIRECT LATTICE VECTOR    14    14    15
 NO.OF VECTORS CREATED 6999 STARS  486 RMAX   200.28847 BOHR
 TTTTTTTTTTTTTTTTTTTTTTTTTTTTTT gordsh1     TELAPSE    67892.14 TCPU    67018.95

 MATRIX SIZE: P(G) 1750036, F(G)  875942, P(G) IRR  441514, F(G) IRR  441514
 MAX G-VECTOR INDEX FOR 1- AND 2-ELECTRON INTEGRALS  59

 TTTTTTTTTTTTTTTTTTTTTTTTTTTTTT INPUT       TELAPSE    67892.17 TCPU    67018.97
 TTTTTTTTTTTTTTTTTTTTTTTTTTTTTT SYMM        TELAPSE    67892.17 TCPU    67018.97

 ***** NEW REFERENCE GEOMETRY *****
 TTTTTTTTTTTTTTTTTTTTTTTTTTTTTT INT_SCREEN  TELAPSE    67892.17 TCPU    67018.98
 INFORMATION **** EXCBUF **** EXCH. BIPO BUFFER: WORDS USED =           0

 DFT PARAMETERS

     ATOM       ELECTRONS   NET CHARGE   R(ANGSTROM)
   1   1  H       1.0000      0.0000     1.11000000
   5   6  C       6.0000      0.0000     0.77000000
  29   7  N       7.0000      0.0000     0.74000000
  49   9  F       9.0000      0.0000     0.72000000
  61  30  ZN     30.0000      0.0000     1.37000000

 SIZE OF GRID=     986316
 TTTTTTTTTTTTTTTTTTTTTTTTTTTTTT MAKE_GRID2  TELAPSE    67892.95 TCPU    67019.75
 BECKE WEIGHT FUNCTION
 RADSAFE =     2.00
 TOLERANCES - DENSITY:10**- 6; POTENTIAL:10**- 9; GRID WGT:10**-14

 RADIAL INTEGRATION  - INTERVALS (POINTS,UPPER LIMIT):            1( 75,  4.0*R)

 ANGULAR INTEGRATION - INTERVALS (ACCURACY LEVEL [N. POINTS] UPPER LIMIT):
  1(  4[  86]   0.2)  2(  8[ 194]   0.5)  3( 12[ 350]   0.9)  4( 16[ 974]   3.5)
  5( 12[ 350]9999.0)
 TTTTTTTTTTTTTTTTTTTTTTTTTTTTTT INT_CALC    TELAPSE    67892.99 TCPU    67019.78
 CYCLE   0   ALPHA  542.485011  EPSILON    2.424736  DELTA    5.4249E+02
 TTTTTTTTTTTTTTTTTTTTTTTTTTTTTT MOQGAD      TELAPSE    68067.44 TCPU    67193.46
 TTTTTTTTTTTTTTTTTTTTTTTTTTTTTT CP_MONMON   TELAPSE    68071.67 TCPU    67197.66
 DIIS TEST: 0.78378E+02 AT CPHF  CYCLE   1 - MIX    0 %
 CYCLE   1   ALPHA  244.398771  EPSILON    1.641868  DELTA   -2.9809E+02
 TTTTTTTTTTTTTTTTTTTTTTTTTTTTTT MOQGAD      TELAPSE    68249.53 TCPU    67374.10
 TTTTTTTTTTTTTTTTTTTTTTTTTTTTTT CP_MONMON   TELAPSE    68253.76 TCPU    67378.31
 DIIS TEST: 0.53650E+03 AT CPHF  CYCLE   2 - DIIS ACTIVE - HISTORY:     2 CYCLES
 CYCLE   2   ALPHA  396.054083  EPSILON    2.040162  DELTA    1.5166E+02
 TTTTTTTTTTTTTTTTTTTTTTTTTTTTTT MOQGAD      TELAPSE    68432.33 TCPU    67555.03
 TTTTTTTTTTTTTTTTTTTTTTTTTTTTTT CP_MONMON   TELAPSE    68436.55 TCPU    67559.24
 DIIS TEST: 0.17243E+02 AT CPHF  CYCLE   3 - DIIS ACTIVE - HISTORY:     3 CYCLES
 CYCLE   3   ALPHA  418.304636  EPSILON    2.098599  DELTA    2.2251E+01
 TTTTTTTTTTTTTTTTTTTTTTTTTTTTTT MOQGAD      TELAPSE    68615.66 TCPU    67734.90
 TTTTTTTTTTTTTTTTTTTTTTTTTTTTTT CP_MONMON   TELAPSE    68619.89 TCPU    67739.11
 DIIS TEST: 0.48768E+01 AT CPHF  CYCLE   4 - DIIS ACTIVE - HISTORY:     4 CYCLES
 CYCLE   4   ALPHA  420.364835  EPSILON    2.104010  DELTA    2.0602E+00
 TTTTTTTTTTTTTTTTTTTTTTTTTTTTTT MOQGAD      TELAPSE    68796.85 TCPU    67914.77
 TTTTTTTTTTTTTTTTTTTTTTTTTTTTTT CP_MONMON   TELAPSE    68801.06 TCPU    67918.97
 DIIS TEST: 0.10851E+00 AT CPHF  CYCLE   5 - DIIS ACTIVE - HISTORY:     5 CYCLES
 CYCLE   5   ALPHA  420.882785  EPSILON    2.105370  DELTA    5.1795E-01
 TTTTTTTTTTTTTTTTTTTTTTTTTTTTTT MOQGAD      TELAPSE    68977.75 TCPU    68094.39
 TTTTTTTTTTTTTTTTTTTTTTTTTTTTTT CP_MONMON   TELAPSE    68981.97 TCPU    68098.59
 DIIS TEST: 0.24944E-01 AT CPHF  CYCLE   6 - DIIS ACTIVE - HISTORY:     6 CYCLES
 CYCLE   6   ALPHA  421.003808  EPSILON    2.105688  DELTA    1.2102E-01
 TTTTTTTTTTTTTTTTTTTTTTTTTTTTTT MOQGAD      TELAPSE    69158.73 TCPU    68274.06
 TTTTTTTTTTTTTTTTTTTTTTTTTTTTTT CP_MONMON   TELAPSE    69162.94 TCPU    68278.26
 DIIS TEST: 0.33037E-01 AT CPHF  CYCLE   7 - DIIS ACTIVE - HISTORY:     7 CYCLES
 CYCLE   7   ALPHA  421.027521  EPSILON    2.105750  DELTA    2.3713E-02
 TTTTTTTTTTTTTTTTTTTTTTTTTTTTTT MOQGAD      TELAPSE    69339.81 TCPU    68453.79
 TTTTTTTTTTTTTTTTTTTTTTTTTTTTTT CP_MONMON   TELAPSE    69344.03 TCPU    68457.99
 DIIS TEST: 0.18490E-02 AT CPHF  CYCLE   8 - DIIS ACTIVE - HISTORY:     8 CYCLES
 CYCLE   8   ALPHA  421.030586  EPSILON    2.105758  DELTA    3.0653E-03
 TTTTTTTTTTTTTTTTTTTTTTTTTTTTTT MOQGAD      TELAPSE    69520.82 TCPU    68633.50
 TTTTTTTTTTTTTTTTTTTTTTTTTTTTTT CP_MONMON   TELAPSE    69525.04 TCPU    68637.70
 DIIS TEST: 0.32963E-03 AT CPHF  CYCLE   9 - DIIS ACTIVE - HISTORY:     9 CYCLES
 CYCLE   9   ALPHA  421.034884  EPSILON    2.105770  DELTA    4.2978E-03
 TTTTTTTTTTTTTTTTTTTTTTTTTTTTTT MOQGAD      TELAPSE    69702.80 TCPU    68814.17
 TTTTTTTTTTTTTTTTTTTTTTTTTTTTTT CP_MONMON   TELAPSE    69707.02 TCPU    68818.37
 DIIS TEST: 0.30383E-04 AT CPHF  CYCLE  10 - DIIS ACTIVE - HISTORY:    10 CYCLES
 CYCLE  10   ALPHA  421.026977  EPSILON    2.105749  DELTA   -7.9073E-03
 TTTTTTTTTTTTTTTTTTTTTTTTTTTTTT MOQGAD      TELAPSE    69884.01 TCPU    68994.10
 TTTTTTTTTTTTTTTTTTTTTTTTTTTTTT CP_MONMON   TELAPSE    69888.23 TCPU    68998.30
 DIIS TEST: 0.37551E-05 AT CPHF  CYCLE  11 - DIIS ACTIVE - HISTORY:    11 CYCLES
 CYCLE  11   ALPHA  421.024483  EPSILON    2.105742  DELTA   -2.4939E-03
 TTTTTTTTTTTTTTTTTTTTTTTTTTTTTT MOQGAD      TELAPSE    70064.88 TCPU    69173.66
 TTTTTTTTTTTTTTTTTTTTTTTTTTTTTT CP_MONMON   TELAPSE    70069.10 TCPU    69177.87
 DIIS TEST: 0.28772E-06 AT CPHF  CYCLE  12 - DIIS ACTIVE - HISTORY:    12 CYCLES
 CYCLE  12   ALPHA  421.023967  EPSILON    2.105741  DELTA   -5.1551E-04
 TTTTTTTTTTTTTTTTTTTTTTTTTTTTTT CP_SC       TELAPSE    70080.73 TCPU    69188.88

 *******************************************************************************

 POLARIZABILITY (ALPHA), DIELECTRIC (EPSILON) AND FIRST-ORDER ELECTRIC
 SUSCEPTIBILITY (CHI(1)) TENSORS (INDEPENDENT COMPONENTS)

  FR.(eV) COMP.   ALPHA(Re,Im)           EPSILON(Re,Im)                CHI(1)
  1.165   XX     813.4193       0.0000       3.1363       0.0000       2.1363
  1.165   ZZ     421.0240       0.0000       2.1057       0.0000       1.1057

 DIELECTRIC TENSOR

 TENSOR IN PRINCIPAL AXES SYSTEM
 AA  3.136294E+00 BB  3.136294E+00 CC  2.105741E+00

 REFRACTIVE INDICES 
 AA  1.451117E+00 BB  1.770958E+00 CC  1.770958E+00

 OPTICALLY ANISOTROPIC - UNIAXIAL CRYSTAL

 BIREFRINGENCE =  0.3198 (NEGATIVE) - OBLATE OPTICAL ELLIPSOID

 EPSILON=N**2=1+CHI(1)=1+ALPHA*4*PI/V,   4*PI/V=   0.00263 BOHR**(-3)
 ALPHA IN BOHR**3; EPSILON AND CHI(1) ARE DIMENSIONLESS.
 *******************************************************************************


 GCALCO - MAX INDICES DIRECT LATTICE VECTOR    14    14    15
 NO.OF VECTORS CREATED 6999 STARS  486 RMAX   200.28847 BOHR

 CAPPA:IS1  3;IS2  3;IS3  3; K PTS MONK NET   6; SYMMOPS:K SPACE   8;G SPACE   4

 TTTTTTTTTTTTTTTTTTTTTTTTTTTTTT END         TELAPSE    70080.77 TCPU    69188.88
 EEEEEEEEEE TERMINATION  DATE 08 12 2023 TIME 09:23:00.1
NODE    0 CPU TIME =     69188.883
    TOTAL CPU TIME =   4435901.466
trying normal rsh (/usr/bin/rsh)
exec: No such file or directory
trying normal rsh (/usr/bin/rsh)
exec: No such file or directory
trying normal rsh (/usr/bin/rsh)
exec: No such file or directory
trying normal rsh (/usr/bin/rsh)
exec: No such file or directory
