Loading crystal17/1.0.2/intel/19.0
  Loading requirement: intel/19.0 ompi/4.0.1/intel/19.0
          64 PROCESSORS WORKING

         
 *******************************************************************************
 *                                                                             *
 *                               CRYSTAL17                                     *
 *                      public : 1.0.2 - March 1st, 2018                       *
 *                       HTTP://WWW.CRYSTAL.UNITO.IT                           *
 *                                                                             *
 *                              MAIN AUTHORS                                   *
 *                                                                             *
 *  R. DOVESI(1,11), V.R. SAUNDERS(2), C. ROETTI(1,11), R. ORLANDO(1,11),      *
 *  C.M. ZICOVICH-WILSON(1,3), F. PASCALE(4), B. CIVALLERI(1,11),              *
 *  K. DOLL(5), N.M. HARRISON(2,6), I.J. BUSH(7), Ph. D'ARCO(8),               *
 *  M. LLUNELL(9), M. CAUSA'(10), Y. NOEL(8), L. MASCHIO(1,11), A. ERBA(1,11)  *
 *  M. RE'RAT(14), S. CASASSA(1,11)                                            *
 *                                                                             *
 *        CONTRIBUTIONS TO THE CODE HAVE ALSO BEEN GIVEN BY                    *
 *                                                                             *
 *  M. FERRABONE(1,11), M. DE LA PIERRE(1,11), M. FERRERO(1,11),               *
 *  J. BAIMA(1,11), E. ALBANESE(1,11), M.F. PEINTINGER(12), R. BAST(13),       *
 *  B. KIRTMAN(15), V. LACIVITA(1,11), R. DEMICHELIS(1,16)                     *
 *  G. BRANDEBURG(17), S. SALUSTRO(1,11), G. SANSONE(1,11)                     *
 *  M.T. RUGGIERO(18)                                                          *
 *                                                                             *
 * (1) THEORETICAL CHEMISTRY GROUP - UNIVERSITA' DI TORINO - TORINO (ITALY)    *
 * (2) COMPUTATIONAL SCIENCE & ENGINEERING DEPARTMENT - STFC DARESBURY (UK)    *
 * (3) UNIVERSIDAD AUTONOMA DEL ESTADO DE MORELOS - CUERNAVACA (MEXICO)        *
 * (4) UNIVERSITE' DE LORRAINE - NANCY (FRANCE)                                *
 * (5) UNIVERSITAET STUTTGART- STUTTGART (GERMANY)                             *
 * (6) IMPERIAL COLLEGE - LONDON (UK)                                          *
 * (7) OXFORD E-RESEARCH CENTRE - OXFORD (UK)                                  *
 * (8) UPMC - SORBONNE UNIVERSITES - PARIS (FRANCE)                            *
 * (9) UNIVERSIDAD DE BARCELONA - BARCELONA (SPAIN)                            *
 *(10) UNIVERSITA' DI NAPOLI "FEDERICO II" - NAPOLI (ITALY)                    *
 *(11) NIS - NANOSTRUCTURED INTERFACES AND SURFACES - TORINO (ITALY)           *
 *(12) MPI FUER CHEMISCHE ENERGIEKONVERSION - MUELHEIM AN DER RUHR (GERMANY)   *
 *(13) UNIVERSITY OF TROMSO - TROMSO (NORWAY)                                  *
 *(14) UNIVERSITE' DE PAU ET DES PAYS DE L'ADOUR - PAU (FRANCE)                *
 *(15) UNIVERSITY OF CALIFORNIA SANTA BARBARA - SANTA BARBARA (USA)            *
 *(16) CURTIN UNIVERSITY - PERTH (AUSTRALIA)                                   *
 *(17) UNIVERSITY COLLEGE LONDON - LONDON (UK)                                 *
 *(18) CAMBRIDGE UNIVERSITY - CAMBRIDGE (UK)                                   *
 *                                                                             *
 *******************************************************************************
 EEEEEEEEEE STARTING  DATE 17 01 2024 TIME 15:39:39.2
 Z:\home\sanoj\Downloads\tmp_p\newconn.mol                                       

 CRYSTAL CALCULATION
 (INPUT ACCORDING TO THE INTERNATIONAL TABLES FOR X-RAY CRYSTALLOGRAPHY)
 CRYSTAL FAMILY                       :  TETRAGONAL  
 CRYSTAL CLASS  (GROTH - 1921)        :  TETRAGONAL DISPHENOIDAL              

 SPACE GROUP (NONCENTROSYMMETRIC)     :  I -4            

 LATTICE PARAMETERS  (ANGSTROMS AND DEGREES) - CONVENTIONAL CELL
        A           B           C        ALPHA        BETA       GAMMA
    10.90645    10.90645    11.96262    90.00000    90.00000    90.00000


 NUMBER OF IRREDUCIBLE ATOMS IN THE CONVENTIONAL CELL:   17

 INPUT COORDINATES

 ATOM AT. N.              COORDINATES
   1   6     2.662400000000E-01  8.146300000000E-01  3.862900000000E-01
   2   6     2.511600000000E-01 -5.332000000000E-02  3.776900000000E-01
   3   6     1.729100000000E-01  7.284500000000E-01  3.667500000000E-01
   4   6     3.196800000000E-01  5.674600000000E-01  3.731300000000E-01
   5   6     3.814700000000E-01  7.613900000000E-01  4.046800000000E-01
   6   6     8.019200000000E-01  3.964800000000E-01  3.590300000000E-01
   7   7     3.382700000000E-01  2.135000000000E-02  3.335400000000E-01
   8   7     2.930900000000E-01  1.387900000000E-01  3.397300000000E-01
   9   7     1.538000000000E-01  1.529000000000E-02  4.091900000000E-01
  10   7     1.826500000000E-01  1.354700000000E-01  3.841500000000E-01
  11   7     4.093500000000E-01  6.442800000000E-01  3.976300000000E-01
  12   9     5.688000000000E-02  7.661200000000E-01  3.541000000000E-01
  13   9     4.750500000000E-01  8.366900000000E-01  4.321600000000E-01
  14   9     1.107700000000E-01  5.208800000000E-01  3.401400000000E-01
  15   9     3.462100000000E-01  4.486100000000E-01  3.623500000000E-01
  16  30     0.000000000000E+00  5.000000000000E-01  7.500000000000E-01
  17  30     0.000000000000E+00  0.000000000000E+00  5.000000000000E-01

 *******************************************************************************

 << INFORMATION >>: FROM NOW ON, ALL COORDINATES REFER TO THE PRIMITIVE CELL

 *******************************************************************************

 LATTICE PARAMETERS  (ANGSTROMS AND DEGREES) - PRIMITIVE CELL
       A          B          C        ALPHA      BETA     GAMMA        VOLUME
    9.75968    9.75968    9.75968   112.06117 112.06117 104.40695    711.481160

 COORDINATES OF THE EQUIVALENT ATOMS (FRACTIONAL UNITS)

 N. ATOM EQUIV AT. N.          X                  Y                  Z

   1   1   1    6 C     2.00920000000E-01 -3.47470000000E-01  8.08700000000E-02
   2   1   2    6 C    -4.28340000000E-01  1.20050000000E-01 -8.08700000000E-02
   3   1   3    6 C     3.47470000000E-01  4.28340000000E-01 -4.51610000000E-01
   4   1   4    6 C    -1.20050000000E-01 -2.00920000000E-01  4.51610000000E-01

   5   2   1    6 C     3.24370000000E-01 -3.71150000000E-01  1.97840000000E-01
   6   2   2    6 C     4.31010000000E-01  1.26530000000E-01 -1.97840000000E-01
   7   2   3    6 C     3.71150000000E-01 -4.31010000000E-01 -3.04480000000E-01
   8   2   4    6 C    -1.26530000000E-01 -3.24370000000E-01  3.04480000000E-01

   9   3   1    6 C     9.52000000000E-02 -4.60340000000E-01 -9.86400000000E-02
  10   3   2    6 C    -3.61700000000E-01  1.93840000000E-01  9.86400000000E-02
  11   3   3    6 C     4.60340000000E-01  3.61700000000E-01 -4.44460000000E-01
  12   3   4    6 C    -1.93840000000E-01 -9.52000000000E-02  4.44460000000E-01

  13   4   1    6 C    -5.94100000000E-02 -3.07190000000E-01 -1.12860000000E-01
  14   4   2    6 C    -1.94330000000E-01  5.34500000000E-02  1.12860000000E-01
  15   4   3    6 C     3.07190000000E-01  1.94330000000E-01  2.47780000000E-01
  16   4   4    6 C    -5.34500000000E-02  5.94100000000E-02 -2.47780000000E-01

  17   5   1    6 C     1.66070000000E-01 -2.13850000000E-01  1.42860000000E-01
  18   5   2    6 C    -3.56710000000E-01  2.32100000000E-02 -1.42860000000E-01
  19   5   3    6 C     2.13850000000E-01  3.56710000000E-01  3.79920000000E-01
  20   5   4    6 C    -2.32100000000E-02 -1.66070000000E-01 -3.79920000000E-01

  21   6   1    6 C    -2.44490000000E-01  1.60950000000E-01  1.98400000000E-01
  22   6   2    6 C    -3.74500000000E-02 -4.42890000000E-01 -1.98400000000E-01
  23   6   3    6 C    -1.60950000000E-01  3.74500000000E-02 -4.05440000000E-01
  24   6   4    6 C     4.42890000000E-01  2.44490000000E-01  4.05440000000E-01

  25   7   1    7 N     3.54890000000E-01 -3.28190000000E-01  3.59620000000E-01
  26   7   2    7 N     3.12190000000E-01 -4.73000000000E-03 -3.59620000000E-01
  27   7   3    7 N     3.28190000000E-01 -3.12190000000E-01 -3.16920000000E-01
  28   7   4    7 N     4.73000000000E-03 -3.54890000000E-01  3.16920000000E-01

  29   8   1    7 N     4.78520000000E-01 -3.67180000000E-01  4.31880000000E-01
  30   8   2    7 N     2.00940000000E-01  4.66400000000E-02 -4.31880000000E-01
  31   8   3    7 N     3.67180000000E-01 -2.00940000000E-01 -1.54300000000E-01
  32   8   4    7 N    -4.66400000000E-02 -4.78520000000E-01  1.54300000000E-01

  33   9   1    7 N     4.24480000000E-01 -4.37010000000E-01  1.69090000000E-01
  34   9   2    7 N     3.93900000000E-01  2.55390000000E-01 -1.69090000000E-01
  35   9   3    7 N     4.37010000000E-01 -3.93900000000E-01 -1.38510000000E-01
  36   9   4    7 N    -2.55390000000E-01 -4.24480000000E-01  1.38510000000E-01

  37  10   1    7 N    -4.80380000000E-01 -4.33200000000E-01  3.18120000000E-01
  38  10   2    7 N     2.48680000000E-01  2.01500000000E-01 -3.18120000000E-01
  39  10   3    7 N     4.33200000000E-01 -2.48680000000E-01 -4.71800000000E-02
  40  10   4    7 N    -2.01500000000E-01  4.80380000000E-01  4.71800000000E-02

  41  11   1    7 N     4.19100000000E-02 -1.93020000000E-01  5.36300000000E-02
  42  11   2    7 N    -2.46650000000E-01 -1.17200000000E-02 -5.36300000000E-02
  43  11   3    7 N     1.93020000000E-01  2.46650000000E-01  2.34930000000E-01
  44  11   4    7 N     1.17200000000E-02 -4.19100000000E-02 -2.34930000000E-01

  45  12   1    9 F     1.20220000000E-01  4.10980000000E-01 -1.77000000000E-01
  46  12   2    9 F    -4.12020000000E-01  2.97220000000E-01  1.77000000000E-01
  47  12   3    9 F    -4.10980000000E-01  4.12020000000E-01 -2.90760000000E-01
  48  12   4    9 F    -2.97220000000E-01 -1.20220000000E-01  2.90760000000E-01

  49  13   1    9 F     2.68850000000E-01 -9.27900000000E-02  3.11740000000E-01
  50  13   2    9 F    -4.04530000000E-01 -4.28900000000E-02 -3.11740000000E-01
  51  13   3    9 F     9.27900000000E-02  4.04530000000E-01  3.61640000000E-01
  52  13   4    9 F     4.28900000000E-02 -2.68850000000E-01 -3.61640000000E-01

  53  14   1    9 F    -1.38980000000E-01  4.50910000000E-01 -3.68350000000E-01
  54  14   2    9 F    -1.80740000000E-01  2.29370000000E-01  3.68350000000E-01
  55  14   3    9 F    -4.50910000000E-01  1.80740000000E-01  4.10110000000E-01
  56  14   4    9 F    -2.29370000000E-01  1.38980000000E-01 -4.10110000000E-01

  57  15   1    9 F    -1.89040000000E-01 -2.91440000000E-01 -2.05180000000E-01
  58  15   2    9 F    -8.62600000000E-02  1.61400000000E-02  2.05180000000E-01
  59  15   3    9 F     2.91440000000E-01  8.62600000000E-02  1.02400000000E-01
  60  15   4    9 F    -1.61400000000E-02  1.89040000000E-01 -1.02400000000E-01

  61  16   1   30 ZN    2.50000000000E-01 -2.50000000000E-01 -5.00000000000E-01

  62  17   1   30 ZN   -5.00000000000E-01 -5.00000000000E-01  0.00000000000E+00

 NUMBER OF SYMMETRY OPERATORS         :    4
 *******************************************************************************
 * GEOMETRY EDITING - INPUT COORDINATES ARE GIVEN IN ANGSTROM         
 *******************************************************************************

 GEOMETRY NOW FULLY CONSISTENT WITH THE GROUP

 GCALCO - MAX INDICES DIRECT LATTICE VECTOR    14    14    15
 NO.OF VECTORS CREATED 6999 STARS  487 RMAX   199.84368 BOHR

 GEOMETRY FOR WAVE FUNCTION - DIMENSIONALITY OF THE SYSTEM    3
 (NON PERIODIC DIRECTION: LATTICE PARAMETER FORMALLY SET TO 500)
 *******************************************************************************
 LATTICE PARAMETERS (ANGSTROMS AND DEGREES) - BOHR = 0.5291772083 ANGSTROM
 PRIMITIVE CELL - CENTRING CODE 6/0 VOLUME=   711.481160 - DENSITY  2.334 g/cm^3
         A              B              C           ALPHA      BETA       GAMMA 
     9.75968412     9.75968412     9.75968412   112.061171 112.061171 104.406954
 *******************************************************************************
 ATOMS IN THE ASYMMETRIC UNIT   17 - ATOMS IN THE UNIT CELL:   62
     ATOM                 X/A                 Y/B                 Z/C    
 *******************************************************************************
      1 T   6 C     2.009200000000E-01 -3.474700000000E-01  8.087000000000E-02
      2 F   6 C    -4.283400000000E-01  1.200500000000E-01 -8.087000000000E-02
      3 F   6 C     3.474700000000E-01  4.283400000000E-01 -4.516100000000E-01
      4 F   6 C    -1.200500000000E-01 -2.009200000000E-01  4.516100000000E-01
      5 T   6 C     3.243700000000E-01 -3.711500000000E-01  1.978400000000E-01
      6 F   6 C     4.310100000000E-01  1.265300000000E-01 -1.978400000000E-01
      7 F   6 C     3.711500000000E-01 -4.310100000000E-01 -3.044800000000E-01
      8 F   6 C    -1.265300000000E-01 -3.243700000000E-01  3.044800000000E-01
      9 T   6 C     9.520000000000E-02 -4.603400000000E-01 -9.864000000000E-02
     10 F   6 C    -3.617000000000E-01  1.938400000000E-01  9.864000000000E-02
     11 F   6 C     4.603400000000E-01  3.617000000000E-01 -4.444600000000E-01
     12 F   6 C    -1.938400000000E-01 -9.520000000000E-02  4.444600000000E-01
     13 T   6 C    -5.941000000000E-02 -3.071900000000E-01 -1.128600000000E-01
     14 F   6 C    -1.943300000000E-01  5.345000000000E-02  1.128600000000E-01
     15 F   6 C     3.071900000000E-01  1.943300000000E-01  2.477800000000E-01
     16 F   6 C    -5.345000000000E-02  5.941000000000E-02 -2.477800000000E-01
     17 T   6 C     1.660700000000E-01 -2.138500000000E-01  1.428600000000E-01
     18 F   6 C    -3.567100000000E-01  2.321000000000E-02 -1.428600000000E-01
     19 F   6 C     2.138500000000E-01  3.567100000000E-01  3.799200000000E-01
     20 F   6 C    -2.321000000000E-02 -1.660700000000E-01 -3.799200000000E-01
     21 T   6 C    -2.444900000000E-01  1.609500000000E-01  1.984000000000E-01
     22 F   6 C    -3.745000000000E-02 -4.428900000000E-01 -1.984000000000E-01
     23 F   6 C    -1.609500000000E-01  3.745000000000E-02 -4.054400000000E-01
     24 F   6 C     4.428900000000E-01  2.444900000000E-01  4.054400000000E-01
     25 T   7 N     3.548900000000E-01 -3.281900000000E-01  3.596200000000E-01
     26 F   7 N     3.121900000000E-01 -4.730000000000E-03 -3.596200000000E-01
     27 F   7 N     3.281900000000E-01 -3.121900000000E-01 -3.169200000000E-01
     28 F   7 N     4.730000000000E-03 -3.548900000000E-01  3.169200000000E-01
     29 T   7 N     4.785200000000E-01 -3.671800000000E-01  4.318800000000E-01
     30 F   7 N     2.009400000000E-01  4.664000000000E-02 -4.318800000000E-01
     31 F   7 N     3.671800000000E-01 -2.009400000000E-01 -1.543000000000E-01
     32 F   7 N    -4.664000000000E-02 -4.785200000000E-01  1.543000000000E-01
     33 T   7 N     4.244800000000E-01 -4.370100000000E-01  1.690900000000E-01
     34 F   7 N     3.939000000000E-01  2.553900000000E-01 -1.690900000000E-01
     35 F   7 N     4.370100000000E-01 -3.939000000000E-01 -1.385100000000E-01
     36 F   7 N    -2.553900000000E-01 -4.244800000000E-01  1.385100000000E-01
     37 T   7 N    -4.803800000000E-01 -4.332000000000E-01  3.181200000000E-01
     38 F   7 N     2.486800000000E-01  2.015000000000E-01 -3.181200000000E-01
     39 F   7 N     4.332000000000E-01 -2.486800000000E-01 -4.718000000000E-02
     40 F   7 N    -2.015000000000E-01  4.803800000000E-01  4.718000000000E-02
     41 T   7 N     4.191000000000E-02 -1.930200000000E-01  5.363000000000E-02
     42 F   7 N    -2.466500000000E-01 -1.172000000000E-02 -5.363000000000E-02
     43 F   7 N     1.930200000000E-01  2.466500000000E-01  2.349300000000E-01
     44 F   7 N     1.172000000000E-02 -4.191000000000E-02 -2.349300000000E-01
     45 T   9 F     1.202200000000E-01  4.109800000000E-01 -1.770000000000E-01
     46 F   9 F    -4.120200000000E-01  2.972200000000E-01  1.770000000000E-01
     47 F   9 F    -4.109800000000E-01  4.120200000000E-01 -2.907600000000E-01
     48 F   9 F    -2.972200000000E-01 -1.202200000000E-01  2.907600000000E-01
     49 T   9 F     2.688500000000E-01 -9.279000000000E-02  3.117400000000E-01
     50 F   9 F    -4.045300000000E-01 -4.289000000000E-02 -3.117400000000E-01
     51 F   9 F     9.279000000000E-02  4.045300000000E-01  3.616400000000E-01
     52 F   9 F     4.289000000000E-02 -2.688500000000E-01 -3.616400000000E-01
     53 T   9 F    -1.389800000000E-01  4.509100000000E-01 -3.683500000000E-01
     54 F   9 F    -1.807400000000E-01  2.293700000000E-01  3.683500000000E-01
     55 F   9 F    -4.509100000000E-01  1.807400000000E-01  4.101100000000E-01
     56 F   9 F    -2.293700000000E-01  1.389800000000E-01 -4.101100000000E-01
     57 T   9 F    -1.890400000000E-01 -2.914400000000E-01 -2.051800000000E-01
     58 F   9 F    -8.626000000000E-02  1.614000000000E-02  2.051800000000E-01
     59 F   9 F     2.914400000000E-01  8.626000000000E-02  1.024000000000E-01
     60 F   9 F    -1.614000000000E-02  1.890400000000E-01 -1.024000000000E-01
     61 T  30 ZN    2.500000000000E-01 -2.500000000000E-01 -5.000000000000E-01
     62 T  30 ZN   -5.000000000000E-01 -5.000000000000E-01  0.000000000000E+00

 TRANSFORMATION MATRIX PRIMITIVE-CRYSTALLOGRAPHIC CELL
  0.0000  1.0000  1.0000  1.0000  0.0000  1.0000  1.0000  1.0000  0.0000

 *******************************************************************************
 CRYSTALLOGRAPHIC CELL (VOLUME=       1422.96231908)
         A              B              C           ALPHA      BETA       GAMMA 
    10.90645223    10.90645223    11.96262246    90.000000  90.000000  90.000000

 COORDINATES IN THE CRYSTALLOGRAPHIC CELL
     ATOM                 X/A                 Y/B                 Z/C    
 *******************************************************************************
      1 T   6 C    -2.337600000000E-01  3.146300000000E-01 -1.137100000000E-01
      2 F   6 C     2.337600000000E-01 -3.146300000000E-01 -1.137100000000E-01
      3 F   6 C     3.146300000000E-01  2.337600000000E-01  1.137100000000E-01
      4 F   6 C    -3.146300000000E-01 -2.337600000000E-01  1.137100000000E-01
      5 T   6 C     2.511600000000E-01 -5.332000000000E-02  3.776900000000E-01
      6 F   6 C    -2.511600000000E-01  5.332000000000E-02  3.776900000000E-01
      7 F   6 C    -5.332000000000E-02 -2.511600000000E-01 -3.776900000000E-01
      8 F   6 C     5.332000000000E-02  2.511600000000E-01 -3.776900000000E-01
      9 T   6 C    -3.270900000000E-01  2.284500000000E-01 -1.332500000000E-01
     10 F   6 C     3.270900000000E-01 -2.284500000000E-01 -1.332500000000E-01
     11 F   6 C     2.284500000000E-01  3.270900000000E-01  1.332500000000E-01
     12 F   6 C    -2.284500000000E-01 -3.270900000000E-01  1.332500000000E-01
     13 T   6 C    -1.803200000000E-01  6.746000000000E-02 -1.268700000000E-01
     14 F   6 C     1.803200000000E-01 -6.746000000000E-02 -1.268700000000E-01
     15 F   6 C     6.746000000000E-02  1.803200000000E-01  1.268700000000E-01
     16 F   6 C    -6.746000000000E-02 -1.803200000000E-01  1.268700000000E-01
     17 T   6 C    -1.185300000000E-01  2.613900000000E-01 -9.532000000000E-02
     18 F   6 C     1.185300000000E-01 -2.613900000000E-01 -9.532000000000E-02
     19 F   6 C     2.613900000000E-01  1.185300000000E-01  9.532000000000E-02
     20 F   6 C    -2.613900000000E-01 -1.185300000000E-01  9.532000000000E-02
     21 T   6 C     3.019200000000E-01 -1.035200000000E-01 -1.409700000000E-01
     22 F   6 C    -3.019200000000E-01  1.035200000000E-01 -1.409700000000E-01
     23 F   6 C    -1.035200000000E-01 -3.019200000000E-01  1.409700000000E-01
     24 F   6 C     1.035200000000E-01  3.019200000000E-01  1.409700000000E-01
     25 T   7 N     3.382700000000E-01  2.135000000000E-02  3.335400000000E-01
     26 F   7 N    -3.382700000000E-01 -2.135000000000E-02  3.335400000000E-01
     27 F   7 N     2.135000000000E-02 -3.382700000000E-01 -3.335400000000E-01
     28 F   7 N    -2.135000000000E-02  3.382700000000E-01 -3.335400000000E-01
     29 T   7 N    -2.069100000000E-01 -3.612100000000E-01 -1.602700000000E-01
     30 F   7 N     2.069100000000E-01  3.612100000000E-01 -1.602700000000E-01
     31 F   7 N    -3.612100000000E-01  2.069100000000E-01  1.602700000000E-01
     32 F   7 N     3.612100000000E-01 -2.069100000000E-01  1.602700000000E-01
     33 T   7 N     1.538000000000E-01  1.529000000000E-02  4.091900000000E-01
     34 F   7 N    -1.538000000000E-01 -1.529000000000E-02  4.091900000000E-01
     35 F   7 N     1.529000000000E-02 -1.538000000000E-01 -4.091900000000E-01
     36 F   7 N    -1.529000000000E-02  1.538000000000E-01 -4.091900000000E-01
     37 T   7 N     1.826500000000E-01  1.354700000000E-01  3.841500000000E-01
     38 F   7 N    -1.826500000000E-01 -1.354700000000E-01  3.841500000000E-01
     39 F   7 N     1.354700000000E-01 -1.826500000000E-01 -3.841500000000E-01
     40 F   7 N    -1.354700000000E-01  1.826500000000E-01 -3.841500000000E-01
     41 T   7 N    -9.065000000000E-02  1.442800000000E-01 -1.023700000000E-01
     42 F   7 N     9.065000000000E-02 -1.442800000000E-01 -1.023700000000E-01
     43 F   7 N     1.442800000000E-01  9.065000000000E-02  1.023700000000E-01
     44 F   7 N    -1.442800000000E-01 -9.065000000000E-02  1.023700000000E-01
     45 T   9 F     5.688000000000E-02 -2.338800000000E-01  3.541000000000E-01
     46 F   9 F    -5.688000000000E-02  2.338800000000E-01  3.541000000000E-01
     47 F   9 F    -2.338800000000E-01 -5.688000000000E-02 -3.541000000000E-01
     48 F   9 F     2.338800000000E-01  5.688000000000E-02 -3.541000000000E-01
     49 T   9 F    -2.495000000000E-02  3.366900000000E-01 -6.784000000000E-02
     50 F   9 F     2.495000000000E-02 -3.366900000000E-01 -6.784000000000E-02
     51 F   9 F     3.366900000000E-01  2.495000000000E-02  6.784000000000E-02
     52 F   9 F    -3.366900000000E-01 -2.495000000000E-02  6.784000000000E-02
     53 T   9 F    -3.892300000000E-01  2.088000000000E-02 -1.598600000000E-01
     54 F   9 F     3.892300000000E-01 -2.088000000000E-02 -1.598600000000E-01
     55 F   9 F     2.088000000000E-02  3.892300000000E-01  1.598600000000E-01
     56 F   9 F    -2.088000000000E-02 -3.892300000000E-01  1.598600000000E-01
     57 T   9 F    -1.537900000000E-01 -5.139000000000E-02 -1.376500000000E-01
     58 F   9 F     1.537900000000E-01  5.139000000000E-02 -1.376500000000E-01
     59 F   9 F    -5.139000000000E-02  1.537900000000E-01  1.376500000000E-01
     60 F   9 F     5.139000000000E-02 -1.537900000000E-01  1.376500000000E-01
     61 T  30 ZN   -5.000000000000E-01 -8.618820615022E-17  2.500000000000E-01
     62 T  30 ZN    0.000000000000E+00  0.000000000000E+00 -5.000000000000E-01

 T = ATOM BELONGING TO THE ASYMMETRIC UNIT

 ****    4 SYMMOPS - TRANSLATORS IN FRACTIONAL UNITS
 **** MATRICES AND TRANSLATORS IN THE CRYSTALLOGRAPHIC REFERENCE FRAME
   V INV                    ROTATION MATRICES                   TRANSLATORS
   1   1  1.00  0.00  0.00  0.00  1.00  0.00  0.00  0.00  1.00  0.00  0.00  0.00
   2   2  0.00  1.00 -1.00  1.00  0.00 -1.00  0.00  0.00 -1.00  0.00  0.00  0.00
   3   4  0.00 -1.00  0.00  0.00 -1.00  1.00  1.00 -1.00  0.00  0.00  0.00  0.00
   4   3 -1.00  0.00  1.00 -1.00  0.00  0.00 -1.00  1.00  0.00  0.00  0.00  0.00

 DIRECT LATTICE VECTORS CARTESIAN COMPONENTS (ANGSTROM)
          X                    Y                    Z
  -0.545322611530E+01   0.545322611530E+01   0.598131123225E+01
   0.545322611530E+01  -0.545322611530E+01   0.598131123225E+01
   0.545322611530E+01   0.545322611530E+01  -0.598131123225E+01


 CARTESIAN COORDINATES - PRIMITIVE CELL
 *******************************************************************************
 *      ATOM          X(ANGSTROM)         Y(ANGSTROM)         Z(ANGSTROM)
 *******************************************************************************
    1     6 C    -2.549492273425E+00  3.431497065314E+00 -1.360269800438E+00
    2     6 C     2.549492273425E+00 -3.431497065314E+00 -1.360269800438E+00
    3     6 C     3.431497065314E+00  2.549492273425E+00  1.360269800438E+00
    4     6 C    -3.431497065314E+00 -2.549492273425E+00  1.360269800438E+00
    5     6 C     2.739264542237E+00 -5.815320329356E-01  4.518162878617E+00
    6     6 C    -2.739264542237E+00  5.815320329356E-01  4.518162878617E+00
    7     6 C    -5.815320329356E-01 -2.739264542237E+00 -4.518162878617E+00
    8     6 C     5.815320329356E-01  2.739264542237E+00 -4.518162878617E+00
    9     6 C    -3.567391460107E+00  2.491579012081E+00 -1.594019443395E+00
   10     6 C     3.567391460107E+00 -2.491579012081E+00 -1.594019443395E+00
   11     6 C     2.491579012081E+00  3.567391460107E+00  1.594019443395E+00
   12     6 C    -2.491579012081E+00 -3.567391460107E+00  1.594019443395E+00
   13     6 C    -1.966651466222E+00  7.357492674763E-01 -1.517697912071E+00
   14     6 C     1.966651466222E+00 -7.357492674763E-01 -1.517697912071E+00
   15     6 C     7.357492674763E-01  1.966651466222E+00  1.517697912071E+00
   16     6 C    -7.357492674763E-01 -1.966651466222E+00  1.517697912071E+00
   17     6 C    -1.292741782893E+00  2.850837548557E+00 -1.140277173316E+00
   18     6 C     1.292741782893E+00 -2.850837548557E+00 -1.140277173316E+00
   19     6 C     2.850837548557E+00  1.292741782893E+00  1.140277173316E+00
   20     6 C    -2.850837548557E+00 -1.292741782893E+00  1.140277173316E+00
   21     6 C     3.292876057463E+00 -1.129035934912E+00 -1.686370888821E+00
   22     6 C    -3.292876057463E+00  1.129035934912E+00 -1.686370888821E+00
   23     6 C    -1.129035934912E+00 -3.292876057463E+00  1.686370888821E+00
   24     6 C     1.129035934912E+00  3.292876057463E+00  1.686370888821E+00
   25     7 N     3.689325596045E+00  2.328527551233E-01  3.990013096809E+00
   26     7 N    -3.689325596045E+00 -2.328527551233E-01  3.990013096809E+00
   27     7 N     2.328527551233E-01 -3.689325596045E+00 -3.990013096809E+00
   28     7 N    -2.328527551233E-01  3.689325596045E+00 -3.990013096809E+00
   29     7 N    -2.256654031033E+00 -3.939519610215E+00 -1.917249502385E+00
   30     7 N     2.256654031033E+00  3.939519610215E+00 -1.917249502385E+00
   31     7 N    -3.939519610215E+00  2.256654031033E+00  1.917249502385E+00
   32     7 N     3.939519610215E+00 -2.256654031033E+00  1.917249502385E+00
   33     7 N     1.677412353066E+00  1.667596546059E-01  4.894985486249E+00
   34     7 N    -1.677412353066E+00 -1.667596546059E-01  4.894985486249E+00
   35     7 N     1.667596546059E-01 -1.677412353066E+00 -4.894985486249E+00
   36     7 N    -1.667596546059E-01  1.677412353066E+00 -4.894985486249E+00
   37     7 N     1.992063499919E+00  1.477497083679E+00  4.595441419738E+00
   38     7 N    -1.992063499919E+00 -1.477497083679E+00  4.595441419738E+00
   39     7 N     1.477497083679E+00 -1.992063499919E+00 -4.595441419738E+00
   40     7 N    -1.477497083679E+00  1.992063499919E+00 -4.595441419738E+00
   41     7 N    -9.886698947039E-01  1.573582927831E+00 -1.224613661691E+00
   42     7 N     9.886698947039E-01 -1.573582927831E+00 -1.224613661691E+00
   43     7 N     1.573582927831E+00  9.886698947039E-01  1.224613661691E+00
   44     7 N    -1.573582927831E+00 -9.886698947039E-01  1.224613661691E+00
   45     9 F     6.203590028765E-01 -2.550801047693E+00  4.235964614679E+00
   46     9 F    -6.203590028765E-01  2.550801047693E+00  4.235964614679E+00
   47     9 F    -2.550801047693E+00 -6.203590028765E-01 -4.235964614679E+00
   48     9 F     2.550801047693E+00  6.203590028765E-01 -4.235964614679E+00
   49     9 F    -2.721159831535E-01  3.672093401521E+00 -8.115443079917E-01
   50     9 F     2.721159831535E-01 -3.672093401521E+00 -8.115443079917E-01
   51     9 F     3.672093401521E+00  2.721159831535E-01  8.115443079917E-01
   52     9 F    -3.672093401521E+00 -2.721159831535E-01  8.115443079917E-01
   53     9 F    -4.245118401716E+00  2.277267225749E-01 -1.912344827175E+00
   54     9 F     4.245118401716E+00 -2.277267225749E-01 -1.912344827175E+00
   55     9 F     2.277267225749E-01  4.245118401716E+00  1.912344827175E+00
   56     9 F    -2.277267225749E-01 -4.245118401716E+00  1.912344827175E+00
   57     9 F    -1.677303288544E+00 -5.604825801305E-01 -1.646654982238E+00
   58     9 F     1.677303288544E+00  5.604825801305E-01 -1.646654982238E+00
   59     9 F    -5.604825801305E-01  1.677303288544E+00  1.646654982238E+00
   60     9 F     5.604825801305E-01 -1.677303288544E+00  1.646654982238E+00
   61    30 ZN    5.453226115300E+00 -9.400075532184E-16 -8.971966848375E+00
   62    30 ZN    0.000000000000E+00  0.000000000000E+00  5.981311232250E+00

 *******************************************************************************
 STARTING BASIS SET HANDLING 
 *******************************************************************************

 Loading internal basis set: POB-DZVPP           

 Please cite in your publication:
 Peintinger, M. F., Oliveira, D. V. and Bredow, T. (2013), Generally applicable 
 solid-state Gaussian basis sets, in preparation                                
                                                                                
                    

 *******************************************************************************
 LOCAL ATOMIC FUNCTIONS BASIS SET
 *******************************************************************************
   ATOM   X(AU)   Y(AU)   Z(AU)  N. TYPE  EXPONENT  S COEF   P COEF   D/F/G COEF
 *******************************************************************************
   1 C   -4.818   6.485  -2.571
                                  1 S  
                                         1.238E+03 5.457E-03 0.000E+00 0.000E+00
                                         1.863E+02 4.064E-02 0.000E+00 0.000E+00
                                         4.225E+01 1.803E-01 0.000E+00 0.000E+00
                                         1.168E+01 4.632E-01 0.000E+00 0.000E+00
                                         3.593E+00 4.409E-01 0.000E+00 0.000E+00
                                  2 S  
                                         5.281E+00 1.000E+00 0.000E+00 0.000E+00
                                  3 S  
                                         4.447E-01 1.000E+00 0.000E+00 0.000E+00
                           4-     6 P  
                                         9.468E+00 0.000E+00 3.839E-02 0.000E+00
                                         2.010E+00 0.000E+00 2.112E-01 0.000E+00
                                         5.477E-01 0.000E+00 5.133E-01 0.000E+00
                           7-     9 P  
                                         1.604E-01 0.000E+00 1.000E+00 0.000E+00
                          10-    14 D  
                                         6.070E-01 0.000E+00 0.000E+00 1.000E+00
                          15-    19 D  
                                         2.939E-01 0.000E+00 0.000E+00 1.000E+00
   2 C    4.818  -6.485  -2.571
   3 C    6.485   4.818   2.571
   4 C   -6.485  -4.818   2.571
   5 C    5.176  -1.099   8.538
   6 C   -5.176   1.099   8.538
   7 C   -1.099  -5.176  -8.538
   8 C    1.099   5.176  -8.538
   9 C   -6.741   4.708  -3.012
  10 C    6.741  -4.708  -3.012
  11 C    4.708   6.741   3.012
  12 C   -4.708  -6.741   3.012
  13 C   -3.716   1.390  -2.868
  14 C    3.716  -1.390  -2.868
  15 C    1.390   3.716   2.868
  16 C   -1.390  -3.716   2.868
  17 C   -2.443   5.387  -2.155
  18 C    2.443  -5.387  -2.155
  19 C    5.387   2.443   2.155
  20 C   -5.387  -2.443   2.155
  21 C    6.223  -2.134  -3.187
  22 C   -6.223   2.134  -3.187
  23 C   -2.134  -6.223   3.187
  24 C    2.134   6.223   3.187
  25 N    6.972   0.440   7.540
                                457 S  
                                         1.713E+03-5.393E-03 0.000E+00 0.000E+00
                                         2.576E+02-4.022E-02 0.000E+00 0.000E+00
                                         5.846E+01-1.793E-01 0.000E+00 0.000E+00
                                         1.620E+01-4.638E-01 0.000E+00 0.000E+00
                                         5.005E+00-4.417E-01 0.000E+00 0.000E+00
                                458 S  
                                         6.217E-01 1.000E+00 0.000E+00 0.000E+00
                                459 S  
                                         2.921E-01 1.000E+00 0.000E+00 0.000E+00
                         460-   462 P  
                                         1.357E+01 0.000E+00-4.007E-02 0.000E+00
                                         2.926E+00 0.000E+00-2.181E-01 0.000E+00
                                         7.993E-01 0.000E+00-5.129E-01 0.000E+00
                         463-   465 P  
                                         2.244E-01 0.000E+00 1.000E+00 0.000E+00
                         466-   470 D  
                                         3.118E-01 0.000E+00 0.000E+00 1.000E+00
  26 N   -6.972  -0.440   7.540
  27 N    0.440  -6.972  -7.540
  28 N   -0.440   6.972  -7.540
  29 N   -4.264  -7.445  -3.623
  30 N    4.264   7.445  -3.623
  31 N   -7.445   4.264   3.623
  32 N    7.445  -4.264   3.623
  33 N    3.170   0.315   9.250
  34 N   -3.170  -0.315   9.250
  35 N    0.315  -3.170  -9.250
  36 N   -0.315   3.170  -9.250
  37 N    3.764   2.792   8.684
  38 N   -3.764  -2.792   8.684
  39 N    2.792  -3.764  -8.684
  40 N   -2.792   3.764  -8.684
  41 N   -1.868   2.974  -2.314
  42 N    1.868  -2.974  -2.314
  43 N    2.974   1.868   2.314
  44 N   -2.974  -1.868   2.314
  45 F    1.172  -4.820   8.005
                                737 S  
                                         2.895E+03-5.341E-03 0.000E+00 0.000E+00
                                         4.354E+02-3.990E-02 0.000E+00 0.000E+00
                                         9.884E+01-1.791E-01 0.000E+00 0.000E+00
                                         2.749E+01-4.676E-01 0.000E+00 0.000E+00
                                         8.541E+00-4.465E-01 0.000E+00 0.000E+00
                                738 S  
                                         1.123E+00 1.000E+00 0.000E+00 0.000E+00
                                739 S  
                                         3.743E-01 1.000E+00 0.000E+00 0.000E+00
                         740-   742 P  
                                         2.270E+01 0.000E+00-4.521E-02 0.000E+00
                                         4.987E+00 0.000E+00-2.375E-01 0.000E+00
                                         1.349E+00 0.000E+00-5.129E-01 0.000E+00
                         743-   745 P  
                                         3.474E-01 0.000E+00 1.000E+00 0.000E+00
                         746-   750 D  
                                         9.203E-01 0.000E+00 0.000E+00 1.000E+00
                         751-   755 D  
                                         3.977E-01 0.000E+00 0.000E+00 1.000E+00
  46 F   -1.172   4.820   8.005
  47 F   -4.820  -1.172  -8.005
  48 F    4.820   1.172  -8.005
  49 F   -0.514   6.939  -1.534
  50 F    0.514  -6.939  -1.534
  51 F    6.939   0.514   1.534
  52 F   -6.939  -0.514   1.534
  53 F   -8.022   0.430  -3.614
  54 F    8.022  -0.430  -3.614
  55 F    0.430   8.022   3.614
  56 F   -0.430  -8.022   3.614
  57 F   -3.170  -1.059  -3.112
  58 F    3.170   1.059  -3.112
  59 F   -1.059   3.170   3.112
  60 F    1.059  -3.170   3.112
  61 ZN  10.305  -0.000 -16.955
                               1041 S  
                                         8.200E+04 1.421E-03 0.000E+00 0.000E+00
                                         1.231E+04 1.089E-02 0.000E+00 0.000E+00
                                         2.801E+03 5.406E-02 0.000E+00 0.000E+00
                                         7.910E+02 1.885E-01 0.000E+00 0.000E+00
                                         2.576E+02 3.835E-01 0.000E+00 0.000E+00
                                         8.881E+01 2.972E-01 0.000E+00 0.000E+00
                               1042 S  
                                         1.719E+02-1.105E-01 0.000E+00 0.000E+00
                                         2.030E+01 6.461E-01 0.000E+00 0.000E+00
                                         8.346E+00 4.422E-01 0.000E+00 0.000E+00
                               1043 S  
                                         1.485E+01-2.271E-01 0.000E+00 0.000E+00
                                         2.450E+00 7.243E-01 0.000E+00 0.000E+00
                                         9.985E-01 4.484E-01 0.000E+00 0.000E+00
                               1044 S  
                                         1.493E+00 1.000E+00 0.000E+00 0.000E+00
                               1045 S  
                                         1.830E-01 1.000E+00 0.000E+00 0.000E+00
                        1046-  1048 P  
                                         1.072E+03 0.000E+00 9.277E-03 0.000E+00
                                         2.527E+02 0.000E+00 6.954E-02 0.000E+00
                                         8.010E+01 0.000E+00 2.716E-01 0.000E+00
                                         2.890E+01 0.000E+00 5.340E-01 0.000E+00
                                         1.077E+01 0.000E+00 3.450E-01 0.000E+00
                        1049-  1051 P  
                                         5.645E+00 0.000E+00 3.413E-01 0.000E+00
                                         2.168E+00 0.000E+00 5.639E-01 0.000E+00
                                         8.054E-01 0.000E+00 2.368E-01 0.000E+00
                        1052-  1054 P  
                                         2.721E-01 0.000E+00 1.000E+00 0.000E+00
                        1055-  1059 D  
                                         5.609E+01 0.000E+00 0.000E+00 2.959E-02
                                         1.575E+01 0.000E+00 0.000E+00 1.587E-01
                                         5.312E+00 0.000E+00 0.000E+00 3.798E-01
                                         1.774E+00 0.000E+00 0.000E+00 4.690E-01
                        1060-  1064 D  
                                         5.073E-01 0.000E+00 0.000E+00 1.000E+00
                        1065-  1071 F  
                                         2.814E+00 0.000E+00 0.000E+00 1.000E+00
                        1072-  1078 F  
                                         1.300E+00 0.000E+00 0.000E+00 1.000E+00
  62 ZN   0.000   0.000  11.303

 *******************************************************************************
 FINISHED BASIS SET HANDLING 
 *******************************************************************************

 INFORMATION **** SET_MPP **** PCRYSTAL CALCULATION
 INFORMATION **** READM2 **** NEW DEFAULT: FOCK/KS MATRIX MIXING SET TO 30 %
 INFORMATION **** READM2 **** NEW DEFAULT: FULL DIRECT SCF MODE
 INFORMATION **** READM2 **** NEW DEFAULT: COULOMB BIPOLAR BUFFER SET TO 32 Mb
 INFORMATION **** READM2 **** NEW DEFAULT: EXCHANGE BIPOLAR BUFFER SET TO 32 Mb

 *******************************************************************************
 NEW DEFAULT: DFT INTEGRATION GRID INCREASED TO XLGRID
 NEW DEFAULT: DIIS ACCELERATOR ACTIVE
 USE KEYWORD NODIIS TO TURN IT OFF
 *******************************************************************************

 INFORMATION **** DFTD3_INPUT **** PERFORM DISPERSION CORRECTION DFT-D3(BJ) IN THE BECKE-JOHNSON DAMPING SCHEME

 PLEASE CITE:
 (1) DFT-D3 Reference
  S. Grimme, J. Antony, S. Ehrlich, and H. Krieg, J. Chem. Phys. 132 (2010), 154104
 (2) BJ-Damping Reference
  S. Grimme, S. Ehrlich, and L. Goerigk, J. Comput. Chem. 32 (2011), 1456-1465
 (3) General DFT-D Review
  S. Grimme, A. Hansen, J. G. Brandenburg, and C. Bannwarth,
  Chem. Rev. 116 (2016), 5105-5154

 INFORMATION **** TOLINTEG **** COULOMB AND EXCHANGE SERIES TOLERANCES MODIFIED
 INFORMATION **** BIPOSIZE **** COULOMB BIPOLAR BUFFER SET TO   100000000
 INFORMATION **** MAXCYCLE **** MAX NUMBER OF SCF CYCLES SET TO          50
 *******************************************************************************
 N. OF ATOMS PER CELL        62  COULOMB OVERLAP TOL         (T1) 10**  -12
 NUMBER OF SHELLS           424  COULOMB PENETRATION TOL     (T2) 10**  -12
 NUMBER OF AO              1116  EXCHANGE OVERLAP TOL        (T3) 10**   20
 N. OF ELECTRONS PER CELL   488  EXCHANGE PSEUDO OVP (F(G))  (T4) 10**   20
 CORE ELECTRONS PER CELL    156  EXCHANGE PSEUDO OVP (P(G))  (T5) 10**   20
 N. OF SYMMETRY OPERATORS     4  POLE ORDER IN MONO ZONE                  4
 *******************************************************************************
 TYPE OF CALCULATION :  RESTRICTED CLOSED SHELL
 KOHN-SHAM HAMILTONIAN

 (EXCHANGE)[CORRELATION] FUNCTIONAL:(PERDEW-BURKE-ERNZERHOF)[PERDEW-BURKE-ERNZERHOF]


 CAPPA:IS1  3;IS2  3;IS3  3; K PTS MONK NET   6; SYMMOPS:K SPACE   8;G SPACE   4

 *******************************************************************************
 MAX NUMBER OF SCF CYCLES      50  CONVERGENCE ON DELTAP        10**-16
 WEIGHT OF F(I) IN F(I+1)      30% CONVERGENCE ON ENERGY        10**- 6
 SHRINK. FACT.(MONKH.)    3  3  3  NUMBER OF K POINTS IN THE IBZ      6
 SHRINKING FACTOR(GILAT NET)    3  NUMBER OF K POINTS(GILAT NET)      6
 *******************************************************************************
 *** K POINTS COORDINATES (OBLIQUE COORDINATES IN UNITS OF IS =  3)
   1-R(  0  0  0)   2-C(  1  0  0)   3-C(  1  1  0)   4-C(  2  1  0)
   5-C(  2  1  1)   6-C(  2  2  1)

 DIRECT LATTICE VECTORS COMPON. (A.U.)     RECIP. LATTICE VECTORS COMPON. (A.U.) 
        X            Y            Z              X            Y            Z
  -10.3051039   10.3051039   11.3030402      0.0000000    0.3048579    0.2779423
   10.3051039  -10.3051039   11.3030402      0.3048579    0.0000000    0.2779423
   10.3051039   10.3051039  -11.3030402      0.3048579    0.3048579    0.0000000

 DISK SPACE FOR EIGENVECTORS (FTN 10)    13700016 REALS

 SYMMETRY ADAPTION OF THE BLOCH FUNCTIONS ENABLED
 TTTTTTTTTTTTTTTTTTTTTTTTTTTTTT gordsh1     TELAPSE        6.27 TCPU        0.08

 MATRIX SIZE: P(G) 1714156, F(G)  857924, P(G) IRR  217012, F(G) IRR  217012
 MAX G-VECTOR INDEX FOR 1- AND 2-ELECTRON INTEGRALS  59

 TTTTTTTTTTTTTTTTTTTTTTTTTTTTTT INPUT       TELAPSE        6.28 TCPU        0.09

 NEIGHBORS OF THE NON-EQUIVALENT ATOMS

 N = NUMBER OF NEIGHBORS AT DISTANCE R
    ATOM  N     R/ANG      R/AU   NEIGHBORS (ATOM LABELS AND CELL INDICES)
   1 C    1     1.4018     2.6490   17 C    0 0 0
   1 C    1     1.4051     2.6552    9 C    0 0 0
   1 C    1     1.4532     2.7462    5 C    0-1 0
   1 C    1     2.3549     4.4501   49 F    0 0 0
   1 C    1     2.3753     4.4886   45 F    0-1 0
   1 C    1     2.4303     4.5926   41 N    0 0 0

   5 C    1     1.3526     2.5560   33 N    0 0 0
   5 C    1     1.3582     2.5667   25 N    0 0 0
   5 C    1     1.4532     2.7462    1 C    0 1 0
   5 C    1     2.1918     4.1419   37 N    0 0 0
   5 C    1     2.1921     4.1425   29 N    1 1 1
   5 C    1     2.4916     4.7084   17 C    0 1 0

   9 C    1     1.3391     2.5305   45 F    0-1 0
   9 C    1     1.3930     2.6324   22 C    0 0 0
   9 C    1     1.4051     2.6552    1 C    0 0 0
   9 C    1     2.3471     4.4354   17 C    0 0 0
   9 C    1     2.3772     4.4923   13 C    0 0 0
   9 C    1     2.3845     4.5060   53 F    0 0 0

  13 C    1     1.3207     2.4958   41 N    0 0 0
  13 C    1     1.3344     2.5216   57 F    0 0 0
  13 C    1     1.3936     2.6334   22 C    0 0 0
  13 C    1     2.2517     4.2551   17 C    0 0 0
  13 C    1     2.3675     4.4740   53 F    0 0 0
  13 C    1     2.3772     4.4923    9 C    0 0 0

  17 C    1     1.3157     2.4862   41 N    0 0 0
  17 C    1     1.3506     2.5523   49 F    0 0 0
  17 C    1     1.4018     2.6490    1 C    0 0 0
  17 C    1     2.2517     4.2551   13 C    0 0 0
  17 C    1     2.3471     4.4354    9 C    0 0 0
  17 C    1     2.4916     4.7084    5 C    0-1 0

  21 C    1     1.3305     2.5143   54 F    0 0 0
  21 C    1     1.3930     2.6324   10 C    0 0 0
  21 C    1     1.3936     2.6334   14 C    0 0 0
  21 C    1     2.3380     4.4181   58 F    0 0 0
  21 C    1     2.3495     4.4398   46 F   -1 0 0
  21 C    1     2.3917     4.5196   42 N    0 0 0

  25 N    1     1.3582     2.5667    5 C    0 0 0
  25 N    1     1.3744     2.5972   29 N    1 1 1
  25 N    1     2.0407     3.8563   61 ZN   1 1 0
  25 N    1     2.1901     4.1386   37 N    0 0 0
  25 N    1     2.2071     4.1707   33 N    0 0 0
  25 N    1     2.4695     4.6667    1 C    0 1 0

  29 N    1     1.3170     2.4888   37 N   -1-1-1
  29 N    1     1.3744     2.5972   25 N   -1-1-1
  29 N    1     2.1921     4.1425    5 C   -1-1-1
  29 N    1     2.1938     4.1456   33 N   -1-1-1
  29 N    1     2.7729     5.2400   50 F    0 0 0
  29 N    1     2.9049     5.4895    3 C   -1-1-1

  33 N    1     1.3526     2.5560    5 C    0 0 0
  33 N    1     1.3809     2.6094   37 N    0 0 0
  33 N    1     2.0054     3.7897   62 ZN   0 0 0
  33 N    1     2.1938     4.1456   29 N    1 1 1
  33 N    1     2.2071     4.1707   25 N    0 0 0
  33 N    1     2.5236     4.7689    1 C    0 1 0

  37 N    1     1.3170     2.4888   29 N    1 1 1
  37 N    1     1.3809     2.6094   33 N    0 0 0
  37 N    1     2.1901     4.1386   25 N    0 0 0
  37 N    1     2.1918     4.1419    5 C    0 0 0
  37 N    1     2.8411     5.3689   62 ZN   0 0 0
  37 N    1     2.8471     5.3802   46 F    0 0 0

  41 N    1     1.3157     2.4862   17 C    0 0 0
  41 N    1     1.3207     2.4958   13 C    0 0 0
  41 N    1     2.2556     4.2625   49 F    0 0 0
  41 N    1     2.2818     4.3120   57 F    0 0 0
  41 N    1     2.3917     4.5196   22 C    0 0 0
  41 N    1     2.4303     4.5926    1 C    0 0 0

  45 F    1     1.3391     2.5305    9 C    0 1 0
  45 F    1     2.3495     4.4398   22 C    0 1 0
  45 F    1     2.3753     4.4886    1 C    0 1 0
  45 F    1     2.7333     5.1653   60 F    0 0 0
  45 F    1     2.7436     5.1847   53 F    0 1 0
  45 F    1     2.8471     5.3802   38 N    0 0 0

  49 F    1     1.3506     2.5523   17 C    0 0 0
  49 F    1     2.2556     4.2625   41 N    0 0 0
  49 F    1     2.3549     4.4501    1 C    0 0 0
  49 F    1     2.7701     5.2347   25 N    0-1 0
  49 F    1     2.7729     5.2400   30 N    0 0 0
  49 F    1     2.7975     5.2866    5 C    0-1 0

  53 F    1     1.3305     2.5143   22 C    0 0 0
  53 F    1     2.3675     4.4740   13 C    0 0 0
  53 F    1     2.3845     4.5060    9 C    0 0 0
  53 F    1     2.4588     4.6464   54 F    0-1-1
  53 F    1     2.6992     5.1007   57 F    0 0 0
  53 F    1     2.7436     5.1847   45 F    0-1 0

  57 F    1     1.3344     2.5216   13 C    0 0 0
  57 F    1     2.2818     4.3120   41 N    0 0 0
  57 F    1     2.3380     4.4181   22 C    0 0 0
  57 F    1     2.6992     5.1007   53 F    0 0 0
  57 F    1     2.7333     5.1653   47 F    0 0 0
  57 F    1     2.8830     5.4482   42 N    0 0 0

  61 ZN   4     2.0407     3.8563   25 N   -1-1 0   26 N   -1 0 1   27 N    0 0 1
                                    28 N   -1 0 0
  61 ZN   4     2.8275     5.3433   49 F   -1 0 0   50 F    0 0 1   51 F   -1-1 0
                                    52 F   -1 0 1
  61 ZN   4     2.9216     5.5211   29 N    0 0 1   30 N   -1 0 0   31 N   -1 0 1
                                    32 N   -1-1 0
  61 ZN   4     3.1681     5.9869    5 C   -1-1 0    6 C   -1 0 1    7 C    0 0 1
                                     8 C   -1 0 0
  61 ZN   4     3.4449     6.5100   17 C   -1 0 0   18 C    0 0 1   19 C   -1-1 0
                                    20 C   -1 0 1
  61 ZN   4     3.6394     6.8775    1 C   -1 0 0    2 C    0 0 1    3 C   -1-1 0
                                     4 C   -1 0 1

  62 ZN   4     2.0054     3.7897   33 N    0 0 0   34 N    0 0 0   35 N    1 1 0
                                    36 N    1 1 0
  62 ZN   4     2.8411     5.3689   37 N    0 0 0   38 N    0 0 0   39 N    1 1 0
                                    40 N    1 1 0
  62 ZN   4     3.1524     5.9572   45 F    0 0 0   46 F    0 0 0   47 F    1 1 0
                                    48 F    1 1 0
  62 ZN   4     3.1595     5.9706    5 C    0 0 0    6 C    0 0 0    7 C    1 1 0
                                     8 C    1 1 0
  62 ZN   4     3.7907     7.1634    1 C    0 1 0    2 C    1 0 0    3 C    0 0-1
                                     4 C    1 1 1
  62 ZN   4     3.8560     7.2868    9 C    0 1 0   10 C    1 0 0   11 C    0 0-1
                                    12 C    1 1 1


 SYMMETRY ALLOWED INTERNAL DEGREE(S) OF FREEDOM:  45
 TTTTTTTTTTTTTTTTTTTTTTTTTTTTTT SYMM        TELAPSE        6.32 TCPU        0.12
 TTTTTTTTTTTTTTTTTTTTTTTTTTTTTT INT_SCREEN  TELAPSE        6.32 TCPU        0.13
 INFORMATION **** EXCBUF **** EXCH. BIPO BUFFER: WORDS USED =           0

 DFT PARAMETERS

     ATOM       ELECTRONS   NET CHARGE   R(ANGSTROM)
   1   6  C       6.0000      0.0000     0.77000000
  25   7  N       7.0000      0.0000     0.74000000
  45   9  F       9.0000      0.0000     0.72000000
  61  30  ZN     30.0000      0.0000     1.37000000

 SIZE OF GRID=     507728
 TTTTTTTTTTTTTTTTTTTTTTTTTTTTTT MAKE_GRID2  TELAPSE        6.80 TCPU        0.60
 BECKE WEIGHT FUNCTION
 RADSAFE =     2.00
 TOLERANCES - DENSITY:10**- 6; POTENTIAL:10**- 9; GRID WGT:10**-14

 RADIAL INTEGRATION  - INTERVALS (POINTS,UPPER LIMIT):            1( 75,  4.0*R)

 ANGULAR INTEGRATION - INTERVALS (ACCURACY LEVEL [N. POINTS] UPPER LIMIT):
  1(  4[  86]   0.2)  2(  8[ 194]   0.5)  3( 12[ 350]   0.9)  4( 16[ 974]   3.5)
  5( 12[ 350]9999.0)
 TTTTTTTTTTTTTTTTTTTTTTTTTTTTTT INT_CALC    TELAPSE        6.83 TCPU        0.64
 EEEEEEEEEE INT_CALC TERMINATION  DATE 17 01 2024 TIME 15:39:45.9

 *******************************************************************************
 Z:\home\sanoj\Downloads\tmp_p\newconn.mol                                       
 CRYSTAL - SCF - TYPE OF CALCULATION :  RESTRICTED CLOSED SHELL
 *******************************************************************************

 CAPPA:IS1  3;IS2  3;IS3  3; K PTS MONK NET   6; SYMMOPS:K SPACE   8;G SPACE   4

 TTTTTTTTTTTTTTTTTTTTTTTTTTTTTT SDIK        TELAPSE        6.98 TCPU        0.78

 AAAAAAAAAAAAAAAAAAAAAAAAAAAAAAAAAAAAAAAAAAAAAAAAAAAAAAAAAAAAAAAAAAAAAAAAAAAAAAA
         ATOMIC WAVEFUNCTION(S)


 NUCLEAR CHARGE  6.0  SYMMETRY SPECIES            S    P
 N. ELECTRONS    6.0  NUMBER OF PRIMITIVE GTOS    7    4
                      NUMBER OF CONTRACTED GTOS   3    2
                      NUMBER OF CLOSED SHELLS     2    0
                      OPEN SHELL OCCUPATION       0    2

  ZNUC SCFIT  TOTAL HF ENERGY   KINETIC ENERGY   VIRIAL THEOREM ACCURACY
   6.0   6   -3.750912652E+01  3.905246519E+01 -1.960480378E+00  3.7E-06

 NUCLEAR CHARGE  7.0  SYMMETRY SPECIES            S    P
 N. ELECTRONS    7.0  NUMBER OF PRIMITIVE GTOS    7    4
                      NUMBER OF CONTRACTED GTOS   3    2
                      NUMBER OF CLOSED SHELLS     2    0
                      OPEN SHELL OCCUPATION       0    3

  ZNUC SCFIT  TOTAL HF ENERGY   KINETIC ENERGY   VIRIAL THEOREM ACCURACY
   7.0   9   -5.432196661E+01  5.425066284E+01 -2.001314339E+00  1.2E-06

 NUCLEAR CHARGE  9.0  SYMMETRY SPECIES            S    P
 N. ELECTRONS    9.0  NUMBER OF PRIMITIVE GTOS    7    4
                      NUMBER OF CONTRACTED GTOS   3    2
                      NUMBER OF CLOSED SHELLS     2    0
                      OPEN SHELL OCCUPATION       0    5

  ZNUC SCFIT  TOTAL HF ENERGY   KINETIC ENERGY   VIRIAL THEOREM ACCURACY
   9.0  14   -9.927886620E+01  9.927374065E+01 -2.000051630E+00  4.0E-06

 NUCLEAR CHARGE 30.0  SYMMETRY SPECIES            S    P    D
 N. ELECTRONS   30.0  NUMBER OF PRIMITIVE GTOS   14    9    5
                      NUMBER OF CONTRACTED GTOS   5    3    2
                      NUMBER OF CLOSED SHELLS     4    2    1
                      OPEN SHELL OCCUPATION       0    0    0

  ZNUC SCFIT  TOTAL HF ENERGY   KINETIC ENERGY   VIRIAL THEOREM ACCURACY
  30.0  10   -1.777404290E+03  1.777325716E+03 -2.000044209E+00  2.5E-06

 AAAAAAAAAAAAAAAAAAAAAAAAAAAAAAAAAAAAAAAAAAAAAAAAAAAAAAAAAAAAAAAAAAAAAAAAAAAAAAA

 TOTAL ATOMIC CHARGES:
   6.0000000   6.0000000   6.0000000   6.0000000   6.0000000   6.0000000
   6.0000000   6.0000000   6.0000000   6.0000000   6.0000000   6.0000000
   6.0000000   6.0000000   6.0000000   6.0000000   6.0000000   6.0000000
   6.0000000   6.0000000   6.0000000   6.0000000   6.0000000   6.0000000
   7.0000000   7.0000000   7.0000000   7.0000000   7.0000000   7.0000000
   7.0000000   7.0000000   7.0000000   7.0000000   7.0000000   7.0000000
   7.0000000   7.0000000   7.0000000   7.0000000   7.0000000   7.0000000
   7.0000000   7.0000000   9.0000000   9.0000000   9.0000000   9.0000000
   9.0000000   9.0000000   9.0000000   9.0000000   9.0000000   9.0000000
   9.0000000   9.0000000   9.0000000   9.0000000   9.0000000   9.0000000
  30.0000000  30.0000000
 TTTTTTTTTTTTTTTTTTTTTTTTTTTTTT MOQGAD      TELAPSE        9.79 TCPU        3.58
 TTTTTTTTTTTTTTTTTTTTTTTTTTTTTT SHELLXN     TELAPSE       32.71 TCPU       12.00
 TTTTTTTTTTTTTTTTTTTTTTTTTTTTTT MONMO3      TELAPSE       36.76 TCPU       16.02
 NUMERICALLY INTEGRATED DENSITY    488.0000298842
 TTTTTTTTTTTTTTTTTTTTTTTTTTTTTT NUMDFT      TELAPSE       37.12 TCPU       16.38
 CYC   0 ETOT(AU) -7.164079893487E+03 DETOT -7.16E+03 tst  0.00E+00 PX  1.00E+00
 TTTTTTTTTTTTTTTTTTTTTTTTTTTTTT DIIS        TELAPSE       37.17 TCPU       16.43
 TTTTTTTTTTTTTTTTTTTTTTTTTTTTTT FDIK        TELAPSE       52.38 TCPU       27.37
 INSULATING STATE
 TOP OF VALENCE BANDS -    BAND    244; K    4; EIG -1.2964264E-01 AU
 TOP OF VALENCE BANDS -    BAND    244; K    1; EIG -1.3139530E-01 AU
 BOTTOM OF VIRTUAL BANDS - BAND    245; K    5; EIG -8.3840365E-02 AU
 INDIRECT ENERGY BAND GAP:   1.2463 eV
 BOTTOM OF VIRTUAL BANDS - BAND    245; K    1; EIG -8.2996333E-02 AU
 TTTTTTTTTTTTTTTTTTTTTTTTTTTTTT PDIG        TELAPSE       52.83 TCPU       27.82
 TOTAL ATOMIC CHARGES:
   6.3510196   6.3510196   6.3510196   6.3510196   5.6348183   5.6348183
   5.6348183   5.6348183   5.5379777   5.5379777   5.5379777   5.5379777
   5.2286023   5.2286023   5.2286023   5.2286023   5.1356087   5.1356087
   5.1356087   5.1356087   5.5943532   5.5943532   5.5943532   5.5943532
   7.5238511   7.5238511   7.5238511   7.5238511   7.2436931   7.2436931
   7.2436931   7.2436931   7.5066708   7.5066708   7.5066708   7.5066708
   7.2158604   7.2158604   7.2158604   7.2158604   7.8182067   7.8182067
   7.8182067   7.8182067   9.2857083   9.2857083   9.2857083   9.2857083
   9.3087593   9.3087593   9.3087593   9.3087593   9.3241722   9.3241722
   9.3241722   9.3241722   9.2839967   9.2839967   9.2839967   9.2839967
  28.0051584  28.0216488
 TTTTTTTTTTTTTTTTTTTTTTTTTTTTTT MOQGAD      TELAPSE       52.85 TCPU       27.83
 TTTTTTTTTTTTTTTTTTTTTTTTTTTTTT SHELLXN     TELAPSE       69.45 TCPU       38.07
 TTTTTTTTTTTTTTTTTTTTTTTTTTTTTT MONMO3      TELAPSE       70.96 TCPU       39.58
 NUMERICALLY INTEGRATED DENSITY    487.9999760981
 TTTTTTTTTTTTTTTTTTTTTTTTTTTTTT NUMDFT      TELAPSE       72.04 TCPU       40.65
 CYC   1 ETOT(AU) -7.156768321321E+03 DETOT  7.31E+00 tst  0.00E+00 PX  1.00E+00
 TTTTTTTTTTTTTTTTTTTTTTTTTTTTTT DIIS        TELAPSE       72.14 TCPU       40.75
 DIIS TEST: 0.11894E+02 AT SCF   CYCLE   1 - MIX   30 %
 TTTTTTTTTTTTTTTTTTTTTTTTTTTTTT FDIK        TELAPSE       83.94 TCPU       46.63
 INSULATING STATE
 TOP OF VALENCE BANDS -    BAND    244; K    2; EIG -1.8309389E-01 AU
 TOP OF VALENCE BANDS -    BAND    244; K    1; EIG -1.8330593E-01 AU
 BOTTOM OF VIRTUAL BANDS - BAND    245; K    1; EIG -1.0547671E-01 AU
 INDIRECT ENERGY BAND GAP:   2.1121 eV
 TTTTTTTTTTTTTTTTTTTTTTTTTTTTTT PDIG        TELAPSE       84.40 TCPU       47.08
 TOTAL ATOMIC CHARGES:
   6.0295678   6.0295678   6.0295678   6.0295678   6.4121974   6.4121974
   6.4121974   6.4121974   6.2940189   6.2940189   6.2940189   6.2940189
   6.1917700   6.1917700   6.1917700   6.1917700   6.2846495   6.2846495
   6.2846495   6.2846495   5.8736942   5.8736942   5.8736942   5.8736942
   6.9976305   6.9976305   6.9976305   6.9976305   6.9294123   6.9294123
   6.9294123   6.9294123   6.9790016   6.9790016   6.9790016   6.9790016
   6.9084639   6.9084639   6.9084639   6.9084639   6.3280850   6.3280850
   6.3280850   6.3280850   8.9997412   8.9997412   8.9997412   8.9997412
   9.0567808   9.0567808   9.0567808   9.0567808   8.9477102   8.9477102
   8.9477102   8.9477102   8.9642523   8.9642523   8.9642523   8.9642523
  29.6163358  29.5957610
 TTTTTTTTTTTTTTTTTTTTTTTTTTTTTT MOQGAD      TELAPSE       84.42 TCPU       47.09
 TTTTTTTTTTTTTTTTTTTTTTTTTTTTTT SHELLXN     TELAPSE       99.27 TCPU       57.62
 TTTTTTTTTTTTTTTTTTTTTTTTTTTTTT MONMO3      TELAPSE      101.98 TCPU       60.31
 NUMERICALLY INTEGRATED DENSITY    487.9999586554
 TTTTTTTTTTTTTTTTTTTTTTTTTTTTTT NUMDFT      TELAPSE      103.04 TCPU       61.37
 CYC   2 ETOT(AU) -7.155884376645E+03 DETOT  8.84E-01 tst  5.73E-02 PX  6.30E-01
 TTTTTTTTTTTTTTTTTTTTTTTTTTTTTT DIIS        TELAPSE      103.14 TCPU       61.46
 DIIS TEST: 0.16894E+02 AT SCF   CYCLE   2 - DIIS ACTIVE - HISTORY:     2 CYCLES
 TTTTTTTTTTTTTTTTTTTTTTTTTTTTTT FDIK        TELAPSE      109.18 TCPU       65.34
 INSULATING STATE
 TOP OF VALENCE BANDS -    BAND    244; K    5; EIG -2.3027010E-01 AU
 TOP OF VALENCE BANDS -    BAND    244; K    1; EIG -2.3035248E-01 AU
 BOTTOM OF VIRTUAL BANDS - BAND    245; K    1; EIG -1.0046882E-01 AU
 INDIRECT ENERGY BAND GAP:   3.5321 eV
 TTTTTTTTTTTTTTTTTTTTTTTTTTTTTT PDIG        TELAPSE      109.63 TCPU       65.80
 TOTAL ATOMIC CHARGES:
   5.9623112   5.9623112   5.9623112   5.9623112   5.9389743   5.9389743
   5.9389743   5.9389743   5.7354916   5.7354916   5.7354916   5.7354916
   5.7725583   5.7725583   5.7725583   5.7725583   5.6458026   5.6458026
   5.6458026   5.6458026   5.6194797   5.6194797   5.6194797   5.6194797
   7.2083034   7.2083034   7.2083034   7.2083034   7.1382860   7.1382860
   7.1382860   7.1382860   7.2001057   7.2001057   7.2001057   7.2001057
   7.1149555   7.1149555   7.1149555   7.1149555   7.5075957   7.5075957
   7.5075957   7.5075957   9.1533538   9.1533538   9.1533538   9.1533538
   9.1327266   9.1327266   9.1327266   9.1327266   9.1930572   9.1930572
   9.1930572   9.1930572   9.1384982   9.1384982   9.1384982   9.1384982
  29.0653973  29.0886041
 TTTTTTTTTTTTTTTTTTTTTTTTTTTTTT MOQGAD      TELAPSE      109.65 TCPU       65.81
 TTTTTTTTTTTTTTTTTTTTTTTTTTTTTT SHELLXN     TELAPSE      124.48 TCPU       76.42
 TTTTTTTTTTTTTTTTTTTTTTTTTTTTTT MONMO3      TELAPSE      125.98 TCPU       77.91
 NUMERICALLY INTEGRATED DENSITY    487.9999768909
 TTTTTTTTTTTTTTTTTTTTTTTTTTTTTT NUMDFT      TELAPSE      127.04 TCPU       78.96
 CYC   3 ETOT(AU) -7.158657755682E+03 DETOT -2.77E+00 tst  9.40E-03 PX  5.09E-01
 TTTTTTTTTTTTTTTTTTTTTTTTTTTTTT DIIS        TELAPSE      127.13 TCPU       79.05
 DIIS TEST: 0.15367E+01 AT SCF   CYCLE   3 - DIIS ACTIVE - HISTORY:     3 CYCLES
 TTTTTTTTTTTTTTTTTTTTTTTTTTTTTT FDIK        TELAPSE      133.82 TCPU       83.53
 INSULATING STATE
 TOP OF VALENCE BANDS -    BAND    244; K    5; EIG -2.3317684E-01 AU
 TOP OF VALENCE BANDS -    BAND    244; K    1; EIG -2.3588864E-01 AU
 BOTTOM OF VIRTUAL BANDS - BAND    245; K    6; EIG -1.0346123E-01 AU
 INDIRECT ENERGY BAND GAP:   3.5297 eV
 BOTTOM OF VIRTUAL BANDS - BAND    245; K    1; EIG -1.0303154E-01 AU
 TTTTTTTTTTTTTTTTTTTTTTTTTTTTTT PDIG        TELAPSE      134.28 TCPU       83.98
 TOTAL ATOMIC CHARGES:
   6.2460617   6.2460617   6.2460617   6.2460617   5.9592538   5.9592538
   5.9592538   5.9592538   5.9056111   5.9056111   5.9056111   5.9056111
   5.5478065   5.5478065   5.5478065   5.5478065   5.6033330   5.6033330
   5.6033330   5.6033330   5.7055994   5.7055994   5.7055994   5.7055994
   7.3003562   7.3003562   7.3003562   7.3003562   7.0958572   7.0958572
   7.0958572   7.0958572   7.2655102   7.2655102   7.2655102   7.2655102
   7.0820940   7.0820940   7.0820940   7.0820940   7.1606764   7.1606764
   7.1606764   7.1606764   9.1646655   9.1646655   9.1646655   9.1646655
   9.2018951   9.2018951   9.2018951   9.2018951   9.1875587   9.1875587
   9.1875587   9.1875587   9.1442867   9.1442867   9.1442867   9.1442867
  28.8504979  28.8672397
 TTTTTTTTTTTTTTTTTTTTTTTTTTTTTT MOQGAD      TELAPSE      134.29 TCPU       83.99
 TTTTTTTTTTTTTTTTTTTTTTTTTTTTTT SHELLXN     TELAPSE      151.28 TCPU       94.26
 TTTTTTTTTTTTTTTTTTTTTTTTTTTTTT MONMO3      TELAPSE      153.09 TCPU       96.07
 NUMERICALLY INTEGRATED DENSITY    487.9999728257
 TTTTTTTTTTTTTTTTTTTTTTTTTTTTTT NUMDFT      TELAPSE      154.12 TCPU       97.09
 CYC   4 ETOT(AU) -7.158796958643E+03 DETOT -1.39E-01 tst  2.58E-03 PX  1.07E-01
 TTTTTTTTTTTTTTTTTTTTTTTTTTTTTT DIIS        TELAPSE      154.23 TCPU       97.19
 DIIS TEST: 0.70357E+00 AT SCF   CYCLE   4 - DIIS ACTIVE - HISTORY:     4 CYCLES
 TTTTTTTTTTTTTTTTTTTTTTTTTTTTTT FDIK        TELAPSE      162.60 TCPU      101.23
 INSULATING STATE
 TOP OF VALENCE BANDS -    BAND    244; K    5; EIG -2.3592736E-01 AU
 TOP OF VALENCE BANDS -    BAND    244; K    1; EIG -2.3732737E-01 AU
 BOTTOM OF VIRTUAL BANDS - BAND    245; K    6; EIG -1.0300970E-01 AU
 INDIRECT ENERGY BAND GAP:   3.6169 eV
 BOTTOM OF VIRTUAL BANDS - BAND    245; K    1; EIG -1.0257369E-01 AU
 TTTTTTTTTTTTTTTTTTTTTTTTTTTTTT PDIG        TELAPSE      163.06 TCPU      101.68
 TOTAL ATOMIC CHARGES:
   6.1391233   6.1391233   6.1391233   6.1391233   5.9590577   5.9590577
   5.9590577   5.9590577   5.8481683   5.8481683   5.8481683   5.8481683
   5.6908123   5.6908123   5.6908123   5.6908123   5.6448804   5.6448804
   5.6448804   5.6448804   5.6975219   5.6975219   5.6975219   5.6975219
   7.2514593   7.2514593   7.2514593   7.2514593   7.1245939   7.1245939
   7.1245939   7.1245939   7.2241047   7.2241047   7.2241047   7.2241047
   7.1011790   7.1011790   7.1011790   7.1011790   7.2755095   7.2755095
   7.2755095   7.2755095   9.1461703   9.1461703   9.1461703   9.1461703
   9.1747432   9.1747432   9.1747432   9.1747432   9.1497080   9.1497080
   9.1497080   9.1497080   9.1327707   9.1327707   9.1327707   9.1327707
  28.8753413  28.8854485
 TTTTTTTTTTTTTTTTTTTTTTTTTTTTTT MOQGAD      TELAPSE      163.07 TCPU      101.69
 TTTTTTTTTTTTTTTTTTTTTTTTTTTTTT SHELLXN     TELAPSE      176.62 TCPU      112.36
 TTTTTTTTTTTTTTTTTTTTTTTTTTTTTT MONMO3      TELAPSE      179.04 TCPU      114.77
 NUMERICALLY INTEGRATED DENSITY    487.9999734337
 TTTTTTTTTTTTTTTTTTTTTTTTTTTTTT NUMDFT      TELAPSE      180.10 TCPU      115.82
 CYC   5 ETOT(AU) -7.158900738159E+03 DETOT -1.04E-01 tst  6.58E-04 PX  6.85E-02
 TTTTTTTTTTTTTTTTTTTTTTTTTTTTTT DIIS        TELAPSE      180.20 TCPU      115.92
 DIIS TEST: 0.36542E-01 AT SCF   CYCLE   5 - DIIS ACTIVE - HISTORY:     5 CYCLES
 TTTTTTTTTTTTTTTTTTTTTTTTTTTTTT FDIK        TELAPSE      186.39 TCPU      119.93
 INSULATING STATE
 TOP OF VALENCE BANDS -    BAND    244; K    5; EIG -2.3325138E-01 AU
 TOP OF VALENCE BANDS -    BAND    244; K    1; EIG -2.3461914E-01 AU
 BOTTOM OF VIRTUAL BANDS - BAND    245; K    6; EIG -1.0160055E-01 AU
 INDIRECT ENERGY BAND GAP:   3.5824 eV
 BOTTOM OF VIRTUAL BANDS - BAND    245; K    1; EIG -1.0136493E-01 AU
 TTTTTTTTTTTTTTTTTTTTTTTTTTTTTT PDIG        TELAPSE      186.85 TCPU      120.39
 TOTAL ATOMIC CHARGES:
   6.1207342   6.1207342   6.1207342   6.1207342   5.9624361   5.9624361
   5.9624361   5.9624361   5.8518491   5.8518491   5.8518491   5.8518491
   5.6688006   5.6688006   5.6688006   5.6688006   5.6460583   5.6460583
   5.6460583   5.6460583   5.6787356   5.6787356   5.6787356   5.6787356
   7.2640025   7.2640025   7.2640025   7.2640025   7.0986579   7.0986579
   7.0986579   7.0986579   7.2521056   7.2521056   7.2521056   7.2521056
   7.0944318   7.0944318   7.0944318   7.0944318   7.2683689   7.2683689
   7.2683689   7.2683689   9.1575884   9.1575884   9.1575884   9.1575884
   9.1699049   9.1699049   9.1699049   9.1699049   9.1813665   9.1813665
   9.1813665   9.1813665   9.1328670   9.1328670   9.1328670   9.1328670
  28.8962715  28.9120984
 TTTTTTTTTTTTTTTTTTTTTTTTTTTTTT MOQGAD      TELAPSE      186.86 TCPU      120.40
 TTTTTTTTTTTTTTTTTTTTTTTTTTTTTT SHELLXN     TELAPSE      199.89 TCPU      131.18
 TTTTTTTTTTTTTTTTTTTTTTTTTTTTTT MONMO3      TELAPSE      203.85 TCPU      135.12
 NUMERICALLY INTEGRATED DENSITY    487.9999726924
 TTTTTTTTTTTTTTTTTTTTTTTTTTTTTT NUMDFT      TELAPSE      204.87 TCPU      136.14
 CYC   6 ETOT(AU) -7.158903857559E+03 DETOT -3.12E-03 tst  2.26E-05 PX  2.57E-02
 TTTTTTTTTTTTTTTTTTTTTTTTTTTTTT DIIS        TELAPSE      205.02 TCPU      136.29
 DIIS TEST: 0.13030E-01 AT SCF   CYCLE   6 - DIIS ACTIVE - HISTORY:     6 CYCLES
 TTTTTTTTTTTTTTTTTTTTTTTTTTTTTT FDIK        TELAPSE      210.98 TCPU      140.00
 INSULATING STATE
 TOP OF VALENCE BANDS -    BAND    244; K    5; EIG -2.3408752E-01 AU
 TOP OF VALENCE BANDS -    BAND    244; K    1; EIG -2.3553156E-01 AU
 BOTTOM OF VIRTUAL BANDS - BAND    245; K    6; EIG -1.0211131E-01 AU
 INDIRECT ENERGY BAND GAP:   3.5913 eV
 BOTTOM OF VIRTUAL BANDS - BAND    245; K    1; EIG -1.0195748E-01 AU
 TTTTTTTTTTTTTTTTTTTTTTTTTTTTTT PDIG        TELAPSE      211.44 TCPU      140.45
 TOTAL ATOMIC CHARGES:
   6.1226574   6.1226574   6.1226574   6.1226574   5.9655888   5.9655888
   5.9655888   5.9655888   5.8528656   5.8528656   5.8528656   5.8528656
   5.6798531   5.6798531   5.6798531   5.6798531   5.6530705   5.6530705
   5.6530705   5.6530705   5.6848728   5.6848728   5.6848728   5.6848728
   7.2647490   7.2647490   7.2647490   7.2647490   7.1278413   7.1278413
   7.1278413   7.1278413   7.2206237   7.2206237   7.2206237   7.2206237
   7.0909260   7.0909260   7.0909260   7.0909260   7.2671137   7.2671137
   7.2671137   7.2671137   9.1496774   9.1496774   9.1496774   9.1496774
   9.1732264   9.1732264   9.1732264   9.1732264   9.1655446   9.1655446
   9.1655446   9.1655446   9.1323564   9.1323564   9.1323564   9.1323564
  28.8922375  28.9038957
 TTTTTTTTTTTTTTTTTTTTTTTTTTTTTT MOQGAD      TELAPSE      211.45 TCPU      140.46
 TTTTTTTTTTTTTTTTTTTTTTTTTTTTTT SHELLXN     TELAPSE      224.60 TCPU      151.28
 TTTTTTTTTTTTTTTTTTTTTTTTTTTTTT MONMO3      TELAPSE      226.53 TCPU      153.20
 NUMERICALLY INTEGRATED DENSITY    487.9999734553
 TTTTTTTTTTTTTTTTTTTTTTTTTTTTTT NUMDFT      TELAPSE      227.55 TCPU      154.22
 CYC   7 ETOT(AU) -7.158904990117E+03 DETOT -1.13E-03 tst  8.71E-06 PX  1.50E-02
 TTTTTTTTTTTTTTTTTTTTTTTTTTTTTT DIIS        TELAPSE      227.69 TCPU      154.36
 DIIS TEST: 0.68394E-02 AT SCF   CYCLE   7 - DIIS ACTIVE - HISTORY:     7 CYCLES
 TTTTTTTTTTTTTTTTTTTTTTTTTTTTTT FDIK        TELAPSE      233.32 TCPU      157.80
 INSULATING STATE
 TOP OF VALENCE BANDS -    BAND    244; K    5; EIG -2.3407436E-01 AU
 TOP OF VALENCE BANDS -    BAND    244; K    1; EIG -2.3566018E-01 AU
 BOTTOM OF VIRTUAL BANDS - BAND    245; K    6; EIG -1.0231247E-01 AU
 INDIRECT ENERGY BAND GAP:   3.5854 eV
 BOTTOM OF VIRTUAL BANDS - BAND    245; K    1; EIG -1.0201473E-01 AU
 TTTTTTTTTTTTTTTTTTTTTTTTTTTTTT PDIG        TELAPSE      233.78 TCPU      158.25
 TOTAL ATOMIC CHARGES:
   6.1261687   6.1261687   6.1261687   6.1261687   5.9601406   5.9601406
   5.9601406   5.9601406   5.8504174   5.8504174   5.8504174   5.8504174
   5.6814991   5.6814991   5.6814991   5.6814991   5.6452743   5.6452743
   5.6452743   5.6452743   5.6873779   5.6873779   5.6873779   5.6873779
   7.2532626   7.2532626   7.2532626   7.2532626   7.1046935   7.1046935
   7.1046935   7.1046935   7.2470634   7.2470634   7.2470634   7.2470634
   7.1022181   7.1022181   7.1022181   7.1022181   7.2687021   7.2687021
   7.2687021   7.2687021   9.1528224   9.1528224   9.1528224   9.1528224
   9.1726724   9.1726724   9.1726724   9.1726724   9.1655721   9.1655721
   9.1655721   9.1655721   9.1324467   9.1324467   9.1324467   9.1324467
  28.8920892  28.9065856
 TTTTTTTTTTTTTTTTTTTTTTTTTTTTTT MOQGAD      TELAPSE      233.79 TCPU      158.26
 TTTTTTTTTTTTTTTTTTTTTTTTTTTTTT SHELLXN     TELAPSE      246.90 TCPU      169.19
 TTTTTTTTTTTTTTTTTTTTTTTTTTTTTT MONMO3      TELAPSE      248.90 TCPU      171.18
 NUMERICALLY INTEGRATED DENSITY    487.9999732257
 TTTTTTTTTTTTTTTTTTTTTTTTTTTTTT NUMDFT      TELAPSE      249.92 TCPU      172.19
 CYC   8 ETOT(AU) -7.158905578994E+03 DETOT -5.89E-04 tst  6.82E-06 PX  7.48E-03
 TTTTTTTTTTTTTTTTTTTTTTTTTTTTTT DIIS        TELAPSE      250.02 TCPU      172.29
 DIIS TEST: 0.35330E-02 AT SCF   CYCLE   8 - DIIS ACTIVE - HISTORY:     8 CYCLES
 TTTTTTTTTTTTTTTTTTTTTTTTTTTTTT FDIK        TELAPSE      258.51 TCPU      176.06
 INSULATING STATE
 TOP OF VALENCE BANDS -    BAND    244; K    5; EIG -2.3425046E-01 AU
 TOP OF VALENCE BANDS -    BAND    244; K    1; EIG -2.3572327E-01 AU
 BOTTOM OF VIRTUAL BANDS - BAND    245; K    6; EIG -1.0232698E-01 AU
 INDIRECT ENERGY BAND GAP:   3.5898 eV
 BOTTOM OF VIRTUAL BANDS - BAND    245; K    1; EIG -1.0210070E-01 AU
 TTTTTTTTTTTTTTTTTTTTTTTTTTTTTT PDIG        TELAPSE      258.97 TCPU      176.52
 TOTAL ATOMIC CHARGES:
   6.1269207   6.1269207   6.1269207   6.1269207   5.9583861   5.9583861
   5.9583861   5.9583861   5.8484236   5.8484236   5.8484236   5.8484236
   5.6772669   5.6772669   5.6772669   5.6772669   5.6465165   5.6465165
   5.6465165   5.6465165   5.6855860   5.6855860   5.6855860   5.6855860
   7.2653637   7.2653637   7.2653637   7.2653637   7.1108243   7.1108243
   7.1108243   7.1108243   7.2397961   7.2397961   7.2397961   7.2397961
   7.0920343   7.0920343   7.0920343   7.0920343   7.2699508   7.2699508
   7.2699508   7.2699508   9.1533460   9.1533460   9.1533460   9.1533460
   9.1730915   9.1730915   9.1730915   9.1730915   9.1691709   9.1691709
   9.1691709   9.1691709   9.1326565   9.1326565   9.1326565   9.1326565
  28.8945106  28.9081542
 TTTTTTTTTTTTTTTTTTTTTTTTTTTTTT MOQGAD      TELAPSE      258.98 TCPU      176.53
 TTTTTTTTTTTTTTTTTTTTTTTTTTTTTT SHELLXN     TELAPSE      272.25 TCPU      187.43
 TTTTTTTTTTTTTTTTTTTTTTTTTTTTTT MONMO3      TELAPSE      274.18 TCPU      189.35
 NUMERICALLY INTEGRATED DENSITY    487.9999731225
 TTTTTTTTTTTTTTTTTTTTTTTTTTTTTT NUMDFT      TELAPSE      275.20 TCPU      190.36
 CYC   9 ETOT(AU) -7.158906092623E+03 DETOT -5.14E-04 tst  1.62E-06 PX  3.54E-03
 TTTTTTTTTTTTTTTTTTTTTTTTTTTTTT DIIS        TELAPSE      275.30 TCPU      190.46
 DIIS TEST: 0.27568E-03 AT SCF   CYCLE   9 - DIIS ACTIVE - HISTORY:     9 CYCLES
 TTTTTTTTTTTTTTTTTTTTTTTTTTTTTT FDIK        TELAPSE      281.41 TCPU      192.73
 INSULATING STATE
 TOP OF VALENCE BANDS -    BAND    244; K    5; EIG -2.3410716E-01 AU
 TOP OF VALENCE BANDS -    BAND    244; K    1; EIG -2.3558088E-01 AU
 BOTTOM OF VIRTUAL BANDS - BAND    245; K    6; EIG -1.0218417E-01 AU
 INDIRECT ENERGY BAND GAP:   3.5898 eV
 BOTTOM OF VIRTUAL BANDS - BAND    245; K    1; EIG -1.0193934E-01 AU
 TTTTTTTTTTTTTTTTTTTTTTTTTTTTTT PDIG        TELAPSE      281.87 TCPU      193.18
 TOTAL ATOMIC CHARGES:
   6.1241840   6.1241840   6.1241840   6.1241840   5.9617250   5.9617250
   5.9617250   5.9617250   5.8519069   5.8519069   5.8519069   5.8519069
   5.6773356   5.6773356   5.6773356   5.6773356   5.6481291   5.6481291
   5.6481291   5.6481291   5.6840782   5.6840782   5.6840782   5.6840782
   7.2590941   7.2590941   7.2590941   7.2590941   7.1133729   7.1133729
   7.1133729   7.1133729   7.2368508   7.2368508   7.2368508   7.2368508
   7.0969416   7.0969416   7.0969416   7.0969416   7.2690074   7.2690074
   7.2690074   7.2690074   9.1527723   9.1527723   9.1527723   9.1527723
   9.1719342   9.1719342   9.1719342   9.1719342   9.1697363   9.1697363
   9.1697363   9.1697363   9.1326358   9.1326358   9.1326358   9.1326358
  28.8939104  28.9072741
 TTTTTTTTTTTTTTTTTTTTTTTTTTTTTT MOQGAD      TELAPSE      281.88 TCPU      193.19
 TTTTTTTTTTTTTTTTTTTTTTTTTTTTTT SHELLXN     TELAPSE      295.10 TCPU      204.14
 TTTTTTTTTTTTTTTTTTTTTTTTTTTTTT MONMO3      TELAPSE      297.17 TCPU      206.20
 NUMERICALLY INTEGRATED DENSITY    487.9999732590
 TTTTTTTTTTTTTTTTTTTTTTTTTTTTTT NUMDFT      TELAPSE      298.24 TCPU      207.26
 CYC  10 ETOT(AU) -7.158906109589E+03 DETOT -1.70E-05 tst  5.36E-07 PX  1.63E-03
 TTTTTTTTTTTTTTTTTTTTTTTTTTTTTT DIIS        TELAPSE      298.40 TCPU      207.41
 DIIS TEST: 0.14024E-03 AT SCF   CYCLE  10 - DIIS ACTIVE - HISTORY:    10 CYCLES
 TTTTTTTTTTTTTTTTTTTTTTTTTTTTTT FDIK        TELAPSE      304.57 TCPU      211.40
 INSULATING STATE
 TOP OF VALENCE BANDS -    BAND    244; K    5; EIG -2.3406259E-01 AU
 TOP OF VALENCE BANDS -    BAND    244; K    1; EIG -2.3554580E-01 AU
 BOTTOM OF VIRTUAL BANDS - BAND    245; K    6; EIG -1.0223818E-01 AU
 INDIRECT ENERGY BAND GAP:   3.5871 eV
 BOTTOM OF VIRTUAL BANDS - BAND    245; K    1; EIG -1.0201509E-01 AU
 TTTTTTTTTTTTTTTTTTTTTTTTTTTTTT PDIG        TELAPSE      305.02 TCPU      211.85
 TOTAL ATOMIC CHARGES:
   6.1245902   6.1245902   6.1245902   6.1245902   5.9607646   5.9607646
   5.9607646   5.9607646   5.8504123   5.8504123   5.8504123   5.8504123
   5.6782998   5.6782998   5.6782998   5.6782998   5.6477636   5.6477636
   5.6477636   5.6477636   5.6847011   5.6847011   5.6847011   5.6847011
   7.2634301   7.2634301   7.2634301   7.2634301   7.1110830   7.1110830
   7.1110830   7.1110830   7.2396456   7.2396456   7.2396456   7.2396456
   7.0937809   7.0937809   7.0937809   7.0937809   7.2692857   7.2692857
   7.2692857   7.2692857   9.1525873   9.1525873   9.1525873   9.1525873
   9.1725673   9.1725673   9.1725673   9.1725673   9.1685517   9.1685517
   9.1685517   9.1685517   9.1325043   9.1325043   9.1325043   9.1325043
  28.8933034  28.9068267
 TTTTTTTTTTTTTTTTTTTTTTTTTTTTTT MOQGAD      TELAPSE      305.03 TCPU      211.87
 TTTTTTTTTTTTTTTTTTTTTTTTTTTTTT SHELLXN     TELAPSE      318.23 TCPU      222.79
 TTTTTTTTTTTTTTTTTTTTTTTTTTTTTT MONMO3      TELAPSE      320.14 TCPU      224.70
 NUMERICALLY INTEGRATED DENSITY    487.9999731862
 TTTTTTTTTTTTTTTTTTTTTTTTTTTTTT NUMDFT      TELAPSE      321.16 TCPU      225.71
 CYC  11 ETOT(AU) -7.158906125325E+03 DETOT -1.57E-05 tst  2.73E-07 PX  1.09E-03
 TTTTTTTTTTTTTTTTTTTTTTTTTTTTTT DIIS        TELAPSE      321.29 TCPU      225.84
 DIIS TEST: 0.50461E-04 AT SCF   CYCLE  11 - DIIS ACTIVE - HISTORY:    11 CYCLES
 TTTTTTTTTTTTTTTTTTTTTTTTTTTTTT FDIK        TELAPSE      326.92 TCPU      229.76
 INSULATING STATE
 TOP OF VALENCE BANDS -    BAND    244; K    5; EIG -2.3411479E-01 AU
 TOP OF VALENCE BANDS -    BAND    244; K    1; EIG -2.3558929E-01 AU
 BOTTOM OF VIRTUAL BANDS - BAND    245; K    6; EIG -1.0220285E-01 AU
 INDIRECT ENERGY BAND GAP:   3.5895 eV
 BOTTOM OF VIRTUAL BANDS - BAND    245; K    1; EIG -1.0196983E-01 AU
 TTTTTTTTTTTTTTTTTTTTTTTTTTTTTT PDIG        TELAPSE      327.39 TCPU      230.23
 TOTAL ATOMIC CHARGES:
   6.1253207   6.1253207   6.1253207   6.1253207   5.9601346   5.9601346
   5.9601346   5.9601346   5.8500976   5.8500976   5.8500976   5.8500976
   5.6777090   5.6777090   5.6777090   5.6777090   5.6472207   5.6472207
   5.6472207   5.6472207   5.6852477   5.6852477   5.6852477   5.6852477
   7.2620683   7.2620683   7.2620683   7.2620683   7.1121243   7.1121243
   7.1121243   7.1121243   7.2383937   7.2383937   7.2383937   7.2383937
   7.0948105   7.0948105   7.0948105   7.0948105   7.2691688   7.2691688
   7.2691688   7.2691688   9.1529612   9.1529612   9.1529612   9.1529612
   9.1726487   9.1726487   9.1726487   9.1726487   9.1690546   9.1690546
   9.1690546   9.1690546   9.1326105   9.1326105   9.1326105   9.1326105
  28.8940105  28.9077051
 TTTTTTTTTTTTTTTTTTTTTTTTTTTTTT MOQGAD      TELAPSE      327.40 TCPU      230.24
 TTTTTTTTTTTTTTTTTTTTTTTTTTTTTT SHELLXN     TELAPSE      340.61 TCPU      241.09
 TTTTTTTTTTTTTTTTTTTTTTTTTTTTTT MONMO3      TELAPSE      342.56 TCPU      243.03
 NUMERICALLY INTEGRATED DENSITY    487.9999731939
 TTTTTTTTTTTTTTTTTTTTTTTTTTTTTT NUMDFT      TELAPSE      343.64 TCPU      244.10
 CYC  12 ETOT(AU) -7.158906133077E+03 DETOT -7.75E-06 tst  4.18E-08 PX  3.55E-04
 TTTTTTTTTTTTTTTTTTTTTTTTTTTTTT DIIS        TELAPSE      343.74 TCPU      244.20
 DIIS TEST: 0.49854E-05 AT SCF   CYCLE  12 - DIIS ACTIVE - HISTORY:    12 CYCLES
 TTTTTTTTTTTTTTTTTTTTTTTTTTTTTT FDIK        TELAPSE      349.77 TCPU      248.12
 INSULATING STATE
 TOP OF VALENCE BANDS -    BAND    244; K    5; EIG -2.3411404E-01 AU
 TOP OF VALENCE BANDS -    BAND    244; K    1; EIG -2.3559427E-01 AU
 BOTTOM OF VIRTUAL BANDS - BAND    245; K    6; EIG -1.0222818E-01 AU
 INDIRECT ENERGY BAND GAP:   3.5888 eV
 BOTTOM OF VIRTUAL BANDS - BAND    245; K    1; EIG -1.0199440E-01 AU
 TTTTTTTTTTTTTTTTTTTTTTTTTTTTTT PDIG        TELAPSE      350.23 TCPU      248.56
 TOTAL ATOMIC CHARGES:
   6.1250889   6.1250889   6.1250889   6.1250889   5.9605959   5.9605959
   5.9605959   5.9605959   5.8505488   5.8505488   5.8505488   5.8505488
   5.6776868   5.6776868   5.6776868   5.6776868   5.6477079   5.6477079
   5.6477079   5.6477079   5.6846274   5.6846274   5.6846274   5.6846274
   7.2620471   7.2620471   7.2620471   7.2620471   7.1119029   7.1119029
   7.1119029   7.1119029   7.2385619   7.2385619   7.2385619   7.2385619
   7.0946876   7.0946876   7.0946876   7.0946876   7.2693165   7.2693165
   7.2693165   7.2693165   9.1528279   9.1528279   9.1528279   9.1528279
   9.1724238   9.1724238   9.1724238   9.1724238   9.1690872   9.1690872
   9.1690872   9.1690872   9.1326060   9.1326060   9.1326060   9.1326060
  28.8938107  28.9073229
 TTTTTTTTTTTTTTTTTTTTTTTTTTTTTT MOQGAD      TELAPSE      350.24 TCPU      248.58
 TTTTTTTTTTTTTTTTTTTTTTTTTTTTTT SHELLXN     TELAPSE      363.26 TCPU      259.35
 TTTTTTTTTTTTTTTTTTTTTTTTTTTTTT MONMO3      TELAPSE      367.03 TCPU      263.11
 NUMERICALLY INTEGRATED DENSITY    487.9999731946
 TTTTTTTTTTTTTTTTTTTTTTTTTTTTTT NUMDFT      TELAPSE      368.09 TCPU      264.16
 CYC  13 ETOT(AU) -7.158906133815E+03 DETOT -7.39E-07 tst  3.19E-09 PX  2.01E-04
 TTTTTTTTTTTTTTTTTTTTTTTTTTTTTT DIIS        TELAPSE      368.21 TCPU      264.27
 DIIS TEST: 0.10134E-05 AT SCF   CYCLE  13 - DIIS ACTIVE - HISTORY:    13 CYCLES
 TTTTTTTTTTTTTTTTTTTTTTTTTTTTTT FDIK        TELAPSE      374.19 TCPU      268.00
 INSULATING STATE
 TOP OF VALENCE BANDS -    BAND    244; K    5; EIG -2.3410922E-01 AU
 TOP OF VALENCE BANDS -    BAND    244; K    1; EIG -2.3558544E-01 AU
 BOTTOM OF VIRTUAL BANDS - BAND    245; K    6; EIG -1.0221994E-01 AU
 INDIRECT ENERGY BAND GAP:   3.5889 eV
 BOTTOM OF VIRTUAL BANDS - BAND    245; K    1; EIG -1.0198757E-01 AU
 TTTTTTTTTTTTTTTTTTTTTTTTTTTTTT PDIG        TELAPSE      374.65 TCPU      268.45
 TOTAL ATOMIC CHARGES:
   6.1248989   6.1248989   6.1248989   6.1248989   5.9605405   5.9605405
   5.9605405   5.9605405   5.8505321   5.8505321   5.8505321   5.8505321
   5.6777994   5.6777994   5.6777994   5.6777994   5.6475424   5.6475424
   5.6475424   5.6475424   5.6848411   5.6848411   5.6848411   5.6848411
   7.2620947   7.2620947   7.2620947   7.2620947   7.1119844   7.1119844
   7.1119844   7.1119844   7.2385441   7.2385441   7.2385441   7.2385441
   7.0947716   7.0947716   7.0947716   7.0947716   7.2691750   7.2691750
   7.2691750   7.2691750   9.1528311   9.1528311   9.1528311   9.1528311
   9.1725077   9.1725077   9.1725077   9.1725077   9.1690731   9.1690731
   9.1690731   9.1690731   9.1325931   9.1325931   9.1325931   9.1325931
  28.8937586  28.9073259
 TTTTTTTTTTTTTTTTTTTTTTTTTTTTTT MOQGAD      TELAPSE      374.66 TCPU      268.46
 TTTTTTTTTTTTTTTTTTTTTTTTTTTTTT SHELLXN     TELAPSE      385.66 TCPU      279.41
 +++ ENERGIES IN A.U. +++
 ::: EXT EL-POLE                                  -1.2650622454285E+04
 ::: EXT EL-SPHEROPOLE                             8.1475217992547E+01
 ::: BIELET ZONE E-E                               1.4942833804283E+04
 ::: TOTAL E-E                                     2.3736865679899E+03
 ::: TOTAL E-N + N-E                              -1.5023198738721E+04
 ::: TOTAL N-N                                    -1.0609126325703E+03
 ::: KINETIC ENERGY                                7.1248628261755E+03
 ::: PSEUDO TOTAL   ENERGY                        -6.5855619771255E+03
 ::: VIRIAL COEFFICIENT                            1.0393350940461E+00
[...]
 *** K POINTS COORDINATES (OBLIQUE COORDINATES IN UNITS OF SHRINK FAC. )
   1-R(  0  0  0)   2-C(  1  0  0)   3-C(  2  0  1)   4-C(  1  1  0)
   5-C(  1  0  1)   6-C(  2  1  0)   7-C(  0  0  2)   8-C(  2  1  1)
   9-C(  2  1  2)  10-C(  2  2  1)

 GCALCO - MAX INDICES DIRECT LATTICE VECTOR    14    14    15
 NO.OF VECTORS CREATED 6999 STARS  487 RMAX   199.84368 BOHR
 TTTTTTTTTTTTTTTTTTTTTTTTTTTTTT gordsh1     TELAPSE    41370.46 TCPU    40834.13

 MATRIX SIZE: P(G) 1714156, F(G)  857924, P(G) IRR  432400, F(G) IRR  432400
 MAX G-VECTOR INDEX FOR 1- AND 2-ELECTRON INTEGRALS  59

 TTTTTTTTTTTTTTTTTTTTTTTTTTTTTT INPUT       TELAPSE    41370.49 TCPU    40834.16
 TTTTTTTTTTTTTTTTTTTTTTTTTTTTTT SYMM        TELAPSE    41370.49 TCPU    40834.16

 ***** NEW REFERENCE GEOMETRY *****
 TTTTTTTTTTTTTTTTTTTTTTTTTTTTTT INT_SCREEN  TELAPSE    41370.49 TCPU    40834.16
 INFORMATION **** EXCBUF **** EXCH. BIPO BUFFER: WORDS USED =           0

 DFT PARAMETERS

     ATOM       ELECTRONS   NET CHARGE   R(ANGSTROM)
   1   6  C       6.0000      0.0000     0.77000000
  25   7  N       7.0000      0.0000     0.74000000
  45   9  F       9.0000      0.0000     0.72000000
  61  30  ZN     30.0000      0.0000     1.37000000

 SIZE OF GRID=    1015456
 TTTTTTTTTTTTTTTTTTTTTTTTTTTTTT MAKE_GRID2  TELAPSE    41371.11 TCPU    40834.77
 BECKE WEIGHT FUNCTION
 RADSAFE =     2.00
 TOLERANCES - DENSITY:10**- 6; POTENTIAL:10**- 9; GRID WGT:10**-14

 RADIAL INTEGRATION  - INTERVALS (POINTS,UPPER LIMIT):            1( 75,  4.0*R)

 ANGULAR INTEGRATION - INTERVALS (ACCURACY LEVEL [N. POINTS] UPPER LIMIT):
  1(  4[  86]   0.2)  2(  8[ 194]   0.5)  3( 12[ 350]   0.9)  4( 16[ 974]   3.5)
  5( 12[ 350]9999.0)
 TTTTTTTTTTTTTTTTTTTTTTTTTTTTTT INT_CALC    TELAPSE    41371.13 TCPU    40834.80
 CYCLE   0   ALPHA  523.528401  EPSILON    2.370219  DELTA    5.2353E+02
 TTTTTTTTTTTTTTTTTTTTTTTTTTTTTT MOQGAD      TELAPSE    41480.84 TCPU    40943.79
 TTTTTTTTTTTTTTTTTTTTTTTTTTTTTT CP_MONMON   TELAPSE    41483.66 TCPU    40946.59
 DIIS TEST: 0.71463E+02 AT CPHF  CYCLE   1 - MIX    0 %
 CYCLE   1   ALPHA  245.331577  EPSILON    1.642101  DELTA   -2.7820E+02
 TTTTTTTTTTTTTTTTTTTTTTTTTTTTTT MOQGAD      TELAPSE    41597.33 TCPU    41057.33
 TTTTTTTTTTTTTTTTTTTTTTTTTTTTTT CP_MONMON   TELAPSE    41600.15 TCPU    41060.12
 DIIS TEST: 0.45759E+03 AT CPHF  CYCLE   2 - DIIS ACTIVE - HISTORY:     2 CYCLES
 CYCLE   2   ALPHA  382.470659  EPSILON    2.001032  DELTA    1.3714E+02
 TTTTTTTTTTTTTTTTTTTTTTTTTTTTTT MOQGAD      TELAPSE    41712.03 TCPU    41170.92
 TTTTTTTTTTTTTTTTTTTTTTTTTTTTTT CP_MONMON   TELAPSE    41714.88 TCPU    41173.75
 DIIS TEST: 0.16755E+02 AT CPHF  CYCLE   3 - DIIS ACTIVE - HISTORY:     3 CYCLES
 CYCLE   3   ALPHA  404.266647  EPSILON    2.058078  DELTA    2.1796E+01
 TTTTTTTTTTTTTTTTTTTTTTTTTTTTTT MOQGAD      TELAPSE    41826.97 TCPU    41284.78
 TTTTTTTTTTTTTTTTTTTTTTTTTTTTTT CP_MONMON   TELAPSE    41829.80 TCPU    41287.59
 DIIS TEST: 0.47009E+01 AT CPHF  CYCLE   4 - DIIS ACTIVE - HISTORY:     4 CYCLES
 CYCLE   4   ALPHA  405.974590  EPSILON    2.062548  DELTA    1.7079E+00
 TTTTTTTTTTTTTTTTTTTTTTTTTTTTTT MOQGAD      TELAPSE    41941.89 TCPU    41398.68
 TTTTTTTTTTTTTTTTTTTTTTTTTTTTTT CP_MONMON   TELAPSE    41944.72 TCPU    41401.49
 DIIS TEST: 0.98427E-01 AT CPHF  CYCLE   5 - DIIS ACTIVE - HISTORY:     5 CYCLES
 CYCLE   5   ALPHA  406.379259  EPSILON    2.063607  DELTA    4.0467E-01
 TTTTTTTTTTTTTTTTTTTTTTTTTTTTTT MOQGAD      TELAPSE    42056.79 TCPU    41512.52
 TTTTTTTTTTTTTTTTTTTTTTTTTTTTTT CP_MONMON   TELAPSE    42059.61 TCPU    41515.32
 DIIS TEST: 0.24116E-01 AT CPHF  CYCLE   6 - DIIS ACTIVE - HISTORY:     6 CYCLES
 CYCLE   6   ALPHA  406.470731  EPSILON    2.063847  DELTA    9.1472E-02
 TTTTTTTTTTTTTTTTTTTTTTTTTTTTTT MOQGAD      TELAPSE    42171.54 TCPU    41626.24
 TTTTTTTTTTTTTTTTTTTTTTTTTTTTTT CP_MONMON   TELAPSE    42174.36 TCPU    41629.04
 DIIS TEST: 0.32091E-01 AT CPHF  CYCLE   7 - DIIS ACTIVE - HISTORY:     7 CYCLES
 CYCLE   7   ALPHA  406.481426  EPSILON    2.063875  DELTA    1.0695E-02
 TTTTTTTTTTTTTTTTTTTTTTTTTTTTTT MOQGAD      TELAPSE    42286.14 TCPU    41739.72
 TTTTTTTTTTTTTTTTTTTTTTTTTTTTTT CP_MONMON   TELAPSE    42288.97 TCPU    41742.53
 DIIS TEST: 0.27134E-02 AT CPHF  CYCLE   8 - DIIS ACTIVE - HISTORY:     8 CYCLES
 CYCLE   8   ALPHA  406.482535  EPSILON    2.063878  DELTA    1.1090E-03
 TTTTTTTTTTTTTTTTTTTTTTTTTTTTTT MOQGAD      TELAPSE    42400.81 TCPU    41853.32
 TTTTTTTTTTTTTTTTTTTTTTTTTTTTTT CP_MONMON   TELAPSE    42403.67 TCPU    41856.15
 DIIS TEST: 0.46890E-03 AT CPHF  CYCLE   9 - DIIS ACTIVE - HISTORY:     9 CYCLES
 CYCLE   9   ALPHA  406.490930  EPSILON    2.063900  DELTA    8.3948E-03
 TTTTTTTTTTTTTTTTTTTTTTTTTTTTTT MOQGAD      TELAPSE    42516.22 TCPU    41967.67
 TTTTTTTTTTTTTTTTTTTTTTTTTTTTTT CP_MONMON   TELAPSE    42519.06 TCPU    41970.49
 DIIS TEST: 0.20816E-04 AT CPHF  CYCLE  10 - DIIS ACTIVE - HISTORY:    10 CYCLES
 CYCLE  10   ALPHA  406.484984  EPSILON    2.063884  DELTA   -5.9466E-03
 TTTTTTTTTTTTTTTTTTTTTTTTTTTTTT MOQGAD      TELAPSE    42630.91 TCPU    42081.32
 TTTTTTTTTTTTTTTTTTTTTTTTTTTTTT CP_MONMON   TELAPSE    42633.73 TCPU    42084.12
 DIIS TEST: 0.43217E-05 AT CPHF  CYCLE  11 - DIIS ACTIVE - HISTORY:    11 CYCLES
 CYCLE  11   ALPHA  406.482647  EPSILON    2.063878  DELTA   -2.3370E-03
 TTTTTTTTTTTTTTTTTTTTTTTTTTTTTT MOQGAD      TELAPSE    42745.67 TCPU    42195.05
 TTTTTTTTTTTTTTTTTTTTTTTTTTTTTT CP_MONMON   TELAPSE    42748.49 TCPU    42197.84
 DIIS TEST: 0.18973E-06 AT CPHF  CYCLE  12 - DIIS ACTIVE - HISTORY:    12 CYCLES
 CYCLE  12   ALPHA  406.482349  EPSILON    2.063877  DELTA   -2.9796E-04
 TTTTTTTTTTTTTTTTTTTTTTTTTTTTTT CP_SC       TELAPSE    42759.07 TCPU    42206.56

 *******************************************************************************

 POLARIZABILITY (ALPHA), DIELECTRIC (EPSILON) AND FIRST-ORDER ELECTRIC
 SUSCEPTIBILITY (CHI(1)) TENSORS (INDEPENDENT COMPONENTS)

  FR.(eV) COMP.   ALPHA(Re,Im)           EPSILON(Re,Im)                CHI(1)
  1.435   XX     831.4290       0.0000       3.1761       0.0000       2.1761
  1.435   ZZ     406.4823       0.0000       2.0639       0.0000       1.0639

 DIELECTRIC TENSOR

 TENSOR IN PRINCIPAL AXES SYSTEM
 AA  3.176081E+00 BB  3.176081E+00 CC  2.063877E+00

 REFRACTIVE INDICES 
 AA  1.436620E+00 BB  1.782156E+00 CC  1.782156E+00

 OPTICALLY ANISOTROPIC - UNIAXIAL CRYSTAL

 BIREFRINGENCE =  0.3455 (NEGATIVE) - OBLATE OPTICAL ELLIPSOID

 EPSILON=N**2=1+CHI(1)=1+ALPHA*4*PI/V,   4*PI/V=   0.00262 BOHR**(-3)
 ALPHA IN BOHR**3; EPSILON AND CHI(1) ARE DIMENSIONLESS.
 *******************************************************************************

 DYNAMIC FIELD: RUN 10/ 10 - RADIATION WAVELENGTH: 1064.0000 NM

 *******************************************************************************

 ELECTRIC FIELD APPLIED ALONG CARTESIAN DIRECTION X

 *******************************************************************************
 THE NUMBER OF SYMMETRY OPERATORS HAS BEEN REDUCED FROM  4 TO  1

 NEW GRID IN RECIPROCAL SPACE
 *******************************************************************************
 POINTS IN THE IBZ                  14 SHRINKING FACTORS               3  3  3
 *******************************************************************************
 *** K POINTS COORDINATES (OBLIQUE COORDINATES IN UNITS OF SHRINK FAC. )
   1-R(  0  0  0)   2-C(  1  0  0)   3-C(  0  1  2)   4-C(  2  0  1)
   5-C(  0  2  0)   6-C(  1  1  0)   7-C(  1  1  1)   8-C(  1  0  1)
   9-C(  0  1  1)  10-C(  2  1  0)  11-C(  0  0  2)  12-C(  2  1  1)
  13-C(  2  1  2)  14-C(  2  2  1)

 GCALCO - MAX INDICES DIRECT LATTICE VECTOR    14    14    15
 NO.OF VECTORS CREATED 6999 STARS  487 RMAX   199.84368 BOHR
 TTTTTTTTTTTTTTTTTTTTTTTTTTTTTT gordsh1     TELAPSE    42759.08 TCPU    42206.57

 MATRIX SIZE: P(G) 1714156, F(G)  857924, P(G) IRR  860002, F(G) IRR  860002
 MAX G-VECTOR INDEX FOR 1- AND 2-ELECTRON INTEGRALS  59

 TTTTTTTTTTTTTTTTTTTTTTTTTTTTTT INPUT       TELAPSE    42759.16 TCPU    42206.64
 TTTTTTTTTTTTTTTTTTTTTTTTTTTTTT SYMM        TELAPSE    42759.16 TCPU    42206.64

 ***** NEW REFERENCE GEOMETRY *****
 TTTTTTTTTTTTTTTTTTTTTTTTTTTTTT INT_SCREEN  TELAPSE    42759.16 TCPU    42206.65
 INFORMATION **** EXCBUF **** EXCH. BIPO BUFFER: WORDS USED =           0

 DFT PARAMETERS

     ATOM       ELECTRONS   NET CHARGE   R(ANGSTROM)
   1   6  C       6.0000      0.0000     0.77000000
  25   7  N       7.0000      0.0000     0.74000000
  45   9  F       9.0000      0.0000     0.72000000
  61  30  ZN     30.0000      0.0000     1.37000000

 SIZE OF GRID=    2030668
 TTTTTTTTTTTTTTTTTTTTTTTTTTTTTT MAKE_GRID2  TELAPSE    42760.16 TCPU    42207.64
 BECKE WEIGHT FUNCTION
 RADSAFE =     2.00
 TOLERANCES - DENSITY:10**- 6; POTENTIAL:10**- 9; GRID WGT:10**-14

 RADIAL INTEGRATION  - INTERVALS (POINTS,UPPER LIMIT):            1( 75,  4.0*R)

 ANGULAR INTEGRATION - INTERVALS (ACCURACY LEVEL [N. POINTS] UPPER LIMIT):
  1(  4[  86]   0.2)  2(  8[ 194]   0.5)  3( 12[ 350]   0.9)  4( 16[ 974]   3.5)
  5( 12[ 350]9999.0)
 TTTTTTTTTTTTTTTTTTTTTTTTTTTTTT INT_CALC    TELAPSE    42760.19 TCPU    42207.67
 CYCLE   0   ALPHA 1229.057876  EPSILON    4.216786  DELTA    1.2291E+03
 TTTTTTTTTTTTTTTTTTTTTTTTTTTTTT MOQGAD      TELAPSE    42958.65 TCPU    42405.02
 TTTTTTTTTTTTTTTTTTTTTTTTTTTTTT CP_MONMON   TELAPSE    42963.79 TCPU    42410.12
 DIIS TEST: 0.39945E+03 AT CPHF  CYCLE   1 - MIX    0 %
 CYCLE   1   ALPHA  -68.105568  EPSILON    0.821749  DELTA   -1.2972E+03
 TTTTTTTTTTTTTTTTTTTTTTTTTTTTTT MOQGAD      TELAPSE    43164.10 TCPU    42608.48
 TTTTTTTTTTTTTTTTTTTTTTTTTTTTTT CP_MONMON   TELAPSE    43169.26 TCPU    42613.61
 DIIS TEST: 0.29874E+04 AT CPHF  CYCLE   2 - DIIS ACTIVE - HISTORY:     2 CYCLES
 CYCLE   2   ALPHA  762.310821  EPSILON    2.995179  DELTA    8.3042E+02
 TTTTTTTTTTTTTTTTTTTTTTTTTTTTTT MOQGAD      TELAPSE    43369.25 TCPU    42811.59
 TTTTTTTTTTTTTTTTTTTTTTTTTTTTTT CP_MONMON   TELAPSE    43374.40 TCPU    42816.70
 DIIS TEST: 0.86438E+02 AT CPHF  CYCLE   3 - DIIS ACTIVE - HISTORY:     3 CYCLES
 CYCLE   3   ALPHA  801.466095  EPSILON    3.097660  DELTA    3.9155E+01
 TTTTTTTTTTTTTTTTTTTTTTTTTTTTTT MOQGAD      TELAPSE    43574.40 TCPU    43014.67
 TTTTTTTTTTTTTTTTTTTTTTTTTTTTTT CP_MONMON   TELAPSE    43579.55 TCPU    43019.79
 DIIS TEST: 0.36705E+01 AT CPHF  CYCLE   4 - DIIS ACTIVE - HISTORY:     4 CYCLES
 CYCLE   4   ALPHA  810.819686  EPSILON    3.122141  DELTA    9.3536E+00
 TTTTTTTTTTTTTTTTTTTTTTTTTTTTTT MOQGAD      TELAPSE    43779.72 TCPU    43217.99
 TTTTTTTTTTTTTTTTTTTTTTTTTTTTTT CP_MONMON   TELAPSE    43784.86 TCPU    43223.10
 DIIS TEST: 0.10351E+01 AT CPHF  CYCLE   5 - DIIS ACTIVE - HISTORY:     5 CYCLES
 CYCLE   5   ALPHA  817.865426  EPSILON    3.140581  DELTA    7.0457E+00
 TTTTTTTTTTTTTTTTTTTTTTTTTTTTTT MOQGAD      TELAPSE    43984.84 TCPU    43421.13
 TTTTTTTTTTTTTTTTTTTTTTTTTTTTTT CP_MONMON   TELAPSE    43989.99 TCPU    43426.25
 DIIS TEST: 0.10080E+00 AT CPHF  CYCLE   6 - DIIS ACTIVE - HISTORY:     6 CYCLES
 CYCLE   6   ALPHA  819.655197  EPSILON    3.145266  DELTA    1.7898E+00
 TTTTTTTTTTTTTTTTTTTTTTTTTTTTTT MOQGAD      TELAPSE    44189.92 TCPU    43624.16
 TTTTTTTTTTTTTTTTTTTTTTTTTTTTTT CP_MONMON   TELAPSE    44195.06 TCPU    43629.27
 DIIS TEST: 0.73137E-02 AT CPHF  CYCLE   7 - DIIS ACTIVE - HISTORY:     7 CYCLES
 CYCLE   7   ALPHA  819.809085  EPSILON    3.145668  DELTA    1.5389E-01
 TTTTTTTTTTTTTTTTTTTTTTTTTTTTTT MOQGAD      TELAPSE    44396.35 TCPU    43828.66
 TTTTTTTTTTTTTTTTTTTTTTTTTTTTTT CP_MONMON   TELAPSE    44401.49 TCPU    43833.77
 DIIS TEST: 0.76435E-03 AT CPHF  CYCLE   8 - DIIS ACTIVE - HISTORY:     8 CYCLES
 CYCLE   8   ALPHA  819.890737  EPSILON    3.145882  DELTA    8.1653E-02
 TTTTTTTTTTTTTTTTTTTTTTTTTTTTTT MOQGAD      TELAPSE    44601.88 TCPU    44032.13
 TTTTTTTTTTTTTTTTTTTTTTTTTTTTTT CP_MONMON   TELAPSE    44607.02 TCPU    44037.24
 DIIS TEST: 0.11355E-03 AT CPHF  CYCLE   9 - DIIS ACTIVE - HISTORY:     9 CYCLES
 CYCLE   9   ALPHA  819.896238  EPSILON    3.145896  DELTA    5.5001E-03
 TTTTTTTTTTTTTTTTTTTTTTTTTTTTTT MOQGAD      TELAPSE    44807.38 TCPU    44235.65
 TTTTTTTTTTTTTTTTTTTTTTTTTTTTTT CP_MONMON   TELAPSE    44812.54 TCPU    44240.76
 DIIS TEST: 0.85947E-05 AT CPHF  CYCLE  10 - DIIS ACTIVE - HISTORY:    10 CYCLES
 CYCLE  10   ALPHA  819.883367  EPSILON    3.145863  DELTA   -1.2870E-02
 TTTTTTTTTTTTTTTTTTTTTTTTTTTTTT MOQGAD      TELAPSE    45012.81 TCPU    44439.06
 TTTTTTTTTTTTTTTTTTTTTTTTTTTTTT CP_MONMON   TELAPSE    45017.97 TCPU    44444.19
 DIIS TEST: 0.18570E-05 AT CPHF  CYCLE  11 - DIIS ACTIVE - HISTORY:    11 CYCLES
 CYCLE  11   ALPHA  819.877619  EPSILON    3.145848  DELTA   -5.7480E-03
 TTTTTTTTTTTTTTTTTTTTTTTTTTTTTT MOQGAD      TELAPSE    45217.93 TCPU    44642.13
 TTTTTTTTTTTTTTTTTTTTTTTTTTTTTT CP_MONMON   TELAPSE    45223.08 TCPU    44647.26
 DIIS TEST: 0.18189E-05 AT CPHF  CYCLE  12 - DIIS ACTIVE - HISTORY:    12 CYCLES
 CYCLE  12   ALPHA  819.876604  EPSILON    3.145845  DELTA   -1.0158E-03
 TTTTTTTTTTTTTTTTTTTTTTTTTTTTTT MOQGAD      TELAPSE    45423.54 TCPU    44845.57
 TTTTTTTTTTTTTTTTTTTTTTTTTTTTTT CP_MONMON   TELAPSE    45428.69 TCPU    44850.68
 DIIS TEST: 0.48024E-06 AT CPHF  CYCLE  13 - DIIS ACTIVE - HISTORY:    13 CYCLES
 CYCLE  13   ALPHA  819.875948  EPSILON    3.145843  DELTA   -6.5555E-04
 TTTTTTTTTTTTTTTTTTTTTTTTTTTTTT CP_SC       TELAPSE    45438.89 TCPU    44859.79

 *******************************************************************************

 ELECTRIC FIELD APPLIED ALONG CARTESIAN DIRECTION Z

 *******************************************************************************
 THE NUMBER OF SYMMETRY OPERATORS HAS BEEN REDUCED FROM  4 TO  2

 NEW GRID IN RECIPROCAL SPACE
 *******************************************************************************
 POINTS IN THE IBZ                  10 SHRINKING FACTORS               3  3  3
 *******************************************************************************
 *** K POINTS COORDINATES (OBLIQUE COORDINATES IN UNITS OF SHRINK FAC. )
   1-R(  0  0  0)   2-C(  1  0  0)   3-C(  2  0  1)   4-C(  1  1  0)
   5-C(  1  0  1)   6-C(  2  1  0)   7-C(  0  0  2)   8-C(  2  1  1)
   9-C(  2  1  2)  10-C(  2  2  1)

 GCALCO - MAX INDICES DIRECT LATTICE VECTOR    14    14    15
 NO.OF VECTORS CREATED 6999 STARS  487 RMAX   199.84368 BOHR
 TTTTTTTTTTTTTTTTTTTTTTTTTTTTTT gordsh1     TELAPSE    45438.90 TCPU    44859.80

 MATRIX SIZE: P(G) 1714156, F(G)  857924, P(G) IRR  432400, F(G) IRR  432400
 MAX G-VECTOR INDEX FOR 1- AND 2-ELECTRON INTEGRALS  59

 TTTTTTTTTTTTTTTTTTTTTTTTTTTTTT INPUT       TELAPSE    45438.92 TCPU    44859.82
 TTTTTTTTTTTTTTTTTTTTTTTTTTTTTT SYMM        TELAPSE    45438.92 TCPU    44859.82

 ***** NEW REFERENCE GEOMETRY *****
 TTTTTTTTTTTTTTTTTTTTTTTTTTTTTT INT_SCREEN  TELAPSE    45438.93 TCPU    44859.82
 INFORMATION **** EXCBUF **** EXCH. BIPO BUFFER: WORDS USED =           0

 DFT PARAMETERS

     ATOM       ELECTRONS   NET CHARGE   R(ANGSTROM)
   1   6  C       6.0000      0.0000     0.77000000
  25   7  N       7.0000      0.0000     0.74000000
  45   9  F       9.0000      0.0000     0.72000000
  61  30  ZN     30.0000      0.0000     1.37000000

 SIZE OF GRID=    1015456
 TTTTTTTTTTTTTTTTTTTTTTTTTTTTTT MAKE_GRID2  TELAPSE    45439.55 TCPU    44860.45
 BECKE WEIGHT FUNCTION
 RADSAFE =     2.00
 TOLERANCES - DENSITY:10**- 6; POTENTIAL:10**- 9; GRID WGT:10**-14

 RADIAL INTEGRATION  - INTERVALS (POINTS,UPPER LIMIT):            1( 75,  4.0*R)

 ANGULAR INTEGRATION - INTERVALS (ACCURACY LEVEL [N. POINTS] UPPER LIMIT):
  1(  4[  86]   0.2)  2(  8[ 194]   0.5)  3( 12[ 350]   0.9)  4( 16[ 974]   3.5)
  5( 12[ 350]9999.0)
 TTTTTTTTTTTTTTTTTTTTTTTTTTTTTT INT_CALC    TELAPSE    45439.58 TCPU    44860.48
 CYCLE   0   ALPHA  519.004986  EPSILON    2.358380  DELTA    5.1900E+02
 TTTTTTTTTTTTTTTTTTTTTTTTTTTTTT MOQGAD      TELAPSE    45544.37 TCPU    44964.71
 TTTTTTTTTTTTTTTTTTTTTTTTTTTTTT CP_MONMON   TELAPSE    45547.19 TCPU    44967.51
 DIIS TEST: 0.69281E+02 AT CPHF  CYCLE   1 - MIX    0 %
 CYCLE   1   ALPHA  248.124369  EPSILON    1.649410  DELTA   -2.7088E+02
 TTTTTTTTTTTTTTTTTTTTTTTTTTTTTT MOQGAD      TELAPSE    45654.65 TCPU    45073.94
 TTTTTTTTTTTTTTTTTTTTTTTTTTTTTT CP_MONMON   TELAPSE    45657.45 TCPU    45076.73
 DIIS TEST: 0.42581E+03 AT CPHF  CYCLE   2 - DIIS ACTIVE - HISTORY:     2 CYCLES
 CYCLE   2   ALPHA  380.542865  EPSILON    1.995986  DELTA    1.3242E+02
 TTTTTTTTTTTTTTTTTTTTTTTTTTTTTT MOQGAD      TELAPSE    45764.87 TCPU    45183.19
 TTTTTTTTTTTTTTTTTTTTTTTTTTTTTT CP_MONMON   TELAPSE    45767.67 TCPU    45185.98
 DIIS TEST: 0.16282E+02 AT CPHF  CYCLE   3 - DIIS ACTIVE - HISTORY:     3 CYCLES
 CYCLE   3   ALPHA  401.670751  EPSILON    2.051284  DELTA    2.1128E+01
 TTTTTTTTTTTTTTTTTTTTTTTTTTTTTT MOQGAD      TELAPSE    45875.04 TCPU    45292.33
 TTTTTTTTTTTTTTTTTTTTTTTTTTTTTT CP_MONMON   TELAPSE    45877.84 TCPU    45295.11
 DIIS TEST: 0.43378E+01 AT CPHF  CYCLE   4 - DIIS ACTIVE - HISTORY:     4 CYCLES
 CYCLE   4   ALPHA  403.311690  EPSILON    2.055579  DELTA    1.6409E+00
 TTTTTTTTTTTTTTTTTTTTTTTTTTTTTT MOQGAD      TELAPSE    45985.04 TCPU    45401.22
 TTTTTTTTTTTTTTTTTTTTTTTTTTTTTT CP_MONMON   TELAPSE    45987.85 TCPU    45404.01
 DIIS TEST: 0.85643E-01 AT CPHF  CYCLE   5 - DIIS ACTIVE - HISTORY:     5 CYCLES
 CYCLE   5   ALPHA  403.694704  EPSILON    2.056581  DELTA    3.8301E-01
 TTTTTTTTTTTTTTTTTTTTTTTTTTTTTT MOQGAD      TELAPSE    46095.23 TCPU    45510.34
 TTTTTTTTTTTTTTTTTTTTTTTTTTTTTT CP_MONMON   TELAPSE    46098.03 TCPU    45513.12
 DIIS TEST: 0.21712E-01 AT CPHF  CYCLE   6 - DIIS ACTIVE - HISTORY:     6 CYCLES
 CYCLE   6   ALPHA  403.778137  EPSILON    2.056800  DELTA    8.3433E-02
 TTTTTTTTTTTTTTTTTTTTTTTTTTTTTT MOQGAD      TELAPSE    46205.46 TCPU    45619.51
 TTTTTTTTTTTTTTTTTTTTTTTTTTTTTT CP_MONMON   TELAPSE    46208.25 TCPU    45622.29
 DIIS TEST: 0.25824E-01 AT CPHF  CYCLE   7 - DIIS ACTIVE - HISTORY:     7 CYCLES
 CYCLE   7   ALPHA  403.785760  EPSILON    2.056820  DELTA    7.6233E-03
 TTTTTTTTTTTTTTTTTTTTTTTTTTTTTT MOQGAD      TELAPSE    46315.53 TCPU    45728.52
 TTTTTTTTTTTTTTTTTTTTTTTTTTTTTT CP_MONMON   TELAPSE    46318.33 TCPU    45731.30
 DIIS TEST: 0.27047E-02 AT CPHF  CYCLE   8 - DIIS ACTIVE - HISTORY:     8 CYCLES
 CYCLE   8   ALPHA  403.786468  EPSILON    2.056821  DELTA    7.0747E-04
 TTTTTTTTTTTTTTTTTTTTTTTTTTTTTT CP_SC       TELAPSE    46327.73 TCPU    45740.10

 *******************************************************************************

 POLARIZABILITY (ALPHA), DIELECTRIC (EPSILON) AND FIRST-ORDER ELECTRIC
 SUSCEPTIBILITY (CHI(1)) TENSORS (INDEPENDENT COMPONENTS)

  FR.(eV) COMP.   ALPHA(Re,Im)           EPSILON(Re,Im)                CHI(1)
  1.165   XX     819.8759       0.0000       3.1458       0.0000       2.1458
  1.165   ZZ     403.7865       0.0000       2.0568       0.0000       1.0568

 DIELECTRIC TENSOR

 TENSOR IN PRINCIPAL AXES SYSTEM
 AA  3.145843E+00 BB  3.145843E+00 CC  2.056821E+00

 REFRACTIVE INDICES 
 AA  1.434162E+00 BB  1.773653E+00 CC  1.773653E+00

 OPTICALLY ANISOTROPIC - UNIAXIAL CRYSTAL

 BIREFRINGENCE =  0.3395 (NEGATIVE) - OBLATE OPTICAL ELLIPSOID

 EPSILON=N**2=1+CHI(1)=1+ALPHA*4*PI/V,   4*PI/V=   0.00262 BOHR**(-3)
 ALPHA IN BOHR**3; EPSILON AND CHI(1) ARE DIMENSIONLESS.
 *******************************************************************************


 GCALCO - MAX INDICES DIRECT LATTICE VECTOR    14    14    15
 NO.OF VECTORS CREATED 6999 STARS  487 RMAX   199.84368 BOHR

 CAPPA:IS1  3;IS2  3;IS3  3; K PTS MONK NET   6; SYMMOPS:K SPACE   8;G SPACE   4

 TTTTTTTTTTTTTTTTTTTTTTTTTTTTTT END         TELAPSE    46327.77 TCPU    45740.10
 EEEEEEEEEE TERMINATION  DATE 18 01 2024 TIME 04:31:46.8
NODE    0 CPU TIME =     45740.105
    TOTAL CPU TIME =   2931476.803
trying normal rsh (/usr/bin/rsh)
exec: No such file or directory
trying normal rsh (/usr/bin/rsh)
exec: No such file or directory
trying normal rsh (/usr/bin/rsh)
exec: No such file or directory
trying normal rsh (/usr/bin/rsh)
exec: No such file or directory
