Loading crystal17/1.0.2/intel/19.0
  Loading requirement: intel/19.0 ompi/4.0.1/intel/19.0
          64 PROCESSORS WORKING

         
 *******************************************************************************
 *                                                                             *
 *                               CRYSTAL17                                     *
 *                      public : 1.0.2 - March 1st, 2018                       *
 *                       HTTP://WWW.CRYSTAL.UNITO.IT                           *
 *                                                                             *
 *                              MAIN AUTHORS                                   *
 *                                                                             *
 *  R. DOVESI(1,11), V.R. SAUNDERS(2), C. ROETTI(1,11), R. ORLANDO(1,11),      *
 *  C.M. ZICOVICH-WILSON(1,3), F. PASCALE(4), B. CIVALLERI(1,11),              *
 *  K. DOLL(5), N.M. HARRISON(2,6), I.J. BUSH(7), Ph. D'ARCO(8),               *
 *  M. LLUNELL(9), M. CAUSA'(10), Y. NOEL(8), L. MASCHIO(1,11), A. ERBA(1,11)  *
 *  M. RE'RAT(14), S. CASASSA(1,11)                                            *
 *                                                                             *
 *        CONTRIBUTIONS TO THE CODE HAVE ALSO BEEN GIVEN BY                    *
 *                                                                             *
 *  M. FERRABONE(1,11), M. DE LA PIERRE(1,11), M. FERRERO(1,11),               *
 *  J. BAIMA(1,11), E. ALBANESE(1,11), M.F. PEINTINGER(12), R. BAST(13),       *
 *  B. KIRTMAN(15), V. LACIVITA(1,11), R. DEMICHELIS(1,16)                     *
 *  G. BRANDEBURG(17), S. SALUSTRO(1,11), G. SANSONE(1,11)                     *
 *  M.T. RUGGIERO(18)                                                          *
 *                                                                             *
 * (1) THEORETICAL CHEMISTRY GROUP - UNIVERSITA' DI TORINO - TORINO (ITALY)    *
 * (2) COMPUTATIONAL SCIENCE & ENGINEERING DEPARTMENT - STFC DARESBURY (UK)    *
 * (3) UNIVERSIDAD AUTONOMA DEL ESTADO DE MORELOS - CUERNAVACA (MEXICO)        *
 * (4) UNIVERSITE' DE LORRAINE - NANCY (FRANCE)                                *
 * (5) UNIVERSITAET STUTTGART- STUTTGART (GERMANY)                             *
 * (6) IMPERIAL COLLEGE - LONDON (UK)                                          *
 * (7) OXFORD E-RESEARCH CENTRE - OXFORD (UK)                                  *
 * (8) UPMC - SORBONNE UNIVERSITES - PARIS (FRANCE)                            *
 * (9) UNIVERSIDAD DE BARCELONA - BARCELONA (SPAIN)                            *
 *(10) UNIVERSITA' DI NAPOLI "FEDERICO II" - NAPOLI (ITALY)                    *
 *(11) NIS - NANOSTRUCTURED INTERFACES AND SURFACES - TORINO (ITALY)           *
 *(12) MPI FUER CHEMISCHE ENERGIEKONVERSION - MUELHEIM AN DER RUHR (GERMANY)   *
 *(13) UNIVERSITY OF TROMSO - TROMSO (NORWAY)                                  *
 *(14) UNIVERSITE' DE PAU ET DES PAYS DE L'ADOUR - PAU (FRANCE)                *
 *(15) UNIVERSITY OF CALIFORNIA SANTA BARBARA - SANTA BARBARA (USA)            *
 *(16) CURTIN UNIVERSITY - PERTH (AUSTRALIA)                                   *
 *(17) UNIVERSITY COLLEGE LONDON - LONDON (UK)                                 *
 *(18) CAMBRIDGE UNIVERSITY - CAMBRIDGE (UK)                                   *
 *                                                                             *
 *******************************************************************************
 EEEEEEEEEE STARTING  DATE 27 11 2023 TIME 03:25:43.7
 Z:\home\sanoj\Downloads\tmp_p\newconn.mol                                       

 CRYSTAL CALCULATION
 (INPUT ACCORDING TO THE INTERNATIONAL TABLES FOR X-RAY CRYSTALLOGRAPHY)
 CRYSTAL FAMILY                       :  TETRAGONAL  
 CRYSTAL CLASS  (GROTH - 1921)        :  TETRAGONAL DISPHENOIDAL              

 SPACE GROUP (NONCENTROSYMMETRIC)     :  I -4            

 LATTICE PARAMETERS  (ANGSTROMS AND DEGREES) - CONVENTIONAL CELL
        A           B           C        ALPHA        BETA       GAMMA
    10.48812    10.48812    12.62686    90.00000    90.00000    90.00000


 NUMBER OF IRREDUCIBLE ATOMS IN THE CONVENTIONAL CELL:   17

 INPUT COORDINATES

 ATOM AT. N.              COORDINATES
   1   1     4.769800000000E-01  8.239100000000E-01  4.106700000000E-01
   2   1     1.268000000000E-01  5.193300000000E-01  3.538400000000E-01
   3   1     3.591100000000E-01  4.508600000000E-01  3.721100000000E-01
   4   6     2.732300000000E-01  8.094100000000E-01  3.826100000000E-01
   5   6     2.554100000000E-01 -5.285000000000E-02  3.786600000000E-01
   6   6     1.764200000000E-01  7.189600000000E-01  3.681800000000E-01
   7   6     3.303200000000E-01  5.511100000000E-01  3.758100000000E-01
   8   6     3.970800000000E-01  7.594200000000E-01  3.955800000000E-01
   9   6     7.971400000000E-01  4.109300000000E-01  3.654600000000E-01
  10   7     3.457300000000E-01  2.629000000000E-02  3.387800000000E-01
  11   7     3.022100000000E-01  1.492000000000E-01  3.506900000000E-01
  12   7     1.570000000000E-01  1.933000000000E-02  4.133700000000E-01
  13   7     1.889100000000E-01  1.450800000000E-01  3.951300000000E-01
  14   7     4.259600000000E-01  6.353000000000E-01  3.908700000000E-01
  15   9     5.521000000000E-02  7.590800000000E-01  3.544000000000E-01
  16  30     0.000000000000E+00  5.000000000000E-01  7.500000000000E-01
  17  30     0.000000000000E+00  0.000000000000E+00  5.000000000000E-01

 *******************************************************************************

 << INFORMATION >>: FROM NOW ON, ALL COORDINATES REFER TO THE PRIMITIVE CELL

 *******************************************************************************

 LATTICE PARAMETERS  (ANGSTROMS AND DEGREES) - PRIMITIVE CELL
       A          B          C        ALPHA      BETA     GAMMA        VOLUME
    9.73960    9.73960    9.73960   114.84676 114.84676  99.18452    694.481581

 COORDINATES OF THE EQUIVALENT ATOMS (FRACTIONAL UNITS)

 N. ATOM EQUIV AT. N.          X                  Y                  Z

   1   1   1    1 H     2.34580000000E-01 -1.12350000000E-01  3.00890000000E-01
   2   1   2    1 H    -4.13240000000E-01 -6.63100000000E-02 -3.00890000000E-01
   3   1   3    1 H     1.12350000000E-01  4.13240000000E-01  3.46930000000E-01
   4   1   4    1 H     6.63100000000E-02 -2.34580000000E-01 -3.46930000000E-01

   5   2   1    1 H    -1.26830000000E-01  4.80640000000E-01 -3.53870000000E-01
   6   2   2    1 H    -1.65490000000E-01  2.27040000000E-01  3.53870000000E-01
   7   2   3    1 H    -4.80640000000E-01  1.65490000000E-01  3.92530000000E-01
   8   2   4    1 H    -2.27040000000E-01  1.26830000000E-01 -3.92530000000E-01

   9   3   1    1 H    -1.77030000000E-01 -2.68780000000E-01 -1.90030000000E-01
  10   3   2    1 H    -7.87500000000E-02  1.30000000000E-02  1.90030000000E-01
  11   3   3    1 H     2.68780000000E-01  7.87500000000E-02  9.17500000000E-02
  12   3   4    1 H    -1.30000000000E-02  1.77030000000E-01 -9.17500000000E-02

  13   4   1    6 C     1.92020000000E-01 -3.44160000000E-01  8.26400000000E-02
  14   4   2    6 C    -4.26800000000E-01  1.09380000000E-01 -8.26400000000E-02
  15   4   3    6 C     3.44160000000E-01  4.26800000000E-01 -4.63820000000E-01
  16   4   4    6 C    -1.09380000000E-01 -1.92020000000E-01  4.63820000000E-01

  17   5   1    6 C     3.25810000000E-01 -3.65930000000E-01  2.02560000000E-01
  18   5   2    6 C     4.31510000000E-01  1.23250000000E-01 -2.02560000000E-01
  19   5   3    6 C     3.65930000000E-01 -4.31510000000E-01 -3.08260000000E-01
  20   5   4    6 C    -1.23250000000E-01 -3.25810000000E-01  3.08260000000E-01

  21   6   1    6 C     8.71400000000E-02 -4.55400000000E-01 -1.04620000000E-01
  22   6   2    6 C    -3.50780000000E-01  1.91760000000E-01  1.04620000000E-01
  23   6   3    6 C     4.55400000000E-01  3.50780000000E-01 -4.57460000000E-01
  24   6   4    6 C    -1.91760000000E-01 -8.71400000000E-02  4.57460000000E-01

  25   7   1    6 C    -7.30800000000E-02 -2.93870000000E-01 -1.18570000000E-01
  26   7   2    6 C    -1.75300000000E-01  4.54900000000E-02  1.18570000000E-01
  27   7   3    6 C     2.93870000000E-01  1.75300000000E-01  2.20790000000E-01
  28   7   4    6 C    -4.54900000000E-02  7.30800000000E-02 -2.20790000000E-01

  29   8   1    6 C     1.55000000000E-01 -2.07340000000E-01  1.56500000000E-01
  30   8   2    6 C    -3.63840000000E-01 -1.50000000000E-03 -1.56500000000E-01
  31   8   3    6 C     2.07340000000E-01  3.63840000000E-01  3.62340000000E-01
  32   8   4    6 C     1.50000000000E-03 -1.55000000000E-01 -3.62340000000E-01

  33   9   1    6 C    -2.23610000000E-01  1.62600000000E-01  2.08070000000E-01
  34   9   2    6 C    -4.54700000000E-02 -4.31680000000E-01 -2.08070000000E-01
  35   9   3    6 C    -1.62600000000E-01  4.54700000000E-02 -3.86210000000E-01
  36   9   4    6 C     4.31680000000E-01  2.23610000000E-01  3.86210000000E-01

  37  10   1    7 N     3.65070000000E-01 -3.15490000000E-01  3.72020000000E-01
  38  10   2    7 N     3.12490000000E-01 -6.95000000000E-03 -3.72020000000E-01
  39  10   3    7 N     3.15490000000E-01 -3.12490000000E-01 -3.19440000000E-01
  40  10   4    7 N     6.95000000000E-03 -3.65070000000E-01  3.19440000000E-01

  41  11   1    7 N     4.99890000000E-01 -3.47100000000E-01  4.51410000000E-01
  42  11   2    7 N     2.01490000000E-01  4.84800000000E-02 -4.51410000000E-01
  43  11   3    7 N     3.47100000000E-01 -2.01490000000E-01 -1.53010000000E-01
  44  11   4    7 N    -4.84800000000E-02 -4.99890000000E-01  1.53010000000E-01

  45  12   1    7 N     4.32700000000E-01 -4.29630000000E-01  1.76330000000E-01
  46  12   2    7 N     3.94040000000E-01  2.56370000000E-01 -1.76330000000E-01
  47  12   3    7 N     4.29630000000E-01 -3.94040000000E-01 -1.37670000000E-01
  48  12   4    7 N    -2.56370000000E-01 -4.32700000000E-01  1.37670000000E-01

  49  13   1    7 N    -4.59790000000E-01 -4.15960000000E-01  3.33990000000E-01
  50  13   2    7 N     2.50050000000E-01  2.06220000000E-01 -3.33990000000E-01
  51  13   3    7 N     4.15960000000E-01 -2.50050000000E-01 -4.38300000000E-02
  52  13   4    7 N    -2.06220000000E-01  4.59790000000E-01  4.38300000000E-02

  53  14   1    7 N     2.61700000000E-02 -1.83170000000E-01  6.12600000000E-02
  54  14   2    7 N    -2.44430000000E-01 -3.50900000000E-02 -6.12600000000E-02
  55  14   3    7 N     1.83170000000E-01  2.44430000000E-01  2.09340000000E-01
  56  14   4    7 N     3.50900000000E-02 -2.61700000000E-02 -2.09340000000E-01

  57  15   1    9 F     1.13480000000E-01  4.09610000000E-01 -1.85710000000E-01
  58  15   2    9 F    -4.04680000000E-01  2.99190000000E-01  1.85710000000E-01
  59  15   3    9 F    -4.09610000000E-01  4.04680000000E-01 -2.96130000000E-01
  60  15   4    9 F    -2.99190000000E-01 -1.13480000000E-01  2.96130000000E-01

  61  16   1   30 ZN    2.50000000000E-01 -2.50000000000E-01 -5.00000000000E-01

  62  17   1   30 ZN   -5.00000000000E-01 -5.00000000000E-01  0.00000000000E+00

 NUMBER OF SYMMETRY OPERATORS         :    4
 *******************************************************************************
 * GEOMETRY EDITING - INPUT COORDINATES ARE GIVEN IN ANGSTROM         
 *******************************************************************************

 GEOMETRY NOW FULLY CONSISTENT WITH THE GROUP

 GCALCO - MAX INDICES DIRECT LATTICE VECTOR    14    14    16
 NO.OF VECTORS CREATED 6999 STARS  485 RMAX   199.41745 BOHR

 GEOMETRY FOR WAVE FUNCTION - DIMENSIONALITY OF THE SYSTEM    3
 (NON PERIODIC DIRECTION: LATTICE PARAMETER FORMALLY SET TO 500)
 *******************************************************************************
 LATTICE PARAMETERS (ANGSTROMS AND DEGREES) - BOHR = 0.5291772083 ANGSTROM
 PRIMITIVE CELL - CENTRING CODE 6/0 VOLUME=   694.481581 - DENSITY  1.875 g/cm^3
         A              B              C           ALPHA      BETA       GAMMA 
     9.73959600     9.73959600     9.73959600   114.846760 114.846760  99.184516
 *******************************************************************************
 ATOMS IN THE ASYMMETRIC UNIT   17 - ATOMS IN THE UNIT CELL:   62
     ATOM                 X/A                 Y/B                 Z/C    
 *******************************************************************************
      1 T   1 H     2.345800000000E-01 -1.123500000000E-01  3.008900000000E-01
      2 F   1 H    -4.132400000000E-01 -6.631000000000E-02 -3.008900000000E-01
      3 F   1 H     1.123500000000E-01  4.132400000000E-01  3.469300000000E-01
      4 F   1 H     6.631000000000E-02 -2.345800000000E-01 -3.469300000000E-01
      5 T   1 H    -1.268300000000E-01  4.806400000000E-01 -3.538700000000E-01
      6 F   1 H    -1.654900000000E-01  2.270400000000E-01  3.538700000000E-01
      7 F   1 H    -4.806400000000E-01  1.654900000000E-01  3.925300000000E-01
      8 F   1 H    -2.270400000000E-01  1.268300000000E-01 -3.925300000000E-01
      9 T   1 H    -1.770300000000E-01 -2.687800000000E-01 -1.900300000000E-01
     10 F   1 H    -7.875000000000E-02  1.300000000000E-02  1.900300000000E-01
     11 F   1 H     2.687800000000E-01  7.875000000000E-02  9.175000000000E-02
     12 F   1 H    -1.300000000000E-02  1.770300000000E-01 -9.175000000000E-02
     13 T   6 C     1.920200000000E-01 -3.441600000000E-01  8.264000000000E-02
     14 F   6 C    -4.268000000000E-01  1.093800000000E-01 -8.264000000000E-02
     15 F   6 C     3.441600000000E-01  4.268000000000E-01 -4.638200000000E-01
     16 F   6 C    -1.093800000000E-01 -1.920200000000E-01  4.638200000000E-01
     17 T   6 C     3.258100000000E-01 -3.659300000000E-01  2.025600000000E-01
     18 F   6 C     4.315100000000E-01  1.232500000000E-01 -2.025600000000E-01
     19 F   6 C     3.659300000000E-01 -4.315100000000E-01 -3.082600000000E-01
     20 F   6 C    -1.232500000000E-01 -3.258100000000E-01  3.082600000000E-01
     21 T   6 C     8.714000000000E-02 -4.554000000000E-01 -1.046200000000E-01
     22 F   6 C    -3.507800000000E-01  1.917600000000E-01  1.046200000000E-01
     23 F   6 C     4.554000000000E-01  3.507800000000E-01 -4.574600000000E-01
     24 F   6 C    -1.917600000000E-01 -8.714000000000E-02  4.574600000000E-01
     25 T   6 C    -7.308000000000E-02 -2.938700000000E-01 -1.185700000000E-01
     26 F   6 C    -1.753000000000E-01  4.549000000000E-02  1.185700000000E-01
     27 F   6 C     2.938700000000E-01  1.753000000000E-01  2.207900000000E-01
     28 F   6 C    -4.549000000000E-02  7.308000000000E-02 -2.207900000000E-01
     29 T   6 C     1.550000000000E-01 -2.073400000000E-01  1.565000000000E-01
     30 F   6 C    -3.638400000000E-01 -1.500000000000E-03 -1.565000000000E-01
     31 F   6 C     2.073400000000E-01  3.638400000000E-01  3.623400000000E-01
     32 F   6 C     1.500000000000E-03 -1.550000000000E-01 -3.623400000000E-01
     33 T   6 C    -2.236100000000E-01  1.626000000000E-01  2.080700000000E-01
     34 F   6 C    -4.547000000000E-02 -4.316800000000E-01 -2.080700000000E-01
     35 F   6 C    -1.626000000000E-01  4.547000000000E-02 -3.862100000000E-01
     36 F   6 C     4.316800000000E-01  2.236100000000E-01  3.862100000000E-01
     37 T   7 N     3.650700000000E-01 -3.154900000000E-01  3.720200000000E-01
     38 F   7 N     3.124900000000E-01 -6.950000000000E-03 -3.720200000000E-01
     39 F   7 N     3.154900000000E-01 -3.124900000000E-01 -3.194400000000E-01
     40 F   7 N     6.950000000000E-03 -3.650700000000E-01  3.194400000000E-01
     41 T   7 N     4.998900000000E-01 -3.471000000000E-01  4.514100000000E-01
     42 F   7 N     2.014900000000E-01  4.848000000000E-02 -4.514100000000E-01
     43 F   7 N     3.471000000000E-01 -2.014900000000E-01 -1.530100000000E-01
     44 F   7 N    -4.848000000000E-02 -4.998900000000E-01  1.530100000000E-01
     45 T   7 N     4.327000000000E-01 -4.296300000000E-01  1.763300000000E-01
     46 F   7 N     3.940400000000E-01  2.563700000000E-01 -1.763300000000E-01
     47 F   7 N     4.296300000000E-01 -3.940400000000E-01 -1.376700000000E-01
     48 F   7 N    -2.563700000000E-01 -4.327000000000E-01  1.376700000000E-01
     49 T   7 N    -4.597900000000E-01 -4.159600000000E-01  3.339900000000E-01
     50 F   7 N     2.500500000000E-01  2.062200000000E-01 -3.339900000000E-01
     51 F   7 N     4.159600000000E-01 -2.500500000000E-01 -4.383000000000E-02
     52 F   7 N    -2.062200000000E-01  4.597900000000E-01  4.383000000000E-02
     53 T   7 N     2.617000000000E-02 -1.831700000000E-01  6.126000000000E-02
     54 F   7 N    -2.444300000000E-01 -3.509000000000E-02 -6.126000000000E-02
     55 F   7 N     1.831700000000E-01  2.444300000000E-01  2.093400000000E-01
     56 F   7 N     3.509000000000E-02 -2.617000000000E-02 -2.093400000000E-01
     57 T   9 F     1.134800000000E-01  4.096100000000E-01 -1.857100000000E-01
     58 F   9 F    -4.046800000000E-01  2.991900000000E-01  1.857100000000E-01
     59 F   9 F    -4.096100000000E-01  4.046800000000E-01 -2.961300000000E-01
     60 F   9 F    -2.991900000000E-01 -1.134800000000E-01  2.961300000000E-01
     61 T  30 ZN    2.500000000000E-01 -2.500000000000E-01 -5.000000000000E-01
     62 T  30 ZN   -5.000000000000E-01 -5.000000000000E-01  0.000000000000E+00

 TRANSFORMATION MATRIX PRIMITIVE-CRYSTALLOGRAPHIC CELL
  0.0000  1.0000  1.0000  1.0000  0.0000  1.0000  1.0000  1.0000  0.0000

 *******************************************************************************
 CRYSTALLOGRAPHIC CELL (VOLUME=       1388.96316300)
         A              B              C           ALPHA      BETA       GAMMA 
    10.48812234    10.48812234    12.62685632    90.000000  90.000000  90.000000

 COORDINATES IN THE CRYSTALLOGRAPHIC CELL
     ATOM                 X/A                 Y/B                 Z/C    
 *******************************************************************************
      1 T   1 H    -2.302000000000E-02  3.239100000000E-01 -8.933000000000E-02
      2 F   1 H     2.302000000000E-02 -3.239100000000E-01 -8.933000000000E-02
      3 F   1 H     3.239100000000E-01  2.302000000000E-02  8.933000000000E-02
      4 F   1 H    -3.239100000000E-01 -2.302000000000E-02  8.933000000000E-02
      5 T   1 H    -3.732000000000E-01  1.933000000000E-02 -1.461600000000E-01
      6 F   1 H     3.732000000000E-01 -1.933000000000E-02 -1.461600000000E-01
      7 F   1 H     1.933000000000E-02  3.732000000000E-01  1.461600000000E-01
      8 F   1 H    -1.933000000000E-02 -3.732000000000E-01  1.461600000000E-01
      9 T   1 H    -1.408900000000E-01 -4.914000000000E-02 -1.278900000000E-01
     10 F   1 H     1.408900000000E-01  4.914000000000E-02 -1.278900000000E-01
     11 F   1 H    -4.914000000000E-02  1.408900000000E-01  1.278900000000E-01
     12 F   1 H     4.914000000000E-02 -1.408900000000E-01  1.278900000000E-01
     13 T   6 C    -2.267700000000E-01  3.094100000000E-01 -1.173900000000E-01
     14 F   6 C     2.267700000000E-01 -3.094100000000E-01 -1.173900000000E-01
     15 F   6 C     3.094100000000E-01  2.267700000000E-01  1.173900000000E-01
     16 F   6 C    -3.094100000000E-01 -2.267700000000E-01  1.173900000000E-01
     17 T   6 C     2.554100000000E-01 -5.285000000000E-02  3.786600000000E-01
     18 F   6 C    -2.554100000000E-01  5.285000000000E-02  3.786600000000E-01
     19 F   6 C    -5.285000000000E-02 -2.554100000000E-01 -3.786600000000E-01
     20 F   6 C     5.285000000000E-02  2.554100000000E-01 -3.786600000000E-01
     21 T   6 C    -3.235800000000E-01  2.189600000000E-01 -1.318200000000E-01
     22 F   6 C     3.235800000000E-01 -2.189600000000E-01 -1.318200000000E-01
     23 F   6 C     2.189600000000E-01  3.235800000000E-01  1.318200000000E-01
     24 F   6 C    -2.189600000000E-01 -3.235800000000E-01  1.318200000000E-01
     25 T   6 C    -1.696800000000E-01  5.111000000000E-02 -1.241900000000E-01
     26 F   6 C     1.696800000000E-01 -5.111000000000E-02 -1.241900000000E-01
     27 F   6 C     5.111000000000E-02  1.696800000000E-01  1.241900000000E-01
     28 F   6 C    -5.111000000000E-02 -1.696800000000E-01  1.241900000000E-01
     29 T   6 C    -1.029200000000E-01  2.594200000000E-01 -1.044200000000E-01
     30 F   6 C     1.029200000000E-01 -2.594200000000E-01 -1.044200000000E-01
     31 F   6 C     2.594200000000E-01  1.029200000000E-01  1.044200000000E-01
     32 F   6 C    -2.594200000000E-01 -1.029200000000E-01  1.044200000000E-01
     33 T   6 C     2.971400000000E-01 -8.907000000000E-02 -1.345400000000E-01
     34 F   6 C    -2.971400000000E-01  8.907000000000E-02 -1.345400000000E-01
     35 F   6 C    -8.907000000000E-02 -2.971400000000E-01  1.345400000000E-01
     36 F   6 C     8.907000000000E-02  2.971400000000E-01  1.345400000000E-01
     37 T   7 N    -1.542700000000E-01 -4.737100000000E-01 -1.612200000000E-01
     38 F   7 N     1.542700000000E-01  4.737100000000E-01 -1.612200000000E-01
     39 F   7 N    -4.737100000000E-01  1.542700000000E-01  1.612200000000E-01
     40 F   7 N     4.737100000000E-01 -1.542700000000E-01  1.612200000000E-01
     41 T   7 N    -1.977900000000E-01 -3.508000000000E-01 -1.493100000000E-01
     42 F   7 N     1.977900000000E-01  3.508000000000E-01 -1.493100000000E-01
     43 F   7 N    -3.508000000000E-01  1.977900000000E-01  1.493100000000E-01
     44 F   7 N     3.508000000000E-01 -1.977900000000E-01  1.493100000000E-01
     45 T   7 N     1.570000000000E-01  1.933000000000E-02  4.133700000000E-01
     46 F   7 N    -1.570000000000E-01 -1.933000000000E-02  4.133700000000E-01
     47 F   7 N     1.933000000000E-02 -1.570000000000E-01 -4.133700000000E-01
     48 F   7 N    -1.933000000000E-02  1.570000000000E-01 -4.133700000000E-01
     49 T   7 N    -3.110900000000E-01 -3.549200000000E-01 -1.048700000000E-01
     50 F   7 N     3.110900000000E-01  3.549200000000E-01 -1.048700000000E-01
     51 F   7 N    -3.549200000000E-01  3.110900000000E-01  1.048700000000E-01
     52 F   7 N     3.549200000000E-01 -3.110900000000E-01  1.048700000000E-01
     53 T   7 N    -7.404000000000E-02  1.353000000000E-01 -1.091300000000E-01
     54 F   7 N     7.404000000000E-02 -1.353000000000E-01 -1.091300000000E-01
     55 F   7 N     1.353000000000E-01  7.404000000000E-02  1.091300000000E-01
     56 F   7 N    -1.353000000000E-01 -7.404000000000E-02  1.091300000000E-01
     57 T   9 F     5.521000000000E-02 -2.409200000000E-01  3.544000000000E-01
     58 F   9 F    -5.521000000000E-02  2.409200000000E-01  3.544000000000E-01
     59 F   9 F    -2.409200000000E-01 -5.521000000000E-02 -3.544000000000E-01
     60 F   9 F     2.409200000000E-01  5.521000000000E-02 -3.544000000000E-01
     61 T  30 ZN   -5.000000000000E-01 -4.481295710786E-17  2.500000000000E-01
     62 T  30 ZN    0.000000000000E+00  0.000000000000E+00 -5.000000000000E-01

 T = ATOM BELONGING TO THE ASYMMETRIC UNIT

 ****    4 SYMMOPS - TRANSLATORS IN FRACTIONAL UNITS
 **** MATRICES AND TRANSLATORS IN THE CRYSTALLOGRAPHIC REFERENCE FRAME
   V INV                    ROTATION MATRICES                   TRANSLATORS
   1   1  1.00  0.00  0.00  0.00  1.00  0.00  0.00  0.00  1.00  0.00  0.00  0.00
   2   2  0.00  1.00 -1.00  1.00 -0.00 -1.00  0.00 -0.00 -1.00  0.00  0.00  0.00
   3   4  0.00 -1.00 -0.00 -0.00 -1.00  1.00  1.00 -1.00 -0.00  0.00  0.00  0.00
   4   3 -1.00  0.00  1.00 -1.00 -0.00  0.00 -1.00  1.00  0.00  0.00  0.00  0.00

 DIRECT LATTICE VECTORS CARTESIAN COMPONENTS (ANGSTROM)
          X                    Y                    Z
  -0.524406117050E+01   0.524406117050E+01   0.631342815865E+01
   0.524406117050E+01  -0.524406117050E+01   0.631342815865E+01
   0.524406117050E+01   0.524406117050E+01  -0.631342815865E+01


 CARTESIAN COORDINATES - PRIMITIVE CELL
 *******************************************************************************
 *      ATOM          X(ANGSTROM)         Y(ANGSTROM)         Z(ANGSTROM)
 *******************************************************************************
    1     1 H    -2.414365762898E-01  3.397207707473E+00 -1.127957074824E+00
    2     1 H     2.414365762898E-01 -3.397207707473E+00 -1.127957074824E+00
    3     1 H     3.397207707473E+00  2.414365762898E-01  1.127957074824E+00
    4     1 H    -3.397207707473E+00 -2.414365762898E-01  1.127957074824E+00
    5     1 H    -3.914167257661E+00  2.027354048515E-01 -1.845541319337E+00
    6     1 H     3.914167257661E+00 -2.027354048515E-01 -1.845541319337E+00
    7     1 H     2.027354048515E-01  3.914167257661E+00  1.845541319337E+00
    8     1 H    -2.027354048515E-01 -3.914167257661E+00  1.845541319337E+00
    9     1 H    -1.477671556623E+00 -5.153863318367E-01 -1.614848654419E+00
   10     1 H     1.477671556623E+00  5.153863318367E-01 -1.614848654419E+00
   11     1 H    -5.153863318367E-01  1.477671556623E+00  1.614848654419E+00
   12     1 H     5.153863318367E-01 -1.477671556623E+00  1.614848654419E+00
   13     6 C    -2.378391503269E+00  3.245129933529E+00 -1.482266663088E+00
   14     6 C     2.378391503269E+00 -3.245129933529E+00 -1.482266663088E+00
   15     6 C     3.245129933529E+00  2.378391503269E+00  1.482266663088E+00
   16     6 C    -3.245129933529E+00 -2.378391503269E+00  1.482266663088E+00
   17     6 C     2.678771327115E+00 -5.542972657219E-01  4.781285413109E+00
   18     6 C    -2.678771327115E+00  5.542972657218E-01  4.781285413109E+00
   19     6 C    -5.542972657219E-01 -2.678771327115E+00 -4.781285413109E+00
   20     6 C     5.542972657218E-01  2.678771327115E+00 -4.781285413109E+00
   21     6 C    -3.393746627101E+00  2.296479267785E+00 -1.664472199746E+00
   22     6 C     3.393746627101E+00 -2.296479267785E+00 -1.664472199746E+00
   23     6 C     2.296479267785E+00  3.393746627101E+00  1.664472199746E+00
   24     6 C    -2.296479267785E+00 -3.393746627101E+00  1.664472199746E+00
   25     6 C    -1.779624598821E+00  5.360479328485E-01 -1.568129286045E+00
   26     6 C     1.779624598821E+00 -5.360479328485E-01 -1.568129286045E+00
   27     6 C     5.360479328485E-01  1.779624598821E+00  1.568129286045E+00
   28     6 C    -5.360479328485E-01 -1.779624598821E+00  1.568129286045E+00
   29     6 C    -1.079437551336E+00  2.720828697702E+00 -1.318496336652E+00
   30     6 C     1.079437551336E+00 -2.720828697702E+00 -1.318496336652E+00
   31     6 C     2.720828697702E+00  1.079437551336E+00  1.318496336652E+00
   32     6 C    -2.720828697702E+00 -1.079437551336E+00  1.318496336652E+00
   33     6 C     3.116440672405E+00 -9.341770569129E-01 -1.698817248930E+00
   34     6 C    -3.116440672405E+00  9.341770569129E-01 -1.698817248930E+00
   35     6 C    -9.341770569129E-01 -3.116440672405E+00  1.698817248930E+00
   36     6 C     9.341770569129E-01  3.116440672405E+00  1.698817248930E+00
   37     7 N    -1.618002633546E+00 -4.968328434155E+00 -2.035701775475E+00
   38     7 N     1.618002633546E+00  4.968328434155E+00 -2.035701775475E+00
   39     7 N    -4.968328434155E+00  1.618002633546E+00  2.035701775475E+00
   40     7 N     4.968328434155E+00 -1.618002633546E+00  2.035701775475E+00
   41     7 N    -2.074445717826E+00 -3.679233317223E+00 -1.885315916736E+00
   42     7 N     2.074445717826E+00  3.679233317223E+00 -1.885315916736E+00
   43     7 N    -3.679233317223E+00  2.074445717826E+00  1.885315916736E+00
   44     7 N     3.679233317223E+00 -2.074445717826E+00  1.885315916736E+00
   45     7 N     1.646635207537E+00  2.027354048515E-01  5.219563595882E+00
   46     7 N    -1.646635207537E+00 -2.027354048515E-01  5.219563595882E+00
   47     7 N     2.027354048515E-01 -1.646635207537E+00 -5.219563595882E+00
   48     7 N    -2.027354048515E-01  1.646635207537E+00 -5.219563595882E+00
   49     7 N    -3.262749979062E+00 -3.722444381268E+00 -1.324178421995E+00
   50     7 N     3.262749979062E+00  3.722444381268E+00 -1.324178421995E+00
   51     7 N    -3.722444381268E+00  3.262749979062E+00  1.324178421995E+00
   52     7 N     3.722444381268E+00 -3.262749979062E+00  1.324178421995E+00
   53     7 N    -7.765405781276E-01  1.419042952737E+00 -1.377968829907E+00
   54     7 N     7.765405781276E-01 -1.419042952737E+00 -1.377968829907E+00
   55     7 N     1.419042952737E+00  7.765405781276E-01  1.377968829907E+00
   56     7 N    -1.419042952737E+00 -7.765405781276E-01  1.377968829907E+00
   57     9 F     5.790492344466E-01 -2.526798434394E+00  4.474957878851E+00
   58     9 F    -5.790492344466E-01  2.526798434394E+00  4.474957878851E+00
   59     9 F    -2.526798434394E+00 -5.790492344466E-01 -4.474957878851E+00
   60     9 F     2.526798434394E+00  5.790492344466E-01 -4.474957878851E+00
   61    30 ZN    5.244061170500E+00 -4.700037766092E-16 -9.470142237975E+00
   62    30 ZN    0.000000000000E+00  0.000000000000E+00  6.313428158650E+00

 *******************************************************************************
 STARTING BASIS SET HANDLING 
 *******************************************************************************

 Loading internal basis set: POB-DZVPP           

 Please cite in your publication:
 Peintinger, M. F., Oliveira, D. V. and Bredow, T. (2013), Generally applicable 
 solid-state Gaussian basis sets, in preparation                                
                                                                                
                    

 *******************************************************************************
 LOCAL ATOMIC FUNCTIONS BASIS SET
 *******************************************************************************
   ATOM   X(AU)   Y(AU)   Z(AU)  N. TYPE  EXPONENT  S COEF   P COEF   D/F/G COEF
 *******************************************************************************
   1 H   -0.456   6.420  -2.132
                                  1 S  
                                         2.263E+01 1.441E-02 0.000E+00 0.000E+00
                                         3.236E+00 1.072E-01 0.000E+00 0.000E+00
                                         7.304E-01 3.846E-01 0.000E+00 0.000E+00
                                  2 S  
                                         1.417E-01 1.000E+00 0.000E+00 0.000E+00
                           3-     5 P  
                                         3.944E-01 0.000E+00 1.000E+00 0.000E+00
                           6-     8 P  
                                         1.006E-01 0.000E+00 1.000E+00 0.000E+00
   2 H    0.456  -6.420  -2.132
   3 H    6.420   0.456   2.132
   4 H   -6.420  -0.456   2.132
   5 H   -7.397   0.383  -3.488
   6 H    7.397  -0.383  -3.488
   7 H    0.383   7.397   3.488
   8 H   -0.383  -7.397   3.488
   9 H   -2.792  -0.974  -3.052
  10 H    2.792   0.974  -3.052
  11 H   -0.974   2.792   3.052
  12 H    0.974  -2.792   3.052
  13 C   -4.495   6.132  -2.801
                                 97 S  
                                         1.238E+03 5.457E-03 0.000E+00 0.000E+00
                                         1.863E+02 4.064E-02 0.000E+00 0.000E+00
                                         4.225E+01 1.803E-01 0.000E+00 0.000E+00
                                         1.168E+01 4.632E-01 0.000E+00 0.000E+00
                                         3.593E+00 4.409E-01 0.000E+00 0.000E+00
                                 98 S  
                                         5.281E+00 1.000E+00 0.000E+00 0.000E+00
                                 99 S  
                                         4.447E-01 1.000E+00 0.000E+00 0.000E+00
                         100-   102 P  
                                         9.468E+00 0.000E+00 3.839E-02 0.000E+00
                                         2.010E+00 0.000E+00 2.112E-01 0.000E+00
                                         5.477E-01 0.000E+00 5.133E-01 0.000E+00
                         103-   105 P  
                                         1.604E-01 0.000E+00 1.000E+00 0.000E+00
                         106-   110 D  
                                         6.070E-01 0.000E+00 0.000E+00 1.000E+00
                         111-   115 D  
                                         2.939E-01 0.000E+00 0.000E+00 1.000E+00
  14 C    4.495  -6.132  -2.801
  15 C    6.132   4.495   2.801
  16 C   -6.132  -4.495   2.801
  17 C    5.062  -1.047   9.035
  18 C   -5.062   1.047   9.035
  19 C   -1.047  -5.062  -9.035
  20 C    1.047   5.062  -9.035
  21 C   -6.413   4.340  -3.145
  22 C    6.413  -4.340  -3.145
  23 C    4.340   6.413   3.145
  24 C   -4.340  -6.413   3.145
  25 C   -3.363   1.013  -2.963
  26 C    3.363  -1.013  -2.963
  27 C    1.013   3.363   2.963
  28 C   -1.013  -3.363   2.963
  29 C   -2.040   5.142  -2.492
  30 C    2.040  -5.142  -2.492
  31 C    5.142   2.040   2.492
  32 C   -5.142  -2.040   2.492
  33 C    5.889  -1.765  -3.210
  34 C   -5.889   1.765  -3.210
  35 C   -1.765  -5.889   3.210
  36 C    1.765   5.889   3.210
  37 N   -3.058  -9.389  -3.847
                                553 S  
                                         1.713E+03-5.393E-03 0.000E+00 0.000E+00
                                         2.576E+02-4.022E-02 0.000E+00 0.000E+00
                                         5.846E+01-1.793E-01 0.000E+00 0.000E+00
                                         1.620E+01-4.638E-01 0.000E+00 0.000E+00
                                         5.005E+00-4.417E-01 0.000E+00 0.000E+00
                                554 S  
                                         6.217E-01 1.000E+00 0.000E+00 0.000E+00
                                555 S  
                                         2.921E-01 1.000E+00 0.000E+00 0.000E+00
                         556-   558 P  
                                         1.357E+01 0.000E+00-4.007E-02 0.000E+00
                                         2.926E+00 0.000E+00-2.181E-01 0.000E+00
                                         7.993E-01 0.000E+00-5.129E-01 0.000E+00
                         559-   561 P  
                                         2.244E-01 0.000E+00 1.000E+00 0.000E+00
                         562-   566 D  
                                         3.118E-01 0.000E+00 0.000E+00 1.000E+00
  38 N    3.058   9.389  -3.847
  39 N   -9.389   3.058   3.847
  40 N    9.389  -3.058   3.847
  41 N   -3.920  -6.953  -3.563
  42 N    3.920   6.953  -3.563
  43 N   -6.953   3.920   3.563
  44 N    6.953  -3.920   3.563
  45 N    3.112   0.383   9.864
  46 N   -3.112  -0.383   9.864
  47 N    0.383  -3.112  -9.864
  48 N   -0.383   3.112  -9.864
  49 N   -6.166  -7.034  -2.502
  50 N    6.166   7.034  -2.502
  51 N   -7.034   6.166   2.502
  52 N    7.034  -6.166   2.502
  53 N   -1.467   2.682  -2.604
  54 N    1.467  -2.682  -2.604
  55 N    2.682   1.467   2.604
  56 N   -2.682  -1.467   2.604
  57 F    1.094  -4.775   8.456
                                833 S  
                                         2.895E+03-5.341E-03 0.000E+00 0.000E+00
                                         4.354E+02-3.990E-02 0.000E+00 0.000E+00
                                         9.884E+01-1.791E-01 0.000E+00 0.000E+00
                                         2.749E+01-4.676E-01 0.000E+00 0.000E+00
                                         8.541E+00-4.465E-01 0.000E+00 0.000E+00
                                834 S  
                                         1.123E+00 1.000E+00 0.000E+00 0.000E+00
                                835 S  
                                         3.743E-01 1.000E+00 0.000E+00 0.000E+00
                         836-   838 P  
                                         2.270E+01 0.000E+00-4.521E-02 0.000E+00
                                         4.987E+00 0.000E+00-2.375E-01 0.000E+00
                                         1.349E+00 0.000E+00-5.129E-01 0.000E+00
                         839-   841 P  
                                         3.474E-01 0.000E+00 1.000E+00 0.000E+00
                         842-   846 D  
                                         9.203E-01 0.000E+00 0.000E+00 1.000E+00
                         847-   851 D  
                                         3.977E-01 0.000E+00 0.000E+00 1.000E+00
  58 F   -1.094   4.775   8.456
  59 F   -4.775  -1.094  -8.456
  60 F    4.775   1.094  -8.456
  61 ZN   9.910  -0.000 -17.896
                                909 S  
                                         8.200E+04 1.421E-03 0.000E+00 0.000E+00
                                         1.231E+04 1.089E-02 0.000E+00 0.000E+00
                                         2.801E+03 5.406E-02 0.000E+00 0.000E+00
                                         7.910E+02 1.885E-01 0.000E+00 0.000E+00
                                         2.576E+02 3.835E-01 0.000E+00 0.000E+00
                                         8.881E+01 2.972E-01 0.000E+00 0.000E+00
                                910 S  
                                         1.719E+02-1.105E-01 0.000E+00 0.000E+00
                                         2.030E+01 6.461E-01 0.000E+00 0.000E+00
                                         8.346E+00 4.422E-01 0.000E+00 0.000E+00
                                911 S  
                                         1.485E+01-2.271E-01 0.000E+00 0.000E+00
                                         2.450E+00 7.243E-01 0.000E+00 0.000E+00
                                         9.985E-01 4.484E-01 0.000E+00 0.000E+00
                                912 S  
                                         1.493E+00 1.000E+00 0.000E+00 0.000E+00
                                913 S  
                                         1.830E-01 1.000E+00 0.000E+00 0.000E+00
                         914-   916 P  
                                         1.072E+03 0.000E+00 9.277E-03 0.000E+00
                                         2.527E+02 0.000E+00 6.954E-02 0.000E+00
                                         8.010E+01 0.000E+00 2.716E-01 0.000E+00
                                         2.890E+01 0.000E+00 5.340E-01 0.000E+00
                                         1.077E+01 0.000E+00 3.450E-01 0.000E+00
                         917-   919 P  
                                         5.645E+00 0.000E+00 3.413E-01 0.000E+00
                                         2.168E+00 0.000E+00 5.639E-01 0.000E+00
                                         8.054E-01 0.000E+00 2.368E-01 0.000E+00
                         920-   922 P  
                                         2.721E-01 0.000E+00 1.000E+00 0.000E+00
                         923-   927 D  
                                         5.609E+01 0.000E+00 0.000E+00 2.959E-02
                                         1.575E+01 0.000E+00 0.000E+00 1.587E-01
                                         5.312E+00 0.000E+00 0.000E+00 3.798E-01
                                         1.774E+00 0.000E+00 0.000E+00 4.690E-01
                         928-   932 D  
                                         5.073E-01 0.000E+00 0.000E+00 1.000E+00
                         933-   939 F  
                                         2.814E+00 0.000E+00 0.000E+00 1.000E+00
                         940-   946 F  
                                         1.300E+00 0.000E+00 0.000E+00 1.000E+00
  62 ZN   0.000   0.000  11.931

 *******************************************************************************
 FINISHED BASIS SET HANDLING 
 *******************************************************************************

 INFORMATION **** SET_MPP **** PCRYSTAL CALCULATION
 INFORMATION **** READM2 **** NEW DEFAULT: FOCK/KS MATRIX MIXING SET TO 30 %
 INFORMATION **** READM2 **** NEW DEFAULT: FULL DIRECT SCF MODE
 INFORMATION **** READM2 **** NEW DEFAULT: COULOMB BIPOLAR BUFFER SET TO 32 Mb
 INFORMATION **** READM2 **** NEW DEFAULT: EXCHANGE BIPOLAR BUFFER SET TO 32 Mb

 *******************************************************************************
 NEW DEFAULT: DFT INTEGRATION GRID INCREASED TO XLGRID
 NEW DEFAULT: DIIS ACCELERATOR ACTIVE
 USE KEYWORD NODIIS TO TURN IT OFF
 *******************************************************************************

 INFORMATION **** DFTD3_INPUT **** PERFORM DISPERSION CORRECTION DFT-D3(BJ) IN THE BECKE-JOHNSON DAMPING SCHEME

 PLEASE CITE:
 (1) DFT-D3 Reference
  S. Grimme, J. Antony, S. Ehrlich, and H. Krieg, J. Chem. Phys. 132 (2010), 154104
 (2) BJ-Damping Reference
  S. Grimme, S. Ehrlich, and L. Goerigk, J. Comput. Chem. 32 (2011), 1456-1465
 (3) General DFT-D Review
  S. Grimme, A. Hansen, J. G. Brandenburg, and C. Bannwarth,
  Chem. Rev. 116 (2016), 5105-5154

 INFORMATION **** TOLINTEG **** COULOMB AND EXCHANGE SERIES TOLERANCES MODIFIED
 INFORMATION **** BIPOSIZE **** COULOMB BIPOLAR BUFFER SET TO   100000000
 INFORMATION **** MAXCYCLE **** MAX NUMBER OF SCF CYCLES SET TO          50
 *******************************************************************************
 N. OF ATOMS PER CELL        62  COULOMB OVERLAP TOL         (T1) 10**  -12
 NUMBER OF SHELLS           388  COULOMB PENETRATION TOL     (T2) 10**  -12
 NUMBER OF AO               984  EXCHANGE OVERLAP TOL        (T3) 10**   20
 N. OF ELECTRONS PER CELL   392  EXCHANGE PSEUDO OVP (F(G))  (T4) 10**   20
 CORE ELECTRONS PER CELL    132  EXCHANGE PSEUDO OVP (P(G))  (T5) 10**   20
 N. OF SYMMETRY OPERATORS     4  POLE ORDER IN MONO ZONE                  4
 *******************************************************************************
 TYPE OF CALCULATION :  RESTRICTED CLOSED SHELL
 KOHN-SHAM HAMILTONIAN

 (EXCHANGE)[CORRELATION] FUNCTIONAL:(PERDEW-BURKE-ERNZERHOF)[PERDEW-BURKE-ERNZERHOF]


 CAPPA:IS1  3;IS2  3;IS3  3; K PTS MONK NET   6; SYMMOPS:K SPACE   8;G SPACE   4

 *******************************************************************************
 MAX NUMBER OF SCF CYCLES      50  CONVERGENCE ON DELTAP        10**-16
 WEIGHT OF F(I) IN F(I+1)      30% CONVERGENCE ON ENERGY        10**- 6
 SHRINK. FACT.(MONKH.)    3  3  3  NUMBER OF K POINTS IN THE IBZ      6
 SHRINKING FACTOR(GILAT NET)    3  NUMBER OF K POINTS(GILAT NET)      6
 *******************************************************************************
 *** K POINTS COORDINATES (OBLIQUE COORDINATES IN UNITS OF IS =  3)
   1-R(  0  0  0)   2-C(  1  0  0)   3-C(  1  1  0)   4-C(  2  1  0)
   5-C(  2  1  1)   6-C(  2  2  1)

 DIRECT LATTICE VECTORS COMPON. (A.U.)     RECIP. LATTICE VECTORS COMPON. (A.U.) 
        X            Y            Z              X            Y            Z
   -9.9098394    9.9098394   11.9306502      0.0000000    0.3170175    0.2633212
    9.9098394   -9.9098394   11.9306502      0.3170175    0.0000000    0.2633212
    9.9098394    9.9098394  -11.9306502      0.3170175    0.3170175    0.0000000

 DISK SPACE FOR EIGENVECTORS (FTN 10)    10650816 REALS

 SYMMETRY ADAPTION OF THE BLOCH FUNCTIONS ENABLED
 TTTTTTTTTTTTTTTTTTTTTTTTTTTTTT gordsh1     TELAPSE       33.86 TCPU        0.06

 MATRIX SIZE: P(G) 1835836, F(G)  918962, P(G) IRR  232444, F(G) IRR  232444
 MAX G-VECTOR INDEX FOR 1- AND 2-ELECTRON INTEGRALS  59

 TTTTTTTTTTTTTTTTTTTTTTTTTTTTTT INPUT       TELAPSE       34.12 TCPU        0.32

 NEIGHBORS OF THE NON-EQUIVALENT ATOMS

 N = NUMBER OF NEIGHBORS AT DISTANCE R
    ATOM  N     R/ANG      R/AU   NEIGHBORS (ATOM LABELS AND CELL INDICES)
   1 H    1     1.0936     2.0667   29 C    0 0 0
   1 H    1     2.0645     3.9013   53 N    0 0 0
   1 H    1     2.1715     4.1035   13 C    0 0 0
   1 H    1     2.4528     4.6352   42 N    0 0 0
   1 H    1     2.5981     4.9096   38 N    0 0 0
   1 H    1     2.6878     5.0792   37 N    1 0 1

   5 H    1     1.0922     2.0640   34 C    0 0 0
   5 H    1     2.1650     4.0913   21 C    0 0 0
   5 H    1     2.1781     4.1161   25 C    0 0 0
   5 H    1     2.5506     4.8199    9 H    0 0 0
   5 H    1     2.6242     4.9591   57 F    0-1 0
   5 H    1     2.6905     5.0843    6 H    0-1-1

   9 H    1     1.0949     2.0691   25 C    0 0 0
   9 H    1     2.0712     3.9139   53 N    0 0 0
   9 H    1     2.1895     4.1375   34 C    0 0 0
   9 H    1     2.4401     4.6112   54 N    0 0 0
   9 H    1     2.5506     4.8199    5 H    0 0 0
   9 H    1     3.0048     5.6782   56 N    0 0 0

  13 C    1     1.4015     2.6484   21 C    0 0 0
  13 C    1     1.4103     2.6651   29 C    0 0 0
  13 C    1     1.4575     2.7543   17 C    0-1 0
  13 C    1     2.1715     4.1035    1 H    0 0 0
  13 C    1     2.3736     4.4855   57 F    0-1 0
  13 C    1     2.4313     4.5946   53 N    0 0 0

  17 C    1     1.3530     2.5567   45 N    0 0 0
  17 C    1     1.3564     2.5633   37 N    1 1 1
  17 C    1     1.4575     2.7543   13 C    0 1 0
  17 C    1     2.1998     4.1570   49 N    1 1 1
  17 C    1     2.2037     4.1644   41 N    1 1 1
  17 C    1     2.4759     4.6788   29 C    0 1 0

  21 C    1     1.3504     2.5518   57 F    0-1 0
  21 C    1     1.3907     2.6280   34 C    0 0 0
  21 C    1     1.4015     2.6484   13 C    0 0 0
  21 C    1     2.1650     4.0913    5 H    0 0 0
  21 C    1     2.3782     4.4941   29 C    0 0 0
  21 C    1     2.3904     4.5171   25 C    0 0 0

  25 C    1     1.0949     2.0691    9 H    0 0 0
  25 C    1     1.3498     2.5508   53 N    0 0 0
  25 C    1     1.4010     2.6474   34 C    0 0 0
  25 C    1     2.1781     4.1161    5 H    0 0 0
  25 C    1     2.3078     4.3611   29 C    0 0 0
  25 C    1     2.3904     4.5171   21 C    0 0 0

  29 C    1     1.0936     2.0667    1 H    0 0 0
  29 C    1     1.3379     2.5282   53 N    0 0 0
  29 C    1     1.4103     2.6651   13 C    0 0 0
  29 C    1     2.3078     4.3611   25 C    0 0 0
  29 C    1     2.3782     4.4941   21 C    0 0 0
  29 C    1     2.4759     4.6788   17 C    0-1 0

  33 C    1     1.0922     2.0640    6 H    0 0 0
  33 C    1     1.3907     2.6280   22 C    0 0 0
  33 C    1     1.4010     2.6474   26 C    0 0 0
  33 C    1     2.1895     4.1375   10 H    0 0 0
  33 C    1     2.3658     4.4707   58 F   -1 0 0
  33 C    1     2.4111     4.5562   54 N    0 0 0

  37 N    1     1.3564     2.5633   17 C   -1-1-1
  37 N    1     1.3758     2.5998   41 N    0 0 0
  37 N    1     1.9876     3.7561   61 ZN   0 0-1
  37 N    1     2.1826     4.1245   49 N    0 0 0
  37 N    1     2.1933     4.1447   45 N   -1-1-1
  37 N    1     2.4614     4.6514   13 C   -1 0-1

  41 N    1     1.3148     2.4847   49 N    0 0 0
  41 N    1     1.3758     2.5998   37 N    0 0 0
  41 N    1     2.1912     4.1407   45 N   -1-1-1
  41 N    1     2.2037     4.1644   17 C   -1-1-1
  41 N    1     2.4528     4.6352    2 H    0 0 0
  41 N    1     2.8928     5.4667   61 ZN   0 0-1

  45 N    1     1.3530     2.5567   17 C    0 0 0
  45 N    1     1.3800     2.6079   49 N    1 1 1
  45 N    1     1.9872     3.7553   62 ZN   0 0 0
  45 N    1     2.1912     4.1407   41 N    1 1 1
  45 N    1     2.1933     4.1447   37 N    1 1 1
  45 N    1     2.5464     4.8120   13 C    0 1 0

  49 N    1     1.3148     2.4847   41 N    0 0 0
  49 N    1     1.3800     2.6079   45 N   -1-1-1
  49 N    1     2.1826     4.1245   37 N    0 0 0
  49 N    1     2.1998     4.1570   17 C   -1-1-1
  49 N    1     2.7983     5.2880   58 F   -1-1-1
  49 N    1     2.8274     5.3431   62 ZN  -1-1-1

  53 N    1     1.3379     2.5282   29 C    0 0 0
  53 N    1     1.3498     2.5508   25 C    0 0 0
  53 N    1     2.0645     3.9013    1 H    0 0 0
  53 N    1     2.0712     3.9139    9 H    0 0 0
  53 N    1     2.4111     4.5562   34 C    0 0 0
  53 N    1     2.4313     4.5946   13 C    0 0 0

  57 F    1     1.3504     2.5518   21 C    0 1 0
  57 F    1     2.3658     4.4707   34 C    0 1 0
  57 F    1     2.3736     4.4855   13 C    0 1 0
  57 F    1     2.6242     4.9591    5 H    0 1 0
  57 F    1     2.7983     5.2880   50 N    0 0-1
  57 F    1     2.8971     5.4748   17 C    0 0 0

  61 ZN   4     1.9876     3.7561   37 N    0 0 1   38 N   -1 0 0   39 N   -1 0 1
                                    40 N   -1-1 0
  61 ZN   4     2.7541     5.2045    1 H   -1 0 0    2 H    0 0 1    3 H   -1-1 0
                                     4 H   -1 0 1
  61 ZN   4     2.8928     5.4667   41 N    0 0 1   42 N   -1 0 0   43 N   -1 0 1
                                    44 N   -1-1 0
  61 ZN   4     3.0866     5.8329   17 C   -1-1 0   18 C   -1 0 1   19 C    0 0 1
                                    20 C   -1 0 0
  61 ZN   4     3.3032     6.2421   29 C   -1 0 0   30 C    0 0 1   31 C   -1-1 0
                                    32 C   -1 0 1
  61 ZN   4     3.5293     6.6695   13 C   -1 0 0   14 C    0 0 1   15 C   -1-1 0
                                    16 C   -1 0 1

  62 ZN   4     1.9872     3.7553   45 N    0 0 0   46 N    0 0 0   47 N    1 1 0
                                    48 N    1 1 0
  62 ZN   4     2.8274     5.3431   49 N    1 1 1   50 N    0 0-1   51 N    0 1 0
                                    52 N    1 0 0
  62 ZN   4     3.1354     5.9250   17 C    0 0 0   18 C    0 0 0   19 C    1 1 0
                                    20 C    1 1 0
  62 ZN   4     3.1780     6.0056   57 F    0 0 0   58 F    0 0 0   59 F    1 1 0
                                    60 F    1 1 0
  62 ZN   4     3.7954     7.1722   13 C    0 1 0   14 C    1 0 0   15 C    0 0-1
                                    16 C    1 1 1
  62 ZN   4     3.8578     7.2901   21 C    0 1 0   22 C    1 0 0   23 C    0 0-1
                                    24 C    1 1 1


 SYMMETRY ALLOWED INTERNAL DEGREE(S) OF FREEDOM:  45
 TTTTTTTTTTTTTTTTTTTTTTTTTTTTTT SYMM        TELAPSE       34.36 TCPU        0.56
 TTTTTTTTTTTTTTTTTTTTTTTTTTTTTT INT_SCREEN  TELAPSE       34.37 TCPU        0.56
 INFORMATION **** EXCBUF **** EXCH. BIPO BUFFER: WORDS USED =           0

 DFT PARAMETERS

     ATOM       ELECTRONS   NET CHARGE   R(ANGSTROM)
   1   1  H       1.0000      0.0000     1.11000000
  13   6  C       6.0000      0.0000     0.77000000
  37   7  N       7.0000      0.0000     0.74000000
  57   9  F       9.0000      0.0000     0.72000000
  61  30  ZN     30.0000      0.0000     1.37000000

 SIZE OF GRID=     459050
 TTTTTTTTTTTTTTTTTTTTTTTTTTTTTT MAKE_GRID2  TELAPSE       35.00 TCPU        1.19
 BECKE WEIGHT FUNCTION
 RADSAFE =     2.00
 TOLERANCES - DENSITY:10**- 6; POTENTIAL:10**- 9; GRID WGT:10**-14

 RADIAL INTEGRATION  - INTERVALS (POINTS,UPPER LIMIT):            1( 75,  4.0*R)

 ANGULAR INTEGRATION - INTERVALS (ACCURACY LEVEL [N. POINTS] UPPER LIMIT):
  1(  4[  86]   0.2)  2(  8[ 194]   0.5)  3( 12[ 350]   0.9)  4( 16[ 974]   3.5)
  5( 12[ 350]9999.0)
 TTTTTTTTTTTTTTTTTTTTTTTTTTTTTT INT_CALC    TELAPSE       35.03 TCPU        1.23
 EEEEEEEEEE INT_CALC TERMINATION  DATE 27 11 2023 TIME 03:26:18.3

 *******************************************************************************
 Z:\home\sanoj\Downloads\tmp_p\newconn.mol                                       
 CRYSTAL - SCF - TYPE OF CALCULATION :  RESTRICTED CLOSED SHELL
 *******************************************************************************

 CAPPA:IS1  3;IS2  3;IS3  3; K PTS MONK NET   6; SYMMOPS:K SPACE   8;G SPACE   4

 TTTTTTTTTTTTTTTTTTTTTTTTTTTTTT SDIK        TELAPSE       35.17 TCPU        1.36

 AAAAAAAAAAAAAAAAAAAAAAAAAAAAAAAAAAAAAAAAAAAAAAAAAAAAAAAAAAAAAAAAAAAAAAAAAAAAAAA
         ATOMIC WAVEFUNCTION(S)


 NUCLEAR CHARGE  1.0  SYMMETRY SPECIES            S
 N. ELECTRONS    1.0  NUMBER OF PRIMITIVE GTOS    4
                      NUMBER OF CONTRACTED GTOS   2
                      NUMBER OF CLOSED SHELLS     0
                      OPEN SHELL OCCUPATION       1

  ZNUC SCFIT  TOTAL HF ENERGY   KINETIC ENERGY   VIRIAL THEOREM ACCURACY
   1.0   1   -4.946643675E-01  4.917913167E-01 -2.005842012E+00  9.4E-17

 NUCLEAR CHARGE  6.0  SYMMETRY SPECIES            S    P
 N. ELECTRONS    6.0  NUMBER OF PRIMITIVE GTOS    7    4
                      NUMBER OF CONTRACTED GTOS   3    2
                      NUMBER OF CLOSED SHELLS     2    0
                      OPEN SHELL OCCUPATION       0    2

  ZNUC SCFIT  TOTAL HF ENERGY   KINETIC ENERGY   VIRIAL THEOREM ACCURACY
   6.0   6   -3.750912652E+01  3.905246519E+01 -1.960480378E+00  3.7E-06

 NUCLEAR CHARGE  7.0  SYMMETRY SPECIES            S    P
 N. ELECTRONS    7.0  NUMBER OF PRIMITIVE GTOS    7    4
                      NUMBER OF CONTRACTED GTOS   3    2
                      NUMBER OF CLOSED SHELLS     2    0
                      OPEN SHELL OCCUPATION       0    3

  ZNUC SCFIT  TOTAL HF ENERGY   KINETIC ENERGY   VIRIAL THEOREM ACCURACY
   7.0   9   -5.432196661E+01  5.425066284E+01 -2.001314339E+00  1.2E-06

 NUCLEAR CHARGE  9.0  SYMMETRY SPECIES            S    P
 N. ELECTRONS    9.0  NUMBER OF PRIMITIVE GTOS    7    4
                      NUMBER OF CONTRACTED GTOS   3    2
                      NUMBER OF CLOSED SHELLS     2    0
                      OPEN SHELL OCCUPATION       0    5

  ZNUC SCFIT  TOTAL HF ENERGY   KINETIC ENERGY   VIRIAL THEOREM ACCURACY
   9.0  14   -9.927886620E+01  9.927374065E+01 -2.000051630E+00  4.0E-06

 NUCLEAR CHARGE 30.0  SYMMETRY SPECIES            S    P    D
 N. ELECTRONS   30.0  NUMBER OF PRIMITIVE GTOS   14    9    5
                      NUMBER OF CONTRACTED GTOS   5    3    2
                      NUMBER OF CLOSED SHELLS     4    2    1
                      OPEN SHELL OCCUPATION       0    0    0

  ZNUC SCFIT  TOTAL HF ENERGY   KINETIC ENERGY   VIRIAL THEOREM ACCURACY
  30.0  10   -1.777404290E+03  1.777325716E+03 -2.000044209E+00  2.5E-06

 AAAAAAAAAAAAAAAAAAAAAAAAAAAAAAAAAAAAAAAAAAAAAAAAAAAAAAAAAAAAAAAAAAAAAAAAAAAAAAA

 TOTAL ATOMIC CHARGES:
   1.0000000   1.0000000   1.0000000   1.0000000   1.0000000   1.0000000
   1.0000000   1.0000000   1.0000000   1.0000000   1.0000000   1.0000000
   6.0000000   6.0000000   6.0000000   6.0000000   6.0000000   6.0000000
   6.0000000   6.0000000   6.0000000   6.0000000   6.0000000   6.0000000
   6.0000000   6.0000000   6.0000000   6.0000000   6.0000000   6.0000000
   6.0000000   6.0000000   6.0000000   6.0000000   6.0000000   6.0000000
   7.0000000   7.0000000   7.0000000   7.0000000   7.0000000   7.0000000
   7.0000000   7.0000000   7.0000000   7.0000000   7.0000000   7.0000000
   7.0000000   7.0000000   7.0000000   7.0000000   7.0000000   7.0000000
   7.0000000   7.0000000   9.0000000   9.0000000   9.0000000   9.0000000
  30.0000000  30.0000000
 TTTTTTTTTTTTTTTTTTTTTTTTTTTTTT MOQGAD      TELAPSE       37.84 TCPU        4.01
 TTTTTTTTTTTTTTTTTTTTTTTTTTTTTT SHELLXN     TELAPSE       62.57 TCPU       18.44
 TTTTTTTTTTTTTTTTTTTTTTTTTTTTTT MONMO3      TELAPSE       67.69 TCPU       23.54
 NUMERICALLY INTEGRATED DENSITY    392.0001059640
 TTTTTTTTTTTTTTTTTTTTTTTTTTTTTT NUMDFT      TELAPSE       68.18 TCPU       24.03
 CYC   0 ETOT(AU) -5.972968126635E+03 DETOT -5.97E+03 tst  0.00E+00 PX  1.00E+00
 TTTTTTTTTTTTTTTTTTTTTTTTTTTTTT DIIS        TELAPSE       68.25 TCPU       24.10
 TTTTTTTTTTTTTTTTTTTTTTTTTTTTTT FDIK        TELAPSE       86.82 TCPU       32.36
 INSULATING STATE
 TOP OF VALENCE BANDS -    BAND    196; K    4; EIG -1.3244852E-01 AU
 TOP OF VALENCE BANDS -    BAND    196; K    1; EIG -1.3322920E-01 AU
 BOTTOM OF VIRTUAL BANDS - BAND    197; K    5; EIG -9.5087644E-02 AU
 INDIRECT ENERGY BAND GAP:   1.0166 eV
 BOTTOM OF VIRTUAL BANDS - BAND    197; K    1; EIG -9.1671507E-02 AU
 TTTTTTTTTTTTTTTTTTTTTTTTTTTTTT PDIG        TELAPSE       87.15 TCPU       32.69
 TOTAL ATOMIC CHARGES:
   1.3013996   1.3013996   1.3013996   1.3013996   1.0618102   1.0618102
   1.0618102   1.0618102   1.2188454   1.2188454   1.2188454   1.2188454
   6.1432825   6.1432825   6.1432825   6.1432825   5.4966560   5.4966560
   5.4966560   5.4966560   5.2207244   5.2207244   5.2207244   5.2207244
   5.7254310   5.7254310   5.7254310   5.7254310   5.8262240   5.8262240
   5.8262240   5.8262240   6.1507110   6.1507110   6.1507110   6.1507110
   7.3874618   7.3874618   7.3874618   7.3874618   7.1880121   7.1880121
   7.1880121   7.1880121   7.4101653   7.4101653   7.4101653   7.4101653
   7.1816036   7.1816036   7.1816036   7.1816036   7.5087303   7.5087303
   7.5087303   7.5087303   9.2782592   9.2782592   9.2782592   9.2782592
  27.6774641  27.9252710
 TTTTTTTTTTTTTTTTTTTTTTTTTTTTTT MOQGAD      TELAPSE       87.17 TCPU       32.70
 TTTTTTTTTTTTTTTTTTTTTTTTTTTTTT SHELLXN     TELAPSE      111.87 TCPU       50.06
 TTTTTTTTTTTTTTTTTTTTTTTTTTTTTT MONMO3      TELAPSE      114.85 TCPU       53.03
 NUMERICALLY INTEGRATED DENSITY    392.0000478091
 TTTTTTTTTTTTTTTTTTTTTTTTTTTTTT NUMDFT      TELAPSE      116.25 TCPU       54.42
 CYC   1 ETOT(AU) -5.967839646642E+03 DETOT  5.13E+00 tst  0.00E+00 PX  1.00E+00
 TTTTTTTTTTTTTTTTTTTTTTTTTTTTTT DIIS        TELAPSE      116.81 TCPU       54.97
 DIIS TEST: 0.14003E+02 AT SCF   CYCLE   1 - MIX   30 %
 TTTTTTTTTTTTTTTTTTTTTTTTTTTTTT FDIK        TELAPSE      125.31 TCPU       58.55
 INSULATING STATE
 TOP OF VALENCE BANDS -    BAND    196; K    4; EIG -1.2320151E-01 AU
 TOP OF VALENCE BANDS -    BAND    196; K    1; EIG -1.2659138E-01 AU
 BOTTOM OF VIRTUAL BANDS - BAND    197; K    5; EIG -1.2027352E-01 AU
 INDIRECT ENERGY BAND GAP:   0.0797 eV
 BOTTOM OF VIRTUAL BANDS - BAND    197; K    1; EIG -1.1493019E-01 AU
 TTTTTTTTTTTTTTTTTTTTTTTTTTTTTT PDIG        TELAPSE      125.63 TCPU       58.88
 TOTAL ATOMIC CHARGES:
   1.2904061   1.2904061   1.2904061   1.2904061   1.0362340   1.0362340
   1.0362340   1.0362340   1.1620688   1.1620688   1.1620688   1.1620688
   6.2385869   6.2385869   6.2385869   6.2385869   6.3341696   6.3341696
   6.3341696   6.3341696   6.3340384   6.3340384   6.3340384   6.3340384
   6.0017614   6.0017614   6.0017614   6.0017614   6.3149325   6.3149325
   6.3149325   6.3149325   5.8560939   5.8560939   5.8560939   5.8560939
   7.1049240   7.1049240   7.1049240   7.1049240   6.8756844   6.8756844
   6.8756844   6.8756844   7.0375362   7.0375362   7.0375362   7.0375362
   6.8211165   6.8211165   6.8211165   6.8211165   5.6107248   5.6107248
   5.6107248   5.6107248   9.0523035   9.0523035   9.0523035   9.0523035
  30.0260409  29.6916350
 TTTTTTTTTTTTTTTTTTTTTTTTTTTTTT MOQGAD      TELAPSE      125.65 TCPU       58.89
 TTTTTTTTTTTTTTTTTTTTTTTTTTTTTT SHELLXN     TELAPSE      145.68 TCPU       76.49
 TTTTTTTTTTTTTTTTTTTTTTTTTTTTTT MONMO3      TELAPSE      149.44 TCPU       80.24
 NUMERICALLY INTEGRATED DENSITY    392.0000817185
 TTTTTTTTTTTTTTTTTTTTTTTTTTTTTT NUMDFT      TELAPSE      150.91 TCPU       81.70
 CYC   2 ETOT(AU) -5.964696736235E+03 DETOT  3.14E+00 tst  7.41E-02 PX  8.93E-01
 TTTTTTTTTTTTTTTTTTTTTTTTTTTTTT DIIS        TELAPSE      151.57 TCPU       82.36
 DIIS TEST: 0.37509E+02 AT SCF   CYCLE   2 - DIIS ACTIVE - HISTORY:     2 CYCLES
 TTTTTTTTTTTTTTTTTTTTTTTTTTTTTT FDIK        TELAPSE      158.90 TCPU       85.42
 INSULATING STATE
 TOP OF VALENCE BANDS -    BAND    196; K    4; EIG -2.4180280E-01 AU
 TOP OF VALENCE BANDS -    BAND    196; K    1; EIG -2.4251158E-01 AU
 BOTTOM OF VIRTUAL BANDS - BAND    197; K    4; EIG -1.2360124E-01 AU
 DIRECT ENERGY BAND GAP:   3.2164 eV
 BOTTOM OF VIRTUAL BANDS - BAND    197; K    1; EIG -1.2332830E-01 AU
 TTTTTTTTTTTTTTTTTTTTTTTTTTTTTT PDIG        TELAPSE      159.23 TCPU       85.75
 TOTAL ATOMIC CHARGES:
   1.1961491   1.1961491   1.1961491   1.1961491   0.9870133   0.9870133
   0.9870133   0.9870133   1.1132432   1.1132432   1.1132432   1.1132432
   5.8024345   5.8024345   5.8024345   5.8024345   5.9128943   5.9128943
   5.9128943   5.9128943   5.6565251   5.6565251   5.6565251   5.6565251
   6.1693724   6.1693724   6.1693724   6.1693724   6.0056411   6.0056411
   6.0056411   6.0056411   5.8657831   5.8657831   5.8657831   5.8657831
   6.8791690   6.8791690   6.8791690   6.8791690   7.0859352   7.0859352
   7.0859352   7.0859352   6.9162345   6.9162345   6.9162345   6.9162345
   7.0690978   7.0690978   7.0690978   7.0690978   7.5553602   7.5553602
   7.5553602   7.5553602   9.0656971   9.0656971   9.0656971   9.0656971
  29.4994228  29.3783776
 TTTTTTTTTTTTTTTTTTTTTTTTTTTTTT MOQGAD      TELAPSE      159.24 TCPU       85.76
 TTTTTTTTTTTTTTTTTTTTTTTTTTTTTT SHELLXN     TELAPSE      179.38 TCPU      103.36
 TTTTTTTTTTTTTTTTTTTTTTTTTTTTTT MONMO3      TELAPSE      183.20 TCPU      107.18
 NUMERICALLY INTEGRATED DENSITY    392.0000569804
 TTTTTTTTTTTTTTTTTTTTTTTTTTTTTT NUMDFT      TELAPSE      184.57 TCPU      108.53
 CYC   3 ETOT(AU) -5.968847272187E+03 DETOT -4.15E+00 tst  5.41E-01 PX  4.95E-01
 TTTTTTTTTTTTTTTTTTTTTTTTTTTTTT DIIS        TELAPSE      184.71 TCPU      108.68
 DIIS TEST: 0.74459E+01 AT SCF   CYCLE   3 - DIIS ACTIVE - HISTORY:     3 CYCLES
 TTTTTTTTTTTTTTTTTTTTTTTTTTTTTT FDIK        TELAPSE      190.15 TCPU      111.90
 INSULATING STATE
 TOP OF VALENCE BANDS -    BAND    196; K    1; EIG -2.1309908E-01 AU
 BOTTOM OF VIRTUAL BANDS - BAND    197; K    6; EIG -1.1788406E-01 AU
 INDIRECT ENERGY BAND GAP:   2.5909 eV
 BOTTOM OF VIRTUAL BANDS - BAND    197; K    1; EIG -1.1377006E-01 AU
 TTTTTTTTTTTTTTTTTTTTTTTTTTTTTT PDIG        TELAPSE      190.48 TCPU      112.23
 TOTAL ATOMIC CHARGES:
   1.2283135   1.2283135   1.2283135   1.2283135   1.0235401   1.0235401
   1.0235401   1.0235401   1.1732426   1.1732426   1.1732426   1.1732426
   6.1965015   6.1965015   6.1965015   6.1965015   5.7554433   5.7554433
   5.7554433   5.7554433   5.6637051   5.6637051   5.6637051   5.6637051
   5.7540462   5.7540462   5.7540462   5.7540462   5.9926329   5.9926329
   5.9926329   5.9926329   6.1333360   6.1333360   6.1333360   6.1333360
   7.2402655   7.2402655   7.2402655   7.2402655   7.0375637   7.0375637
   7.0375637   7.0375637   7.2457390   7.2457390   7.2457390   7.2457390
   7.0545990   7.0545990   7.0545990   7.0545990   6.8975631   6.8975631
   6.8975631   6.8975631   9.2095268   9.2095268   9.2095268   9.2095268
  28.7605782  28.8153485
 TTTTTTTTTTTTTTTTTTTTTTTTTTTTTT MOQGAD      TELAPSE      190.49 TCPU      112.25
 TTTTTTTTTTTTTTTTTTTTTTTTTTTTTT SHELLXN     TELAPSE      209.56 TCPU      129.86
 TTTTTTTTTTTTTTTTTTTTTTTTTTTTTT MONMO3      TELAPSE      213.40 TCPU      133.69
 NUMERICALLY INTEGRATED DENSITY    392.0000609260
 TTTTTTTTTTTTTTTTTTTTTTTTTTTTTT NUMDFT      TELAPSE      214.76 TCPU      135.05
 CYC   4 ETOT(AU) -5.969808508151E+03 DETOT -9.61E-01 tst  1.02E-02 PX  4.09E-01
 TTTTTTTTTTTTTTTTTTTTTTTTTTTTTT DIIS        TELAPSE      214.99 TCPU      135.28
 DIIS TEST: 0.14474E+01 AT SCF   CYCLE   4 - DIIS ACTIVE - HISTORY:     4 CYCLES
 TTTTTTTTTTTTTTTTTTTTTTTTTTTTTT FDIK        TELAPSE      220.41 TCPU      138.37
 INSULATING STATE
 TOP OF VALENCE BANDS -    BAND    196; K    1; EIG -2.3273950E-01 AU
 BOTTOM OF VIRTUAL BANDS - BAND    197; K    6; EIG -1.2323082E-01 AU
 INDIRECT ENERGY BAND GAP:   2.9799 eV
 BOTTOM OF VIRTUAL BANDS - BAND    197; K    1; EIG -1.1783774E-01 AU
 TTTTTTTTTTTTTTTTTTTTTTTTTTTTTT PDIG        TELAPSE      220.74 TCPU      138.70
 TOTAL ATOMIC CHARGES:
   1.2210444   1.2210444   1.2210444   1.2210444   1.0256825   1.0256825
   1.0256825   1.0256825   1.1562888   1.1562888   1.1562888   1.1562888
   6.1010663   6.1010663   6.1010663   6.1010663   5.8261012   5.8261012
   5.8261012   5.8261012   5.6179569   5.6179569   5.6179569   5.6179569
   5.9530602   5.9530602   5.9530602   5.9530602   6.0695288   6.0695288
   6.0695288   6.0695288   5.9938662   5.9938662   5.9938662   5.9938662
   7.2143067   7.2143067   7.2143067   7.2143067   7.1306894   7.1306894
   7.1306894   7.1306894   7.1042577   7.1042577   7.1042577   7.1042577
   7.0123724   7.0123724   7.0123724   7.0123724   6.9911036   6.9911036
   6.9911036   6.9911036   9.1529960   9.1529960   9.1529960   9.1529960
  28.8675974  28.8511181
 TTTTTTTTTTTTTTTTTTTTTTTTTTTTTT MOQGAD      TELAPSE      220.75 TCPU      138.71
 TTTTTTTTTTTTTTTTTTTTTTTTTTTTTT SHELLXN     TELAPSE      241.16 TCPU      156.57
 TTTTTTTTTTTTTTTTTTTTTTTTTTTTTT MONMO3      TELAPSE      244.91 TCPU      160.31
 NUMERICALLY INTEGRATED DENSITY    392.0000574508
 TTTTTTTTTTTTTTTTTTTTTTTTTTTTTT NUMDFT      TELAPSE      246.30 TCPU      161.69
 CYC   5 ETOT(AU) -5.969991095147E+03 DETOT -1.83E-01 tst  7.92E-04 PX  1.65E-01
 TTTTTTTTTTTTTTTTTTTTTTTTTTTTTT DIIS        TELAPSE      246.43 TCPU      161.82
 DIIS TEST: 0.24189E+00 AT SCF   CYCLE   5 - DIIS ACTIVE - HISTORY:     5 CYCLES
 TTTTTTTTTTTTTTTTTTTTTTTTTTTTTT FDIK        TELAPSE      251.97 TCPU      164.82
 INSULATING STATE
 TOP OF VALENCE BANDS -    BAND    196; K    1; EIG -2.3499554E-01 AU
 BOTTOM OF VIRTUAL BANDS - BAND    197; K    6; EIG -1.1970911E-01 AU
 INDIRECT ENERGY BAND GAP:   3.1371 eV
 BOTTOM OF VIRTUAL BANDS - BAND    197; K    1; EIG -1.1627942E-01 AU
 TTTTTTTTTTTTTTTTTTTTTTTTTTTTTT PDIG        TELAPSE      252.30 TCPU      165.15
 TOTAL ATOMIC CHARGES:
   1.2203192   1.2203192   1.2203192   1.2203192   1.0181841   1.0181841
   1.0181841   1.0181841   1.1582520   1.1582520   1.1582520   1.1582520
   6.0856024   6.0856024   6.0856024   6.0856024   5.8267486   5.8267486
   5.8267486   5.8267486   5.6799029   5.6799029   5.6799029   5.6799029
   5.9021859   5.9021859   5.9021859   5.9021859   5.9959571   5.9959571
   5.9959571   5.9959571   6.0309827   6.0309827   6.0309827   6.0309827
   7.1115170   7.1115170   7.1115170   7.1115170   7.0246425   7.0246425
   7.0246425   7.0246425   7.1958417   7.1958417   7.1958417   7.1958417
   7.0985196   7.0985196   7.0985196   7.0985196   7.0443189   7.0443189
   7.0443189   7.0443189   9.1654207   9.1654207   9.1654207   9.1654207
  28.8729582  28.8934606
 TTTTTTTTTTTTTTTTTTTTTTTTTTTTTT MOQGAD      TELAPSE      252.31 TCPU      165.16
 TTTTTTTTTTTTTTTTTTTTTTTTTTTTTT SHELLXN     TELAPSE      274.53 TCPU      182.92
 TTTTTTTTTTTTTTTTTTTTTTTTTTTTTT MONMO3      TELAPSE      277.96 TCPU      186.34
 NUMERICALLY INTEGRATED DENSITY    392.0000590195
 TTTTTTTTTTTTTTTTTTTTTTTTTTTTTT NUMDFT      TELAPSE      279.34 TCPU      187.71
 CYC   6 ETOT(AU) -5.970008725226E+03 DETOT -1.76E-02 tst  1.99E-04 PX  3.62E-02
 TTTTTTTTTTTTTTTTTTTTTTTTTTTTTT DIIS        TELAPSE      279.53 TCPU      187.90
 DIIS TEST: 0.11045E+00 AT SCF   CYCLE   6 - DIIS ACTIVE - HISTORY:     6 CYCLES
 TTTTTTTTTTTTTTTTTTTTTTTTTTTTTT FDIK        TELAPSE      287.06 TCPU      190.61
 INSULATING STATE
 TOP OF VALENCE BANDS -    BAND    196; K    1; EIG -2.3760696E-01 AU
 BOTTOM OF VIRTUAL BANDS - BAND    197; K    6; EIG -1.2019735E-01 AU
 INDIRECT ENERGY BAND GAP:   3.1949 eV
 BOTTOM OF VIRTUAL BANDS - BAND    197; K    1; EIG -1.1574873E-01 AU
 TTTTTTTTTTTTTTTTTTTTTTTTTTTTTT PDIG        TELAPSE      287.39 TCPU      190.94
 TOTAL ATOMIC CHARGES:
   1.2193865   1.2193865   1.2193865   1.2193865   1.0150216   1.0150216
   1.0150216   1.0150216   1.1569312   1.1569312   1.1569312   1.1569312
   6.0835297   6.0835297   6.0835297   6.0835297   5.8216283   5.8216283
   5.8216283   5.8216283   5.6788649   5.6788649   5.6788649   5.6788649
   5.8785100   5.8785100   5.8785100   5.8785100   6.0091288   6.0091288
   6.0091288   6.0091288   6.0372601   6.0372601   6.0372601   6.0372601
   7.1775709   7.1775709   7.1775709   7.1775709   7.0763430   7.0763430
   7.0763430   7.0763430   7.1342779   7.1342779   7.1342779   7.1342779
   7.0361741   7.0361741   7.0361741   7.0361741   7.0661555   7.0661555
   7.0661555   7.0661555   9.1615776   9.1615776   9.1615776   9.1615776
  28.8887328  28.9018261
 TTTTTTTTTTTTTTTTTTTTTTTTTTTTTT MOQGAD      TELAPSE      287.41 TCPU      190.95
 TTTTTTTTTTTTTTTTTTTTTTTTTTTTTT SHELLXN     TELAPSE      307.70 TCPU      208.83
 TTTTTTTTTTTTTTTTTTTTTTTTTTTTTT MONMO3      TELAPSE      311.44 TCPU      212.55
 NUMERICALLY INTEGRATED DENSITY    392.0000590845
 TTTTTTTTTTTTTTTTTTTTTTTTTTTTTT NUMDFT      TELAPSE      312.83 TCPU      213.93
 CYC   7 ETOT(AU) -5.970021947690E+03 DETOT -1.32E-02 tst  9.48E-05 PX  2.12E-02
 TTTTTTTTTTTTTTTTTTTTTTTTTTTTTT DIIS        TELAPSE      313.26 TCPU      214.36
 DIIS TEST: 0.16550E-01 AT SCF   CYCLE   7 - DIIS ACTIVE - HISTORY:     7 CYCLES
 TTTTTTTTTTTTTTTTTTTTTTTTTTTTTT FDIK        TELAPSE      318.54 TCPU      217.52
 INSULATING STATE
 TOP OF VALENCE BANDS -    BAND    196; K    1; EIG -2.3666469E-01 AU
 BOTTOM OF VIRTUAL BANDS - BAND    197; K    6; EIG -1.2022564E-01 AU
 INDIRECT ENERGY BAND GAP:   3.1685 eV
 BOTTOM OF VIRTUAL BANDS - BAND    197; K    1; EIG -1.1589819E-01 AU
 TTTTTTTTTTTTTTTTTTTTTTTTTTTTTT PDIG        TELAPSE      318.88 TCPU      217.85
 TOTAL ATOMIC CHARGES:
   1.2167283   1.2167283   1.2167283   1.2167283   1.0164579   1.0164579
   1.0164579   1.0164579   1.1563525   1.1563525   1.1563525   1.1563525
   6.0852990   6.0852990   6.0852990   6.0852990   5.8157997   5.8157997
   5.8157997   5.8157997   5.6584361   5.6584361   5.6584361   5.6584361
   5.9109172   5.9109172   5.9109172   5.9109172   6.0245060   6.0245060
   6.0245060   6.0245060   6.0261905   6.0261905   6.0261905   6.0261905
   7.1559985   7.1559985   7.1559985   7.1559985   7.0671642   7.0671642
   7.0671642   7.0671642   7.1523212   7.1523212   7.1523212   7.1523212
   7.0566587   7.0566587   7.0566587   7.0566587   7.0468067   7.0468067
   7.0468067   7.0468067   9.1618498   9.1618498   9.1618498   9.1618498
  28.8940096  28.9000450
 TTTTTTTTTTTTTTTTTTTTTTTTTTTTTT MOQGAD      TELAPSE      318.89 TCPU      217.86
 TTTTTTTTTTTTTTTTTTTTTTTTTTTTTT SHELLXN     TELAPSE      339.08 TCPU      235.81
 TTTTTTTTTTTTTTTTTTTTTTTTTTTTTT MONMO3      TELAPSE      343.14 TCPU      239.85
 NUMERICALLY INTEGRATED DENSITY    392.0000589225
 TTTTTTTTTTTTTTTTTTTTTTTTTTTTTT NUMDFT      TELAPSE      344.55 TCPU      241.26
 CYC   8 ETOT(AU) -5.970024413013E+03 DETOT -2.47E-03 tst  8.68E-06 PX  8.21E-03
 TTTTTTTTTTTTTTTTTTTTTTTTTTTTTT DIIS        TELAPSE      344.64 TCPU      241.35
 DIIS TEST: 0.12301E-02 AT SCF   CYCLE   8 - DIIS ACTIVE - HISTORY:     8 CYCLES
 TTTTTTTTTTTTTTTTTTTTTTTTTTTTTT FDIK        TELAPSE      349.80 TCPU      244.33
 INSULATING STATE
 TOP OF VALENCE BANDS -    BAND    196; K    1; EIG -2.3735494E-01 AU
 BOTTOM OF VIRTUAL BANDS - BAND    197; K    6; EIG -1.2036234E-01 AU
 INDIRECT ENERGY BAND GAP:   3.1835 eV
 BOTTOM OF VIRTUAL BANDS - BAND    197; K    1; EIG -1.1604274E-01 AU
 TTTTTTTTTTTTTTTTTTTTTTTTTTTTTT PDIG        TELAPSE      350.13 TCPU      244.65
 TOTAL ATOMIC CHARGES:
   1.2172646   1.2172646   1.2172646   1.2172646   1.0168304   1.0168304
   1.0168304   1.0168304   1.1562798   1.1562798   1.1562798   1.1562798
   6.0849664   6.0849664   6.0849664   6.0849664   5.8174597   5.8174597
   5.8174597   5.8174597   5.6623388   5.6623388   5.6623388   5.6623388
   5.9050209   5.9050209   5.9050209   5.9050209   6.0127495   6.0127495
   6.0127495   6.0127495   6.0281958   6.0281958   6.0281958   6.0281958
   7.1607751   7.1607751   7.1607751   7.1607751   7.0696307   7.0696307
   7.0696307   7.0696307   7.1505780   7.1505780   7.1505780   7.1505780
   7.0531841   7.0531841   7.0531841   7.0531841   7.0564865   7.0564865
   7.0564865   7.0564865   9.1601154   9.1601154   9.1601154   9.1601154
  28.8926515  28.8998455
 TTTTTTTTTTTTTTTTTTTTTTTTTTTTTT MOQGAD      TELAPSE      350.14 TCPU      244.67
 TTTTTTTTTTTTTTTTTTTTTTTTTTTTTT SHELLXN     TELAPSE      371.09 TCPU      262.48
 TTTTTTTTTTTTTTTTTTTTTTTTTTTTTT MONMO3      TELAPSE      374.38 TCPU      265.76
 NUMERICALLY INTEGRATED DENSITY    392.0000588821
 TTTTTTTTTTTTTTTTTTTTTTTTTTTTTT NUMDFT      TELAPSE      375.78 TCPU      267.15
 CYC   9 ETOT(AU) -5.970024560956E+03 DETOT -1.48E-04 tst  1.05E-06 PX  3.67E-03
 TTTTTTTTTTTTTTTTTTTTTTTTTTTTTT DIIS        TELAPSE      375.89 TCPU      267.26
 DIIS TEST: 0.26803E-03 AT SCF   CYCLE   9 - DIIS ACTIVE - HISTORY:     9 CYCLES
 TTTTTTTTTTTTTTTTTTTTTTTTTTTTTT FDIK        TELAPSE      383.09 TCPU      270.13
 INSULATING STATE
 TOP OF VALENCE BANDS -    BAND    196; K    1; EIG -2.3747422E-01 AU
 BOTTOM OF VIRTUAL BANDS - BAND    197; K    6; EIG -1.2029988E-01 AU
 INDIRECT ENERGY BAND GAP:   3.1885 eV
 BOTTOM OF VIRTUAL BANDS - BAND    197; K    1; EIG -1.1597267E-01 AU
 TTTTTTTTTTTTTTTTTTTTTTTTTTTTTT PDIG        TELAPSE      383.42 TCPU      270.46
 TOTAL ATOMIC CHARGES:
   1.2167035   1.2167035   1.2167035   1.2167035   1.0163920   1.0163920
   1.0163920   1.0163920   1.1561279   1.1561279   1.1561279   1.1561279
   6.0825624   6.0825624   6.0825624   6.0825624   5.8184993   5.8184993
   5.8184993   5.8184993   5.6639746   5.6639746   5.6639746   5.6639746
   5.9053520   5.9053520   5.9053520   5.9053520   6.0203186   6.0203186
   6.0203186   6.0203186   6.0269485   6.0269485   6.0269485   6.0269485
   7.1577148   7.1577148   7.1577148   7.1577148   7.0682989   7.0682989
   7.0682989   7.0682989   7.1484814   7.1484814   7.1484814   7.1484814
   7.0550862   7.0550862   7.0550862   7.0550862   7.0541729   7.0541729
   7.0541729   7.0541729   9.1612871   9.1612871   9.1612871   9.1612871
  28.8924680  28.8998516
 TTTTTTTTTTTTTTTTTTTTTTTTTTTTTT MOQGAD      TELAPSE      383.44 TCPU      270.47
 TTTTTTTTTTTTTTTTTTTTTTTTTTTTTT SHELLXN     TELAPSE      402.92 TCPU      288.22
 TTTTTTTTTTTTTTTTTTTTTTTTTTTTTT MONMO3      TELAPSE      406.76 TCPU      292.05
 NUMERICALLY INTEGRATED DENSITY    392.0000587920
 TTTTTTTTTTTTTTTTTTTTTTTTTTTTTT NUMDFT      TELAPSE      408.15 TCPU      293.43
 CYC  10 ETOT(AU) -5.970024591264E+03 DETOT -3.03E-05 tst  5.56E-07 PX  2.17E-03
 TTTTTTTTTTTTTTTTTTTTTTTTTTTTTT DIIS        TELAPSE      408.35 TCPU      293.64
 DIIS TEST: 0.88080E-04 AT SCF   CYCLE  10 - DIIS ACTIVE - HISTORY:    10 CYCLES
 TTTTTTTTTTTTTTTTTTTTTTTTTTTTTT FDIK        TELAPSE      411.60 TCPU      296.37
 INSULATING STATE
 TOP OF VALENCE BANDS -    BAND    196; K    1; EIG -2.3739935E-01 AU
 BOTTOM OF VIRTUAL BANDS - BAND    197; K    6; EIG -1.2030883E-01 AU
 INDIRECT ENERGY BAND GAP:   3.1862 eV
 BOTTOM OF VIRTUAL BANDS - BAND    197; K    1; EIG -1.1598937E-01 AU
 TTTTTTTTTTTTTTTTTTTTTTTTTTTTTT PDIG        TELAPSE      411.94 TCPU      296.70
 TOTAL ATOMIC CHARGES:
   1.2170159   1.2170159   1.2170159   1.2170159   1.0162738   1.0162738
   1.0162738   1.0162738   1.1560693   1.1560693   1.1560693   1.1560693
   6.0839017   6.0839017   6.0839017   6.0839017   5.8170707   5.8170707
   5.8170707   5.8170707   5.6626302   5.6626302   5.6626302   5.6626302
   5.9060123   5.9060123   5.9060123   5.9060123   6.0174523   6.0174523
   6.0174523   6.0174523   6.0281131   6.0281131   6.0281131   6.0281131
   7.1594191   7.1594191   7.1594191   7.1594191   7.0683039   7.0683039
   7.0683039   7.0683039   7.1506065   7.1506065   7.1506065   7.1506065
   7.0532217   7.0532217   7.0532217   7.0532217   7.0546115   7.0546115
   7.0546115   7.0546115   9.1609875   9.1609875   9.1609875   9.1609875
  28.8930563  28.9001861
 TTTTTTTTTTTTTTTTTTTTTTTTTTTTTT MOQGAD      TELAPSE      411.95 TCPU      296.72
 TTTTTTTTTTTTTTTTTTTTTTTTTTTTTT SHELLXN     TELAPSE      432.06 TCPU      314.59
 TTTTTTTTTTTTTTTTTTTTTTTTTTTTTT MONMO3      TELAPSE      435.91 TCPU      318.42
 NUMERICALLY INTEGRATED DENSITY    392.0000588554
 TTTTTTTTTTTTTTTTTTTTTTTTTTTTTT NUMDFT      TELAPSE      437.32 TCPU      319.83
 CYC  11 ETOT(AU) -5.970024602900E+03 DETOT -1.16E-05 tst  6.67E-08 PX  8.71E-04
 TTTTTTTTTTTTTTTTTTTTTTTTTTTTTT DIIS        TELAPSE      437.88 TCPU      320.38
 DIIS TEST: 0.14428E-04 AT SCF   CYCLE  11 - DIIS ACTIVE - HISTORY:    11 CYCLES
 TTTTTTTTTTTTTTTTTTTTTTTTTTTTTT FDIK        TELAPSE      440.97 TCPU      323.30
 INSULATING STATE
 TOP OF VALENCE BANDS -    BAND    196; K    1; EIG -2.3736656E-01 AU
 BOTTOM OF VIRTUAL BANDS - BAND    197; K    6; EIG -1.2029624E-01 AU
 INDIRECT ENERGY BAND GAP:   3.1856 eV
 BOTTOM OF VIRTUAL BANDS - BAND    197; K    1; EIG -1.1597207E-01 AU
 TTTTTTTTTTTTTTTTTTTTTTTTTTTTTT PDIG        TELAPSE      441.30 TCPU      323.63
 TOTAL ATOMIC CHARGES:
   1.2169668   1.2169668   1.2169668   1.2169668   1.0164211   1.0164211
   1.0164211   1.0164211   1.1561619   1.1561619   1.1561619   1.1561619
   6.0838977   6.0838977   6.0838977   6.0838977   5.8176449   5.8176449
   5.8176449   5.8176449   5.6629689   5.6629689   5.6629689   5.6629689
   5.9055449   5.9055449   5.9055449   5.9055449   6.0176016   6.0176016
   6.0176016   6.0176016   6.0276010   6.0276010   6.0276010   6.0276010
   7.1587262   7.1587262   7.1587262   7.1587262   7.0687772   7.0687772
   7.0687772   7.0687772   7.1493332   7.1493332   7.1493332   7.1493332
   7.0545188   7.0545188   7.0545188   7.0545188   7.0546865   7.0546865
   7.0546865   7.0546865   9.1608799   9.1608799   9.1608799   9.1608799
  28.8928580  28.9002199
 TTTTTTTTTTTTTTTTTTTTTTTTTTTTTT MOQGAD      TELAPSE      441.32 TCPU      323.64
 TTTTTTTTTTTTTTTTTTTTTTTTTTTTTT SHELLXN     TELAPSE      461.65 TCPU      341.49
 TTTTTTTTTTTTTTTTTTTTTTTTTTTTTT MONMO3      TELAPSE      465.38 TCPU      345.21
 NUMERICALLY INTEGRATED DENSITY    392.0000588603
 TTTTTTTTTTTTTTTTTTTTTTTTTTTTTT NUMDFT      TELAPSE      466.77 TCPU      346.59
 CYC  12 ETOT(AU) -5.970024604971E+03 DETOT -2.07E-06 tst  1.98E-08 PX  3.58E-04
 TTTTTTTTTTTTTTTTTTTTTTTTTTTTTT DIIS        TELAPSE      466.94 TCPU      346.76
 DIIS TEST: 0.32115E-05 AT SCF   CYCLE  12 - DIIS ACTIVE - HISTORY:    12 CYCLES
 TTTTTTTTTTTTTTTTTTTTTTTTTTTTTT FDIK        TELAPSE      474.11 TCPU      349.51
 INSULATING STATE
 TOP OF VALENCE BANDS -    BAND    196; K    1; EIG -2.3738612E-01 AU
 BOTTOM OF VIRTUAL BANDS - BAND    197; K    6; EIG -1.2030761E-01 AU
 INDIRECT ENERGY BAND GAP:   3.1859 eV
 BOTTOM OF VIRTUAL BANDS - BAND    197; K    1; EIG -1.1598485E-01 AU
 TTTTTTTTTTTTTTTTTTTTTTTTTTTTTT PDIG        TELAPSE      474.44 TCPU      349.84
 TOTAL ATOMIC CHARGES:
   1.2169255   1.2169255   1.2169255   1.2169255   1.0164180   1.0164180
   1.0164180   1.0164180   1.1561468   1.1561468   1.1561468   1.1561468
   6.0835199   6.0835199   6.0835199   6.0835199   5.8176523   5.8176523
   5.8176523   5.8176523   5.6630141   5.6630141   5.6630141   5.6630141
   5.9056556   5.9056556   5.9056556   5.9056556   6.0178838   6.0178838
   6.0178838   6.0178838   6.0275394   6.0275394   6.0275394   6.0275394
   7.1590399   7.1590399   7.1590399   7.1590399   7.0684872   7.0684872
   7.0684872   7.0684872   7.1499037   7.1499037   7.1499037   7.1499037
   7.0539784   7.0539784   7.0539784   7.0539784   7.0546760   7.0546760
   7.0546760   7.0546760   9.1609362   9.1609362   9.1609362   9.1609362
  28.8928148  28.9000789
 TTTTTTTTTTTTTTTTTTTTTTTTTTTTTT MOQGAD      TELAPSE      474.45 TCPU      349.85
 TTTTTTTTTTTTTTTTTTTTTTTTTTTTTT SHELLXN     TELAPSE      494.57 TCPU      367.67
 TTTTTTTTTTTTTTTTTTTTTTTTTTTTTT MONMO3      TELAPSE      498.30 TCPU      371.39
 NUMERICALLY INTEGRATED DENSITY    392.0000588433
 TTTTTTTTTTTTTTTTTTTTTTTTTTTTTT NUMDFT      TELAPSE      499.67 TCPU      372.76
 CYC  13 ETOT(AU) -5.970024605464E+03 DETOT -4.93E-07 tst  5.14E-09 PX  1.51E-04
 TTTTTTTTTTTTTTTTTTTTTTTTTTTTTT DIIS        TELAPSE      499.80 TCPU      372.88
 DIIS TEST: 0.88559E-06 AT SCF   CYCLE  13 - DIIS ACTIVE - HISTORY:    13 CYCLES
 TTTTTTTTTTTTTTTTTTTTTTTTTTTTTT FDIK        TELAPSE      505.25 TCPU      376.08
 INSULATING STATE
 TOP OF VALENCE BANDS -    BAND    196; K    1; EIG -2.3738496E-01 AU
 BOTTOM OF VIRTUAL BANDS - BAND    197; K    6; EIG -1.2030413E-01 AU
 INDIRECT ENERGY BAND GAP:   3.1859 eV
 BOTTOM OF VIRTUAL BANDS - BAND    197; K    1; EIG -1.1598109E-01 AU
 TTTTTTTTTTTTTTTTTTTTTTTTTTTTTT PDIG        TELAPSE      505.59 TCPU      376.41
 TOTAL ATOMIC CHARGES:
   1.2169453   1.2169453   1.2169453   1.2169453   1.0163899   1.0163899
   1.0163899   1.0163899   1.1561297   1.1561297   1.1561297   1.1561297
   6.0837046   6.0837046   6.0837046   6.0837046   5.8175534   5.8175534
   5.8175534   5.8175534   5.6629684   5.6629684   5.6629684   5.6629684
   5.9056987   5.9056987   5.9056987   5.9056987   6.0176710   6.0176710
   6.0176710   6.0176710   6.0277395   6.0277395   6.0277395   6.0277395
   7.1589452   7.1589452   7.1589452   7.1589452   7.0686417   7.0686417
   7.0686417   7.0686417   7.1497252   7.1497252   7.1497252   7.1497252
   7.0540786   7.0540786   7.0540786   7.0540786   7.0546428   7.0546428
   7.0546428   7.0546428   9.1609203   9.1609203   9.1609203   9.1609203
  28.8928706  28.9001127
 TTTTTTTTTTTTTTTTTTTTTTTTTTTTTT MOQGAD      TELAPSE      505.60 TCPU      376.42
 TTTTTTTTTTTTTTTTTTTTTTTTTTTTTT SHELLXN     TELAPSE      523.34 TCPU      394.10
 +++ ENERGIES IN A.U. +++
 ::: EXT EL-POLE                                  -9.5733121754415E+03
 ::: EXT EL-SPHEROPOLE                             6.0710611043765E+01
 ::: BIELET ZONE E-E                               1.1718270731431E+04
[...]
 DIIS TEST: 0.20097E-04 AT CPHF  CYCLE  11 - DIIS ACTIVE - HISTORY:    11 CYCLES
 CYCLE  11   ALPHA  856.553270  EPSILON    3.296714  DELTA    1.5904E-04
 TTTTTTTTTTTTTTTTTTTTTTTTTTTTTT CP_SC       TELAPSE    64221.21 TCPU    63275.75

 *******************************************************************************

 ELECTRIC FIELD APPLIED ALONG CARTESIAN DIRECTION Z

 *******************************************************************************
 THE NUMBER OF SYMMETRY OPERATORS HAS BEEN REDUCED FROM  4 TO  2

 NEW GRID IN RECIPROCAL SPACE
 *******************************************************************************
 POINTS IN THE IBZ                  10 SHRINKING FACTORS               3  3  3
 *******************************************************************************
 *** K POINTS COORDINATES (OBLIQUE COORDINATES IN UNITS OF SHRINK FAC. )
   1-R(  0  0  0)   2-C(  1  0  0)   3-C(  2  0  1)   4-C(  1  1  0)
   5-C(  1  0  1)   6-C(  2  1  0)   7-C(  0  0  2)   8-C(  2  1  1)
   9-C(  2  1  2)  10-C(  2  2  1)

 GCALCO - MAX INDICES DIRECT LATTICE VECTOR    14    14    16
 NO.OF VECTORS CREATED 6999 STARS  485 RMAX   199.41745 BOHR
 TTTTTTTTTTTTTTTTTTTTTTTTTTTTTT gordsh1     TELAPSE    64221.22 TCPU    63275.75

 MATRIX SIZE: P(G) 1835836, F(G)  918962, P(G) IRR  463264, F(G) IRR  463264
 MAX G-VECTOR INDEX FOR 1- AND 2-ELECTRON INTEGRALS  59

 TTTTTTTTTTTTTTTTTTTTTTTTTTTTTT INPUT       TELAPSE    64221.24 TCPU    63275.77
 TTTTTTTTTTTTTTTTTTTTTTTTTTTTTT SYMM        TELAPSE    64221.24 TCPU    63275.77

 ***** NEW REFERENCE GEOMETRY *****
 TTTTTTTTTTTTTTTTTTTTTTTTTTTTTT INT_SCREEN  TELAPSE    64221.25 TCPU    63275.78
 INFORMATION **** EXCBUF **** EXCH. BIPO BUFFER: WORDS USED =           0

 DFT PARAMETERS

     ATOM       ELECTRONS   NET CHARGE   R(ANGSTROM)
   1   1  H       1.0000      0.0000     1.11000000
  13   6  C       6.0000      0.0000     0.77000000
  37   7  N       7.0000      0.0000     0.74000000
  57   9  F       9.0000      0.0000     0.72000000
  61  30  ZN     30.0000      0.0000     1.37000000

 SIZE OF GRID=     918100
 TTTTTTTTTTTTTTTTTTTTTTTTTTTTTT MAKE_GRID2  TELAPSE    64221.97 TCPU    63276.50
 BECKE WEIGHT FUNCTION
 RADSAFE =     2.00
 TOLERANCES - DENSITY:10**- 6; POTENTIAL:10**- 9; GRID WGT:10**-14

 RADIAL INTEGRATION  - INTERVALS (POINTS,UPPER LIMIT):            1( 75,  4.0*R)

 ANGULAR INTEGRATION - INTERVALS (ACCURACY LEVEL [N. POINTS] UPPER LIMIT):
  1(  4[  86]   0.2)  2(  8[ 194]   0.5)  3( 12[ 350]   0.9)  4( 16[ 974]   3.5)
  5( 12[ 350]9999.0)
 TTTTTTTTTTTTTTTTTTTTTTTTTTTTTT INT_CALC    TELAPSE    64222.00 TCPU    63276.52
 CYCLE   0   ALPHA  540.334397  EPSILON    2.448822  DELTA    5.4033E+02
 TTTTTTTTTTTTTTTTTTTTTTTTTTTTTT MOQGAD      TELAPSE    64391.01 TCPU    63443.55
 TTTTTTTTTTTTTTTTTTTTTTTTTTTTTT CP_MONMON   TELAPSE    64394.63 TCPU    63447.15
 DIIS TEST: 0.64106E+02 AT CPHF  CYCLE   1 - MIX    0 %
 CYCLE   1   ALPHA  279.289355  EPSILON    1.748871  DELTA   -2.6105E+02
 TTTTTTTTTTTTTTTTTTTTTTTTTTTTTT MOQGAD      TELAPSE    64564.46 TCPU    63613.56
 TTTTTTTTTTTTTTTTTTTTTTTTTTTTTT CP_MONMON   TELAPSE    64568.07 TCPU    63617.15
 DIIS TEST: 0.38270E+03 AT CPHF  CYCLE   2 - DIIS ACTIVE - HISTORY:     2 CYCLES
 CYCLE   2   ALPHA  398.962519  EPSILON    2.069756  DELTA    1.1967E+02
 TTTTTTTTTTTTTTTTTTTTTTTTTTTTTT MOQGAD      TELAPSE    64737.07 TCPU    63783.52
 TTTTTTTTTTTTTTTTTTTTTTTTTTTTTT CP_MONMON   TELAPSE    64740.70 TCPU    63787.12
 DIIS TEST: 0.21321E+02 AT CPHF  CYCLE   3 - DIIS ACTIVE - HISTORY:     3 CYCLES
 CYCLE   3   ALPHA  423.351161  EPSILON    2.135150  DELTA    2.4389E+01
 TTTTTTTTTTTTTTTTTTTTTTTTTTTTTT MOQGAD      TELAPSE    64911.13 TCPU    63954.73
 TTTTTTTTTTTTTTTTTTTTTTTTTTTTTT CP_MONMON   TELAPSE    64914.72 TCPU    63958.31
 DIIS TEST: 0.78108E+02 AT CPHF  CYCLE   4 - DIIS ACTIVE - HISTORY:     4 CYCLES
 CYCLE   4   ALPHA  423.789396  EPSILON    2.136325  DELTA    4.3823E-01
 TTTTTTTTTTTTTTTTTTTTTTTTTTTTTT MOQGAD      TELAPSE    65082.82 TCPU    64125.02
 TTTTTTTTTTTTTTTTTTTTTTTTTTTTTT CP_MONMON   TELAPSE    65086.41 TCPU    64128.60
 DIIS TEST: 0.14100E+02 AT CPHF  CYCLE   5 - DIIS ACTIVE - HISTORY:     5 CYCLES
 CYCLE   5   ALPHA  424.947315  EPSILON    2.139430  DELTA    1.1579E+00
 TTTTTTTTTTTTTTTTTTTTTTTTTTTTTT MOQGAD      TELAPSE    65256.32 TCPU    64294.90
 TTTTTTTTTTTTTTTTTTTTTTTTTTTTTT CP_MONMON   TELAPSE    65259.92 TCPU    64298.48
 DIIS TEST: 0.14756E+00 AT CPHF  CYCLE   6 - DIIS ACTIVE - HISTORY:     6 CYCLES
 CYCLE   6   ALPHA  425.264781  EPSILON    2.140281  DELTA    3.1747E-01
 TTTTTTTTTTTTTTTTTTTTTTTTTTTTTT MOQGAD      TELAPSE    65427.64 TCPU    64464.88
 TTTTTTTTTTTTTTTTTTTTTTTTTTTTTT CP_MONMON   TELAPSE    65431.22 TCPU    64468.45
 DIIS TEST: 0.83501E-01 AT CPHF  CYCLE   7 - DIIS ACTIVE - HISTORY:     7 CYCLES
 CYCLE   7   ALPHA  425.394170  EPSILON    2.140628  DELTA    1.2939E-01
 TTTTTTTTTTTTTTTTTTTTTTTTTTTTTT MOQGAD      TELAPSE    65601.41 TCPU    64635.15
 TTTTTTTTTTTTTTTTTTTTTTTTTTTTTT CP_MONMON   TELAPSE    65605.01 TCPU    64638.73
 DIIS TEST: 0.14135E+00 AT CPHF  CYCLE   8 - DIIS ACTIVE - HISTORY:     8 CYCLES
 CYCLE   8   ALPHA  425.393777  EPSILON    2.140627  DELTA   -3.9381E-04
 TTTTTTTTTTTTTTTTTTTTTTTTTTTTTT CP_SC       TELAPSE    65620.06 TCPU    64649.91

 *******************************************************************************

 POLARIZABILITY (ALPHA), DIELECTRIC (EPSILON) AND FIRST-ORDER ELECTRIC
 SUSCEPTIBILITY (CHI(1)) TENSORS (INDEPENDENT COMPONENTS)

  FR.(eV) COMP.   ALPHA(Re,Im)           EPSILON(Re,Im)                CHI(1)
  1.435   XX     856.5533       0.0000       3.2967       0.0000       2.2967
  1.435   ZZ     425.3938       0.0000       2.1406       0.0000       1.1406

 DIELECTRIC TENSOR

 TENSOR IN PRINCIPAL AXES SYSTEM
 AA  3.296714E+00 BB  3.296714E+00 CC  2.140627E+00

 REFRACTIVE INDICES 
 AA  1.463088E+00 BB  1.815686E+00 CC  1.815686E+00

 OPTICALLY ANISOTROPIC - UNIAXIAL CRYSTAL

 BIREFRINGENCE =  0.3526 (NEGATIVE) - OBLATE OPTICAL ELLIPSOID

 EPSILON=N**2=1+CHI(1)=1+ALPHA*4*PI/V,   4*PI/V=   0.00268 BOHR**(-3)
 ALPHA IN BOHR**3; EPSILON AND CHI(1) ARE DIMENSIONLESS.
 *******************************************************************************

 DYNAMIC FIELD: RUN 10/ 10 - RADIATION WAVELENGTH: 1064.0000 NM

 *******************************************************************************

 ELECTRIC FIELD APPLIED ALONG CARTESIAN DIRECTION X

 *******************************************************************************
 THE NUMBER OF SYMMETRY OPERATORS HAS BEEN REDUCED FROM  4 TO  1

 NEW GRID IN RECIPROCAL SPACE
 *******************************************************************************
 POINTS IN THE IBZ                  14 SHRINKING FACTORS               3  3  3
 *******************************************************************************
 *** K POINTS COORDINATES (OBLIQUE COORDINATES IN UNITS OF SHRINK FAC. )
   1-R(  0  0  0)   2-C(  1  0  0)   3-C(  0  1  2)   4-C(  2  0  1)
   5-C(  0  2  0)   6-C(  1  1  0)   7-C(  1  1  1)   8-C(  1  0  1)
   9-C(  0  1  1)  10-C(  2  1  0)  11-C(  0  0  2)  12-C(  2  1  1)
  13-C(  2  1  2)  14-C(  2  2  1)

 GCALCO - MAX INDICES DIRECT LATTICE VECTOR    14    14    16
 NO.OF VECTORS CREATED 6999 STARS  485 RMAX   199.41745 BOHR
 TTTTTTTTTTTTTTTTTTTTTTTTTTTTTT gordsh1     TELAPSE    65620.07 TCPU    64649.91

 MATRIX SIZE: P(G) 1835836, F(G)  918962, P(G) IRR  921232, F(G) IRR  921232
 MAX G-VECTOR INDEX FOR 1- AND 2-ELECTRON INTEGRALS  59

 TTTTTTTTTTTTTTTTTTTTTTTTTTTTTT INPUT       TELAPSE    65620.13 TCPU    64649.98
 TTTTTTTTTTTTTTTTTTTTTTTTTTTTTT SYMM        TELAPSE    65620.13 TCPU    64649.98

 ***** NEW REFERENCE GEOMETRY *****
 TTTTTTTTTTTTTTTTTTTTTTTTTTTTTT INT_SCREEN  TELAPSE    65620.14 TCPU    64649.98
 INFORMATION **** EXCBUF **** EXCH. BIPO BUFFER: WORDS USED =           0

 DFT PARAMETERS

     ATOM       ELECTRONS   NET CHARGE   R(ANGSTROM)
   1   1  H       1.0000      0.0000     1.11000000
  13   6  C       6.0000      0.0000     0.77000000
  37   7  N       7.0000      0.0000     0.74000000
  57   9  F       9.0000      0.0000     0.72000000
  61  30  ZN     30.0000      0.0000     1.37000000

 SIZE OF GRID=    1835974
 TTTTTTTTTTTTTTTTTTTTTTTTTTTTTT MAKE_GRID2  TELAPSE    65621.25 TCPU    64651.09
 BECKE WEIGHT FUNCTION
 RADSAFE =     2.00
 TOLERANCES - DENSITY:10**- 6; POTENTIAL:10**- 9; GRID WGT:10**-14

 RADIAL INTEGRATION  - INTERVALS (POINTS,UPPER LIMIT):            1( 75,  4.0*R)

 ANGULAR INTEGRATION - INTERVALS (ACCURACY LEVEL [N. POINTS] UPPER LIMIT):
  1(  4[  86]   0.2)  2(  8[ 194]   0.5)  3( 12[ 350]   0.9)  4( 16[ 974]   3.5)
  5( 12[ 350]9999.0)
 TTTTTTTTTTTTTTTTTTTTTTTTTTTTTT INT_CALC    TELAPSE    65621.29 TCPU    64651.13
 CYCLE   0   ALPHA 1203.720884  EPSILON    4.227590  DELTA    1.2037E+03
 TTTTTTTTTTTTTTTTTTTTTTTTTTTTTT MOQGAD      TELAPSE    65942.69 TCPU    64970.04
 TTTTTTTTTTTTTTTTTTTTTTTTTTTTTT CP_MONMON   TELAPSE    65949.27 TCPU    64976.58
 DIIS TEST: 0.33397E+03 AT CPHF  CYCLE   1 - MIX    0 %
 CYCLE   1   ALPHA   59.288514  EPSILON    1.158973  DELTA   -1.1444E+03
 TTTTTTTTTTTTTTTTTTTTTTTTTTTTTT MOQGAD      TELAPSE    66275.13 TCPU    65297.06
 TTTTTTTTTTTTTTTTTTTTTTTTTTTTTT CP_MONMON   TELAPSE    66281.68 TCPU    65303.59
 DIIS TEST: 0.26626E+04 AT CPHF  CYCLE   2 - DIIS ACTIVE - HISTORY:     2 CYCLES
 CYCLE   2   ALPHA  787.932453  EPSILON    3.112718  DELTA    7.2864E+02
 TTTTTTTTTTTTTTTTTTTTTTTTTTTTTT MOQGAD      TELAPSE    66602.89 TCPU    65622.17
 TTTTTTTTTTTTTTTTTTTTTTTTTTTTTT CP_MONMON   TELAPSE    66609.45 TCPU    65628.71
 DIIS TEST: 0.49800E+02 AT CPHF  CYCLE   3 - DIIS ACTIVE - HISTORY:     3 CYCLES
 CYCLE   3   ALPHA  825.558426  EPSILON    3.213606  DELTA    3.7626E+01
 TTTTTTTTTTTTTTTTTTTTTTTTTTTTTT MOQGAD      TELAPSE    66930.69 TCPU    65947.39
 TTTTTTTTTTTTTTTTTTTTTTTTTTTTTT CP_MONMON   TELAPSE    66937.24 TCPU    65953.92
 DIIS TEST: 0.30243E+01 AT CPHF  CYCLE   4 - DIIS ACTIVE - HISTORY:     4 CYCLES
 CYCLE   4   ALPHA  838.592867  EPSILON    3.248556  DELTA    1.3034E+01
 TTTTTTTTTTTTTTTTTTTTTTTTTTTTTT MOQGAD      TELAPSE    67259.51 TCPU    66271.32
 TTTTTTTTTTTTTTTTTTTTTTTTTTTTTT CP_MONMON   TELAPSE    67266.07 TCPU    66277.86
 DIIS TEST: 0.12515E+01 AT CPHF  CYCLE   5 - DIIS ACTIVE - HISTORY:     5 CYCLES
 CYCLE   5   ALPHA  842.524369  EPSILON    3.259098  DELTA    3.9315E+00
 TTTTTTTTTTTTTTTTTTTTTTTTTTTTTT MOQGAD      TELAPSE    67587.58 TCPU    66595.77
 TTTTTTTTTTTTTTTTTTTTTTTTTTTTTT CP_MONMON   TELAPSE    67594.13 TCPU    66602.30
 DIIS TEST: 0.46205E-01 AT CPHF  CYCLE   6 - DIIS ACTIVE - HISTORY:     6 CYCLES
 CYCLE   6   ALPHA  843.710532  EPSILON    3.262278  DELTA    1.1862E+00
 TTTTTTTTTTTTTTTTTTTTTTTTTTTTTT MOQGAD      TELAPSE    67914.70 TCPU    66919.82
 TTTTTTTTTTTTTTTTTTTTTTTTTTTTTT CP_MONMON   TELAPSE    67921.25 TCPU    66926.35
 DIIS TEST: 0.84929E-02 AT CPHF  CYCLE   7 - DIIS ACTIVE - HISTORY:     7 CYCLES
 CYCLE   7   ALPHA  843.850209  EPSILON    3.262653  DELTA    1.3968E-01
 TTTTTTTTTTTTTTTTTTTTTTTTTTTTTT MOQGAD      TELAPSE    68242.99 TCPU    67246.45
 TTTTTTTTTTTTTTTTTTTTTTTTTTTTTT CP_MONMON   TELAPSE    68249.58 TCPU    67253.00
 DIIS TEST: 0.63397E-03 AT CPHF  CYCLE   8 - DIIS ACTIVE - HISTORY:     8 CYCLES
 CYCLE   8   ALPHA  843.886952  EPSILON    3.262751  DELTA    3.6743E-02
 TTTTTTTTTTTTTTTTTTTTTTTTTTTTTT MOQGAD      TELAPSE    68570.29 TCPU    67570.80
 TTTTTTTTTTTTTTTTTTTTTTTTTTTTTT CP_MONMON   TELAPSE    68576.84 TCPU    67577.33
 DIIS TEST: 0.89239E-04 AT CPHF  CYCLE   9 - DIIS ACTIVE - HISTORY:     9 CYCLES
 CYCLE   9   ALPHA  843.862482  EPSILON    3.262686  DELTA   -2.4470E-02
 TTTTTTTTTTTTTTTTTTTTTTTTTTTTTT MOQGAD      TELAPSE    68898.33 TCPU    67895.50
 TTTTTTTTTTTTTTTTTTTTTTTTTTTTTT CP_MONMON   TELAPSE    68904.88 TCPU    67902.02
 DIIS TEST: 0.37916E-04 AT CPHF  CYCLE  10 - DIIS ACTIVE - HISTORY:    10 CYCLES
 CYCLE  10   ALPHA  843.858045  EPSILON    3.262674  DELTA   -4.4377E-03
 TTTTTTTTTTTTTTTTTTTTTTTTTTTTTT MOQGAD      TELAPSE    69226.20 TCPU    68220.62
 TTTTTTTTTTTTTTTTTTTTTTTTTTTTTT CP_MONMON   TELAPSE    69232.76 TCPU    68227.15
 DIIS TEST: 0.11964E-03 AT CPHF  CYCLE  11 - DIIS ACTIVE - HISTORY:    11 CYCLES
 CYCLE  11   ALPHA  843.853019  EPSILON    3.262660  DELTA   -5.0259E-03
 TTTTTTTTTTTTTTTTTTTTTTTTTTTTTT MOQGAD      TELAPSE    69553.82 TCPU    68545.69
 TTTTTTTTTTTTTTTTTTTTTTTTTTTTTT CP_MONMON   TELAPSE    69560.38 TCPU    68552.22
 DIIS TEST: 0.42019E-05 AT CPHF  CYCLE  12 - DIIS ACTIVE - HISTORY:    12 CYCLES
 CYCLE  12   ALPHA  843.846291  EPSILON    3.262642  DELTA   -6.7278E-03
 TTTTTTTTTTTTTTTTTTTTTTTTTTTTTT MOQGAD      TELAPSE    69882.24 TCPU    68871.39
 TTTTTTTTTTTTTTTTTTTTTTTTTTTTTT CP_MONMON   TELAPSE    69888.80 TCPU    68877.92
 DIIS TEST: 0.36299E-06 AT CPHF  CYCLE  13 - DIIS ACTIVE - HISTORY:    13 CYCLES
 CYCLE  13   ALPHA  843.845091  EPSILON    3.262639  DELTA   -1.2003E-03
 TTTTTTTTTTTTTTTTTTTTTTTTTTTTTT MOQGAD      TELAPSE    70209.87 TCPU    69196.21
 TTTTTTTTTTTTTTTTTTTTTTTTTTTTTT CP_MONMON   TELAPSE    70216.43 TCPU    69202.74
 DIIS TEST: 0.27046E-07 AT CPHF  CYCLE  14 - DIIS ACTIVE - HISTORY:    14 CYCLES
 CYCLE  14   ALPHA  843.844445  EPSILON    3.262637  DELTA   -6.4543E-04
 TTTTTTTTTTTTTTTTTTTTTTTTTTTTTT CP_SC       TELAPSE    70226.12 TCPU    69209.62

 *******************************************************************************

 ELECTRIC FIELD APPLIED ALONG CARTESIAN DIRECTION Z

 *******************************************************************************
 THE NUMBER OF SYMMETRY OPERATORS HAS BEEN REDUCED FROM  4 TO  2

 NEW GRID IN RECIPROCAL SPACE
 *******************************************************************************
 POINTS IN THE IBZ                  10 SHRINKING FACTORS               3  3  3
 *******************************************************************************
 *** K POINTS COORDINATES (OBLIQUE COORDINATES IN UNITS OF SHRINK FAC. )
   1-R(  0  0  0)   2-C(  1  0  0)   3-C(  2  0  1)   4-C(  1  1  0)
   5-C(  1  0  1)   6-C(  2  1  0)   7-C(  0  0  2)   8-C(  2  1  1)
   9-C(  2  1  2)  10-C(  2  2  1)

 GCALCO - MAX INDICES DIRECT LATTICE VECTOR    14    14    16
 NO.OF VECTORS CREATED 6999 STARS  485 RMAX   199.41745 BOHR
 TTTTTTTTTTTTTTTTTTTTTTTTTTTTTT gordsh1     TELAPSE    70226.12 TCPU    69209.63

 MATRIX SIZE: P(G) 1835836, F(G)  918962, P(G) IRR  463264, F(G) IRR  463264
 MAX G-VECTOR INDEX FOR 1- AND 2-ELECTRON INTEGRALS  59

 TTTTTTTTTTTTTTTTTTTTTTTTTTTTTT INPUT       TELAPSE    70226.15 TCPU    69209.65
 TTTTTTTTTTTTTTTTTTTTTTTTTTTTTT SYMM        TELAPSE    70226.15 TCPU    69209.65

 ***** NEW REFERENCE GEOMETRY *****
 TTTTTTTTTTTTTTTTTTTTTTTTTTTTTT INT_SCREEN  TELAPSE    70226.15 TCPU    69209.65
 INFORMATION **** EXCBUF **** EXCH. BIPO BUFFER: WORDS USED =           0

 DFT PARAMETERS

     ATOM       ELECTRONS   NET CHARGE   R(ANGSTROM)
   1   1  H       1.0000      0.0000     1.11000000
  13   6  C       6.0000      0.0000     0.77000000
  37   7  N       7.0000      0.0000     0.74000000
  57   9  F       9.0000      0.0000     0.72000000
  61  30  ZN     30.0000      0.0000     1.37000000

 SIZE OF GRID=     918100
 TTTTTTTTTTTTTTTTTTTTTTTTTTTTTT MAKE_GRID2  TELAPSE    70226.88 TCPU    69210.38
 BECKE WEIGHT FUNCTION
 RADSAFE =     2.00
 TOLERANCES - DENSITY:10**- 6; POTENTIAL:10**- 9; GRID WGT:10**-14

 RADIAL INTEGRATION  - INTERVALS (POINTS,UPPER LIMIT):            1( 75,  4.0*R)

 ANGULAR INTEGRATION - INTERVALS (ACCURACY LEVEL [N. POINTS] UPPER LIMIT):
  1(  4[  86]   0.2)  2(  8[ 194]   0.5)  3( 12[ 350]   0.9)  4( 16[ 974]   3.5)
  5( 12[ 350]9999.0)
 TTTTTTTTTTTTTTTTTTTTTTTTTTTTTT INT_CALC    TELAPSE    70226.91 TCPU    69210.41
 CYCLE   0   ALPHA  535.136709  EPSILON    2.434886  DELTA    5.3514E+02
 TTTTTTTTTTTTTTTTTTTTTTTTTTTTTT MOQGAD      TELAPSE    70417.48 TCPU    69399.16
 TTTTTTTTTTTTTTTTTTTTTTTTTTTTTT CP_MONMON   TELAPSE    70421.08 TCPU    69402.75
 DIIS TEST: 0.62292E+02 AT CPHF  CYCLE   1 - MIX    0 %
 CYCLE   1   ALPHA  280.271395  EPSILON    1.751504  DELTA   -2.5487E+02
 TTTTTTTTTTTTTTTTTTTTTTTTTTTTTT MOQGAD      TELAPSE    70611.84 TCPU    69592.04
 TTTTTTTTTTTTTTTTTTTTTTTTTTTTTT CP_MONMON   TELAPSE    70615.43 TCPU    69595.62
 DIIS TEST: 0.35686E+03 AT CPHF  CYCLE   2 - DIIS ACTIVE - HISTORY:     2 CYCLES
 CYCLE   2   ALPHA  396.332444  EPSILON    2.062704  DELTA    1.1606E+02
 TTTTTTTTTTTTTTTTTTTTTTTTTTTTTT MOQGAD      TELAPSE    70807.98 TCPU    69784.69
 TTTTTTTTTTTTTTTTTTTTTTTTTTTTTT CP_MONMON   TELAPSE    70811.56 TCPU    69788.25
 DIIS TEST: 0.20387E+02 AT CPHF  CYCLE   3 - DIIS ACTIVE - HISTORY:     3 CYCLES
 CYCLE   3   ALPHA  420.164943  EPSILON    2.126607  DELTA    2.3832E+01
 TTTTTTTTTTTTTTTTTTTTTTTTTTTTTT MOQGAD      TELAPSE    71004.43 TCPU    69978.15
 TTTTTTTTTTTTTTTTTTTTTTTTTTTTTT CP_MONMON   TELAPSE    71008.01 TCPU    69981.72
 DIIS TEST: 0.54012E+02 AT CPHF  CYCLE   4 - DIIS ACTIVE - HISTORY:     4 CYCLES
 CYCLE   4   ALPHA  420.376182  EPSILON    2.127173  DELTA    2.1124E-01
 TTTTTTTTTTTTTTTTTTTTTTTTTTTTTT MOQGAD      TELAPSE    71202.41 TCPU    70174.68
 TTTTTTTTTTTTTTTTTTTTTTTTTTTTTT CP_MONMON   TELAPSE    71205.99 TCPU    70178.24
 DIIS TEST: 0.15784E+02 AT CPHF  CYCLE   5 - DIIS ACTIVE - HISTORY:     5 CYCLES
 CYCLE   5   ALPHA  421.461547  EPSILON    2.130083  DELTA    1.0854E+00
 TTTTTTTTTTTTTTTTTTTTTTTTTTTTTT MOQGAD      TELAPSE    71399.43 TCPU    70367.99
 TTTTTTTTTTTTTTTTTTTTTTTTTTTTTT CP_MONMON   TELAPSE    71403.01 TCPU    70371.56
 DIIS TEST: 0.12187E+00 AT CPHF  CYCLE   6 - DIIS ACTIVE - HISTORY:     6 CYCLES
 CYCLE   6   ALPHA  421.768274  EPSILON    2.130906  DELTA    3.0673E-01
 TTTTTTTTTTTTTTTTTTTTTTTTTTTTTT MOQGAD      TELAPSE    71595.52 TCPU    70560.75
 TTTTTTTTTTTTTTTTTTTTTTTTTTTTTT CP_MONMON   TELAPSE    71599.12 TCPU    70564.33
 DIIS TEST: 0.60545E-01 AT CPHF  CYCLE   7 - DIIS ACTIVE - HISTORY:     7 CYCLES
 CYCLE   7   ALPHA  421.892727  EPSILON    2.131240  DELTA    1.2445E-01
 TTTTTTTTTTTTTTTTTTTTTTTTTTTTTT MOQGAD      TELAPSE    71793.59 TCPU    70753.50
 TTTTTTTTTTTTTTTTTTTTTTTTTTTTTT CP_MONMON   TELAPSE    71797.17 TCPU    70757.06
 DIIS TEST: 0.95602E-01 AT CPHF  CYCLE   8 - DIIS ACTIVE - HISTORY:     8 CYCLES
 CYCLE   8   ALPHA  421.892623  EPSILON    2.131239  DELTA   -1.0400E-04
 TTTTTTTTTTTTTTTTTTTTTTTTTTTTTT CP_SC       TELAPSE    71805.06 TCPU    70763.60

 *******************************************************************************

 POLARIZABILITY (ALPHA), DIELECTRIC (EPSILON) AND FIRST-ORDER ELECTRIC
 SUSCEPTIBILITY (CHI(1)) TENSORS (INDEPENDENT COMPONENTS)

  FR.(eV) COMP.   ALPHA(Re,Im)           EPSILON(Re,Im)                CHI(1)
  1.165   XX     843.8444       0.0000       3.2626       0.0000       2.2626
  1.165   ZZ     421.8926       0.0000       2.1312       0.0000       1.1312

 DIELECTRIC TENSOR

 TENSOR IN PRINCIPAL AXES SYSTEM
 AA  3.262637E+00 BB  3.262637E+00 CC  2.131239E+00

 REFRACTIVE INDICES 
 AA  1.459876E+00 BB  1.806277E+00 CC  1.806277E+00

 OPTICALLY ANISOTROPIC - UNIAXIAL CRYSTAL

 BIREFRINGENCE =  0.3464 (NEGATIVE) - OBLATE OPTICAL ELLIPSOID

 EPSILON=N**2=1+CHI(1)=1+ALPHA*4*PI/V,   4*PI/V=   0.00268 BOHR**(-3)
 ALPHA IN BOHR**3; EPSILON AND CHI(1) ARE DIMENSIONLESS.
 *******************************************************************************


 GCALCO - MAX INDICES DIRECT LATTICE VECTOR    14    14    16
 NO.OF VECTORS CREATED 6999 STARS  485 RMAX   199.41745 BOHR

 CAPPA:IS1  3;IS2  3;IS3  3; K PTS MONK NET   6; SYMMOPS:K SPACE   8;G SPACE   4

 TTTTTTTTTTTTTTTTTTTTTTTTTTTTTT END         TELAPSE    71805.11 TCPU    70763.61
 EEEEEEEEEE TERMINATION  DATE 27 11 2023 TIME 23:22:28.3
NODE    0 CPU TIME =     70763.606
    TOTAL CPU TIME =   4538176.567
trying normal rsh (/usr/bin/rsh)
exec: No such file or directory
trying normal rsh (/usr/bin/rsh)
exec: No such file or directory
trying normal rsh (/usr/bin/rsh)
exec: No such file or directory
trying normal rsh (/usr/bin/rsh)
exec: No such file or directory
