Loading crystal17/1.0.2/intel/19.0
  Loading requirement: intel/19.0 ompi/4.0.1/intel/19.0
 PROCESS            8  OF           24  WORKING
 PROCESS           13  OF           24  WORKING
 PROCESS            4  OF           24  WORKING
 PROCESS            7  OF           24  WORKING
 PROCESS           11  OF           24  WORKING
 PROCESS           15  OF           24  WORKING
 PROCESS           19  OF           24  WORKING
 PROCESS            1  OF           24  WORKING
 PROCESS            2  OF           24  WORKING
 PROCESS           10  OF           24  WORKING
 PROCESS           14  OF           24  WORKING
 PROCESS            3  OF           24  WORKING
 PROCESS            5  OF           24  WORKING
 PROCESS            6  OF           24  WORKING
 PROCESS           23  OF           24  WORKING
 PROCESS            9  OF           24  WORKING
 PROCESS           12  OF           24  WORKING
 PROCESS           16  OF           24  WORKING
 PROCESS           17  OF           24  WORKING
 PROCESS           18  OF           24  WORKING
 PROCESS           21  OF           24  WORKING
 PROCESS           22  OF           24  WORKING
 PROCESS            0  OF           24  WORKING

         
 *******************************************************************************
 *                                                                             *
 *                               CRYSTAL17                                     *
 *                      public : 1.0.2 - March 1st, 2018                       *
 *                       HTTP://WWW.CRYSTAL.UNITO.IT                           *
 *                                                                             *
 *                              MAIN AUTHORS                                   *
 *                                                                             *
 *  R. DOVESI(1,11), V.R. SAUNDERS(2), C. ROETTI(1,11), R. ORLANDO(1,11),      *
 *  C.M. ZICOVICH-WILSON(1,3), F. PASCALE(4), B. CIVALLERI(1,11),              *
 *  K. DOLL(5), N.M. HARRISON(2,6), I.J. BUSH(7), Ph. D'ARCO(8),               *
 *  M. LLUNELL(9), M. CAUSA'(10), Y. NOEL(8), L. MASCHIO(1,11), A. ERBA(1,11)  *
 *  M. RE'RAT(14), S. CASASSA(1,11)                                            *
 *                                                                             *
 *        CONTRIBUTIONS TO THE CODE HAVE ALSO BEEN GIVEN BY                    *
 *                                                                             *
 *  M. FERRABONE(1,11), M. DE LA PIERRE(1,11), M. FERRERO(1,11),               *
 *  J. BAIMA(1,11), E. ALBANESE(1,11), M.F. PEINTINGER(12), R. BAST(13),       *
 *  B. KIRTMAN(15), V. LACIVITA(1,11), R. DEMICHELIS(1,16)                     *
 *  G. BRANDEBURG(17), S. SALUSTRO(1,11), G. SANSONE(1,11)                     *
 *  M.T. RUGGIERO(18)                                                          *
 *                                                                             *
 * (1) THEORETICAL CHEMISTRY GROUP - UNIVERSITA' DI TORINO - TORINO (ITALY)    *
 * (2) COMPUTATIONAL SCIENCE & ENGINEERING DEPARTMENT - STFC DARESBURY (UK)    *
 * (3) UNIVERSIDAD AUTONOMA DEL ESTADO DE MORELOS - CUERNAVACA (MEXICO)        *
 * (4) UNIVERSITE' DE LORRAINE - NANCY (FRANCE)                                *
 * (5) UNIVERSITAET STUTTGART- STUTTGART (GERMANY)                             *
 * (6) IMPERIAL COLLEGE - LONDON (UK)                                          *
 * (7) OXFORD E-RESEARCH CENTRE - OXFORD (UK)                                  *
 * (8) UPMC - SORBONNE UNIVERSITES - PARIS (FRANCE)                            *
 * (9) UNIVERSIDAD DE BARCELONA - BARCELONA (SPAIN)                            *
 *(10) UNIVERSITA' DI NAPOLI "FEDERICO II" - NAPOLI (ITALY)                    *
 *(11) NIS - NANOSTRUCTURED INTERFACES AND SURFACES - TORINO (ITALY)           *
 *(12) MPI FUER CHEMISCHE ENERGIEKONVERSION - MUELHEIM AN DER RUHR (GERMANY)   *
 *(13) UNIVERSITY OF TROMSO - TROMSO (NORWAY)                                  *
 *(14) UNIVERSITE' DE PAU ET DES PAYS DE L'ADOUR - PAU (FRANCE)                *
 *(15) UNIVERSITY OF CALIFORNIA SANTA BARBARA - SANTA BARBARA (USA)            *
 *(16) CURTIN UNIVERSITY - PERTH (AUSTRALIA)                                   *
 *(17) UNIVERSITY COLLEGE LONDON - LONDON (UK)                                 *
 *(18) CAMBRIDGE UNIVERSITY - CAMBRIDGE (UK)                                   *
 *                                                                             *
 *******************************************************************************
 EEEEEEEEEE STARTING  DATE 27 11 2023 TIME 04:02:46.6
 Z:\home\sanoj\Downloads\tmp_p\newconn.mol                                       

 CRYSTAL CALCULATION
 (INPUT ACCORDING TO THE INTERNATIONAL TABLES FOR X-RAY CRYSTALLOGRAPHY)
 CRYSTAL FAMILY                       :  TETRAGONAL  
 CRYSTAL CLASS  (GROTH - 1921)        :  TETRAGONAL DISPHENOIDAL              

 SPACE GROUP (NONCENTROSYMMETRIC)     :  I -4            

 LATTICE PARAMETERS  (ANGSTROMS AND DEGREES) - CONVENTIONAL CELL
        A           B           C        ALPHA        BETA       GAMMA
    10.05225    10.05225    13.75850    90.00000    90.00000    90.00000


 NUMBER OF IRREDUCIBLE ATOMS IN THE CONVENTIONAL CELL:   17

 INPUT COORDINATES

 ATOM AT. N.              COORDINATES
   1   1     5.356000000000E-02  7.601300000000E-01  3.498000000000E-01
   2   1     1.046600000000E-01  5.144400000000E-01  3.477400000000E-01
   3   1     3.417900000000E-01  4.391000000000E-01  3.732500000000E-01
   4   6     2.579100000000E-01  8.139300000000E-01  3.830600000000E-01
   5   6     2.462400000000E-01 -4.174000000000E-02  3.739400000000E-01
   6   6     1.543100000000E-01  7.237500000000E-01  3.640400000000E-01
   7   6     3.131500000000E-01  5.440600000000E-01  3.773400000000E-01
   8   6     3.818800000000E-01  7.568600000000E-01  4.044200000000E-01
   9   6     8.174700000000E-01  4.124300000000E-01  3.619300000000E-01
  10   7     3.299800000000E-01  3.602000000000E-02  3.218400000000E-01
  11   7     2.826800000000E-01  1.641000000000E-01  3.276000000000E-01
  12   7     1.501900000000E-01  3.599000000000E-02  4.119400000000E-01
  13   7     1.742000000000E-01  1.644200000000E-01  3.813200000000E-01
  14   7     4.119400000000E-01  6.298200000000E-01  4.001600000000E-01
  15   9     4.804000000000E-01  8.400300000000E-01  4.334300000000E-01
  16  30     0.000000000000E+00  5.000000000000E-01  7.500000000000E-01
  17  30     0.000000000000E+00  0.000000000000E+00  5.000000000000E-01

 *******************************************************************************

 << INFORMATION >>: FROM NOW ON, ALL COORDINATES REFER TO THE PRIMITIVE CELL

 *******************************************************************************

 LATTICE PARAMETERS  (ANGSTROMS AND DEGREES) - PRIMITIVE CELL
       A          B          C        ALPHA      BETA     GAMMA        VOLUME
    9.89181    9.89181    9.89181   118.92403 118.92403  91.87395    695.132231

 COORDINATES OF THE EQUIVALENT ATOMS (FRACTIONAL UNITS)

 N. ATOM EQUIV AT. N.          X                  Y                  Z

   1   1   1    1 H     1.09930000000E-01  4.03360000000E-01 -1.86310000000E-01
   2   1   2    1 H    -4.10330000000E-01  2.96240000000E-01  1.86310000000E-01
   3   1   3    1 H    -4.03360000000E-01  4.10330000000E-01 -2.93430000000E-01
   4   1   4    1 H    -2.96240000000E-01 -1.09930000000E-01  2.93430000000E-01

   5   2   1    1 H    -1.37820000000E-01  4.52400000000E-01 -3.80900000000E-01
   6   2   2    1 H    -1.66700000000E-01  2.43080000000E-01  3.80900000000E-01
   7   2   3    1 H    -4.52400000000E-01  1.66700000000E-01  4.09780000000E-01
   8   2   4    1 H    -2.43080000000E-01  1.37820000000E-01 -4.09780000000E-01

   9   3   1    1 H    -1.87650000000E-01 -2.84960000000E-01 -2.19110000000E-01
  10   3   2    1 H    -6.58500000000E-02  3.14600000000E-02  2.19110000000E-01
  11   3   3    1 H     2.84960000000E-01  6.58500000000E-02  9.73100000000E-02
  12   3   4    1 H    -3.14600000000E-02  1.87650000000E-01 -9.73100000000E-02

  13   4   1    6 C     1.96990000000E-01 -3.59030000000E-01  7.18400000000E-02
  14   4   2    6 C    -4.30870000000E-01  1.25150000000E-01 -7.18400000000E-02
  15   4   3    6 C     3.59030000000E-01  4.30870000000E-01 -4.43980000000E-01
  16   4   4    6 C    -1.25150000000E-01 -1.96990000000E-01  4.43980000000E-01

  17   5   1    6 C     3.32200000000E-01 -3.79820000000E-01  2.04500000000E-01
  18   5   2    6 C     4.15680000000E-01  1.27700000000E-01 -2.04500000000E-01
  19   5   3    6 C     3.79820000000E-01 -4.15680000000E-01 -2.87980000000E-01
  20   5   4    6 C    -1.27700000000E-01 -3.32200000000E-01  2.87980000000E-01

  21   6   1    6 C     8.77900000000E-02 -4.81650000000E-01 -1.21940000000E-01
  22   6   2    6 C    -3.59710000000E-01  2.09730000000E-01  1.21940000000E-01
  23   6   3    6 C     4.81650000000E-01  3.59710000000E-01 -4.30560000000E-01
  24   6   4    6 C    -2.09730000000E-01 -8.77900000000E-02  4.30560000000E-01

  25   7   1    6 C    -7.86000000000E-02 -3.09510000000E-01 -1.42790000000E-01
  26   7   2    6 C    -1.66720000000E-01  6.41900000000E-02  1.42790000000E-01
  27   7   3    6 C     3.09510000000E-01  1.66720000000E-01  2.30910000000E-01
  28   7   4    6 C    -6.41900000000E-02  7.86000000000E-02 -2.30910000000E-01

  29   8   1    6 C     1.61280000000E-01 -2.13700000000E-01  1.38740000000E-01
  30   8   2    6 C    -3.52440000000E-01  2.25400000000E-02 -1.38740000000E-01
  31   8   3    6 C     2.13700000000E-01  3.52440000000E-01  3.74980000000E-01
  32   8   4    6 C    -2.25400000000E-02 -1.61280000000E-01 -3.74980000000E-01

  33   9   1    6 C    -2.25640000000E-01  1.79400000000E-01  2.29900000000E-01
  34   9   2    6 C    -5.05000000000E-02 -4.55540000000E-01 -2.29900000000E-01
  35   9   3    6 C    -1.79400000000E-01  5.05000000000E-02 -4.05040000000E-01
  36   9   4    6 C     4.55540000000E-01  2.25640000000E-01  4.05040000000E-01

  37  10   1    7 N     3.57860000000E-01 -3.48180000000E-01  3.66000000000E-01
  38  10   2    7 N     2.85820000000E-01 -8.14000000000E-03 -3.66000000000E-01
  39  10   3    7 N     3.48180000000E-01 -2.85820000000E-01 -2.93960000000E-01
  40  10   4    7 N     8.14000000000E-03 -3.57860000000E-01  2.93960000000E-01

  41  11   1    7 N     4.91700000000E-01 -3.89720000000E-01  4.46780000000E-01
  42  11   2    7 N     1.63500000000E-01  4.49200000000E-02 -4.46780000000E-01
  43  11   3    7 N     3.89720000000E-01 -1.63500000000E-01 -1.18580000000E-01
  44  11   4    7 N    -4.49200000000E-02 -4.91700000000E-01  1.18580000000E-01

  45  12   1    7 N     4.47930000000E-01 -4.37870000000E-01  1.86180000000E-01
  46  12   2    7 N     3.75950000000E-01  2.61750000000E-01 -1.86180000000E-01
  47  12   3    7 N     4.37870000000E-01 -3.75950000000E-01 -1.14200000000E-01
  48  12   4    7 N    -2.61750000000E-01 -4.47930000000E-01  1.14200000000E-01

  49  13   1    7 N    -4.54260000000E-01 -4.44480000000E-01  3.38620000000E-01
  50  13   2    7 N     2.16900000000E-01  2.07120000000E-01 -3.38620000000E-01
  51  13   3    7 N     4.44480000000E-01 -2.16900000000E-01 -9.78000000000E-03
  52  13   4    7 N    -2.07120000000E-01  4.54260000000E-01  9.78000000000E-03

  53  14   1    7 N     2.99800000000E-02 -1.87900000000E-01  4.17600000000E-02
  54  14   2    7 N    -2.29660000000E-01 -1.17800000000E-02 -4.17600000000E-02
  55  14   3    7 N     1.87900000000E-01  2.29660000000E-01  2.17880000000E-01
  56  14   4    7 N     1.17800000000E-02 -2.99800000000E-02 -2.17880000000E-01

  57  15   1    9 F     2.73460000000E-01 -8.61700000000E-02  3.20430000000E-01
  58  15   2    9 F    -4.06600000000E-01 -4.69700000000E-02 -3.20430000000E-01
  59  15   3    9 F     8.61700000000E-02  4.06600000000E-01  3.59630000000E-01
  60  15   4    9 F     4.69700000000E-02 -2.73460000000E-01 -3.59630000000E-01

  61  16   1   30 ZN    2.50000000000E-01 -2.50000000000E-01 -5.00000000000E-01

  62  17   1   30 ZN   -5.00000000000E-01 -5.00000000000E-01  0.00000000000E+00

 PROCESS           20  OF           24  WORKING
 NUMBER OF SYMMETRY OPERATORS         :    4
 *******************************************************************************
 * GEOMETRY EDITING - INPUT COORDINATES ARE GIVEN IN ANGSTROM         
 *******************************************************************************

 GEOMETRY NOW FULLY CONSISTENT WITH THE GROUP

 GCALCO - MAX INDICES DIRECT LATTICE VECTOR    14    14    16
 NO.OF VECTORS CREATED 6999 STARS  481 RMAX   199.04463 BOHR

 GEOMETRY FOR WAVE FUNCTION - DIMENSIONALITY OF THE SYSTEM    3
 (NON PERIODIC DIRECTION: LATTICE PARAMETER FORMALLY SET TO 500)
 *******************************************************************************
 LATTICE PARAMETERS (ANGSTROMS AND DEGREES) - BOHR = 0.5291772083 ANGSTROM
 PRIMITIVE CELL - CENTRING CODE 6/0 VOLUME=   695.132231 - DENSITY  1.873 g/cm^3
         A              B              C           ALPHA      BETA       GAMMA 
     9.89181144     9.89181144     9.89181144   118.924034 118.924034  91.873954
 *******************************************************************************
 ATOMS IN THE ASYMMETRIC UNIT   17 - ATOMS IN THE UNIT CELL:   62
     ATOM                 X/A                 Y/B                 Z/C    
 *******************************************************************************
      1 T   1 H     1.099300000000E-01  4.033600000000E-01 -1.863100000000E-01
      2 F   1 H    -4.103300000000E-01  2.962400000000E-01  1.863100000000E-01
      3 F   1 H    -4.033600000000E-01  4.103300000000E-01 -2.934300000000E-01
      4 F   1 H    -2.962400000000E-01 -1.099300000000E-01  2.934300000000E-01
      5 T   1 H    -1.378200000000E-01  4.524000000000E-01 -3.809000000000E-01
      6 F   1 H    -1.667000000000E-01  2.430800000000E-01  3.809000000000E-01
      7 F   1 H    -4.524000000000E-01  1.667000000000E-01  4.097800000000E-01
      8 F   1 H    -2.430800000000E-01  1.378200000000E-01 -4.097800000000E-01
      9 T   1 H    -1.876500000000E-01 -2.849600000000E-01 -2.191100000000E-01
     10 F   1 H    -6.585000000000E-02  3.146000000000E-02  2.191100000000E-01
     11 F   1 H     2.849600000000E-01  6.585000000000E-02  9.731000000000E-02
     12 F   1 H    -3.146000000000E-02  1.876500000000E-01 -9.731000000000E-02
     13 T   6 C     1.969900000000E-01 -3.590300000000E-01  7.184000000000E-02
     14 F   6 C    -4.308700000000E-01  1.251500000000E-01 -7.184000000000E-02
     15 F   6 C     3.590300000000E-01  4.308700000000E-01 -4.439800000000E-01
     16 F   6 C    -1.251500000000E-01 -1.969900000000E-01  4.439800000000E-01
     17 T   6 C     3.322000000000E-01 -3.798200000000E-01  2.045000000000E-01
     18 F   6 C     4.156800000000E-01  1.277000000000E-01 -2.045000000000E-01
     19 F   6 C     3.798200000000E-01 -4.156800000000E-01 -2.879800000000E-01
     20 F   6 C    -1.277000000000E-01 -3.322000000000E-01  2.879800000000E-01
     21 T   6 C     8.779000000000E-02 -4.816500000000E-01 -1.219400000000E-01
     22 F   6 C    -3.597100000000E-01  2.097300000000E-01  1.219400000000E-01
     23 F   6 C     4.816500000000E-01  3.597100000000E-01 -4.305600000000E-01
     24 F   6 C    -2.097300000000E-01 -8.779000000000E-02  4.305600000000E-01
     25 T   6 C    -7.860000000000E-02 -3.095100000000E-01 -1.427900000000E-01
     26 F   6 C    -1.667200000000E-01  6.419000000000E-02  1.427900000000E-01
     27 F   6 C     3.095100000000E-01  1.667200000000E-01  2.309100000000E-01
     28 F   6 C    -6.419000000000E-02  7.860000000000E-02 -2.309100000000E-01
     29 T   6 C     1.612800000000E-01 -2.137000000000E-01  1.387400000000E-01
     30 F   6 C    -3.524400000000E-01  2.254000000000E-02 -1.387400000000E-01
     31 F   6 C     2.137000000000E-01  3.524400000000E-01  3.749800000000E-01
     32 F   6 C    -2.254000000000E-02 -1.612800000000E-01 -3.749800000000E-01
     33 T   6 C    -2.256400000000E-01  1.794000000000E-01  2.299000000000E-01
     34 F   6 C    -5.050000000000E-02 -4.555400000000E-01 -2.299000000000E-01
     35 F   6 C    -1.794000000000E-01  5.050000000000E-02 -4.050400000000E-01
     36 F   6 C     4.555400000000E-01  2.256400000000E-01  4.050400000000E-01
     37 T   7 N     3.578600000000E-01 -3.481800000000E-01  3.660000000000E-01
     38 F   7 N     2.858200000000E-01 -8.140000000000E-03 -3.660000000000E-01
     39 F   7 N     3.481800000000E-01 -2.858200000000E-01 -2.939600000000E-01
     40 F   7 N     8.140000000000E-03 -3.578600000000E-01  2.939600000000E-01
     41 T   7 N     4.917000000000E-01 -3.897200000000E-01  4.467800000000E-01
     42 F   7 N     1.635000000000E-01  4.492000000000E-02 -4.467800000000E-01
     43 F   7 N     3.897200000000E-01 -1.635000000000E-01 -1.185800000000E-01
     44 F   7 N    -4.492000000000E-02 -4.917000000000E-01  1.185800000000E-01
     45 T   7 N     4.479300000000E-01 -4.378700000000E-01  1.861800000000E-01
     46 F   7 N     3.759500000000E-01  2.617500000000E-01 -1.861800000000E-01
     47 F   7 N     4.378700000000E-01 -3.759500000000E-01 -1.142000000000E-01
     48 F   7 N    -2.617500000000E-01 -4.479300000000E-01  1.142000000000E-01
     49 T   7 N    -4.542600000000E-01 -4.444800000000E-01  3.386200000000E-01
     50 F   7 N     2.169000000000E-01  2.071200000000E-01 -3.386200000000E-01
     51 F   7 N     4.444800000000E-01 -2.169000000000E-01 -9.780000000000E-03
     52 F   7 N    -2.071200000000E-01  4.542600000000E-01  9.780000000000E-03
     53 T   7 N     2.998000000000E-02 -1.879000000000E-01  4.176000000000E-02
     54 F   7 N    -2.296600000000E-01 -1.178000000000E-02 -4.176000000000E-02
     55 F   7 N     1.879000000000E-01  2.296600000000E-01  2.178800000000E-01
     56 F   7 N     1.178000000000E-02 -2.998000000000E-02 -2.178800000000E-01
     57 T   9 F     2.734600000000E-01 -8.617000000000E-02  3.204300000000E-01
     58 F   9 F    -4.066000000000E-01 -4.697000000000E-02 -3.204300000000E-01
     59 F   9 F     8.617000000000E-02  4.066000000000E-01  3.596300000000E-01
     60 F   9 F     4.697000000000E-02 -2.734600000000E-01 -3.596300000000E-01
     61 T  30 ZN    2.500000000000E-01 -2.500000000000E-01 -5.000000000000E-01
     62 T  30 ZN   -5.000000000000E-01  5.000000000000E-01  0.000000000000E+00

 TRANSFORMATION MATRIX PRIMITIVE-CRYSTALLOGRAPHIC CELL
  0.0000  1.0000  1.0000  1.0000  0.0000  1.0000  1.0000  1.0000  0.0000

 *******************************************************************************
 CRYSTALLOGRAPHIC CELL (VOLUME=       1390.26446207)
         A              B              C           ALPHA      BETA       GAMMA 
    10.05224570    10.05224570    13.75850454    90.000000  90.000000  90.000000

 COORDINATES IN THE CRYSTALLOGRAPHIC CELL
     ATOM                 X/A                 Y/B                 Z/C    
 *******************************************************************************
      1 T   1 H     5.356000000000E-02 -2.398700000000E-01  3.498000000000E-01
      2 F   1 H    -5.356000000000E-02  2.398700000000E-01  3.498000000000E-01
      3 F   1 H    -2.398700000000E-01 -5.356000000000E-02 -3.498000000000E-01
      4 F   1 H     2.398700000000E-01  5.356000000000E-02 -3.498000000000E-01
      5 T   1 H    -3.953400000000E-01  1.444000000000E-02 -1.522600000000E-01
      6 F   1 H     3.953400000000E-01 -1.444000000000E-02 -1.522600000000E-01
      7 F   1 H     1.444000000000E-02  3.953400000000E-01  1.522600000000E-01
      8 F   1 H    -1.444000000000E-02 -3.953400000000E-01  1.522600000000E-01
      9 T   1 H    -1.582100000000E-01 -6.090000000000E-02 -1.267500000000E-01
     10 F   1 H     1.582100000000E-01  6.090000000000E-02 -1.267500000000E-01
     11 F   1 H    -6.090000000000E-02  1.582100000000E-01  1.267500000000E-01
     12 F   1 H     6.090000000000E-02 -1.582100000000E-01  1.267500000000E-01
     13 T   6 C    -2.420900000000E-01  3.139300000000E-01 -1.169400000000E-01
     14 F   6 C     2.420900000000E-01 -3.139300000000E-01 -1.169400000000E-01
     15 F   6 C     3.139300000000E-01  2.420900000000E-01  1.169400000000E-01
     16 F   6 C    -3.139300000000E-01 -2.420900000000E-01  1.169400000000E-01
     17 T   6 C    -2.537600000000E-01  4.582600000000E-01 -1.260600000000E-01
     18 F   6 C     2.537600000000E-01 -4.582600000000E-01 -1.260600000000E-01
     19 F   6 C     4.582600000000E-01  2.537600000000E-01  1.260600000000E-01
     20 F   6 C    -4.582600000000E-01 -2.537600000000E-01  1.260600000000E-01
     21 T   6 C    -3.456900000000E-01  2.237500000000E-01 -1.359600000000E-01
     22 F   6 C     3.456900000000E-01 -2.237500000000E-01 -1.359600000000E-01
     23 F   6 C     2.237500000000E-01  3.456900000000E-01  1.359600000000E-01
     24 F   6 C    -2.237500000000E-01 -3.456900000000E-01  1.359600000000E-01
     25 T   6 C    -1.868500000000E-01  4.406000000000E-02 -1.226600000000E-01
     26 F   6 C     1.868500000000E-01 -4.406000000000E-02 -1.226600000000E-01
     27 F   6 C     4.406000000000E-02  1.868500000000E-01  1.226600000000E-01
     28 F   6 C    -4.406000000000E-02 -1.868500000000E-01  1.226600000000E-01
     29 T   6 C    -1.181200000000E-01  2.568600000000E-01 -9.558000000000E-02
     30 F   6 C     1.181200000000E-01 -2.568600000000E-01 -9.558000000000E-02
     31 F   6 C     2.568600000000E-01  1.181200000000E-01  9.558000000000E-02
     32 F   6 C    -2.568600000000E-01 -1.181200000000E-01  9.558000000000E-02
     33 T   6 C     3.174700000000E-01 -8.757000000000E-02 -1.380700000000E-01
     34 F   6 C    -3.174700000000E-01  8.757000000000E-02 -1.380700000000E-01
     35 F   6 C    -8.757000000000E-02 -3.174700000000E-01  1.380700000000E-01
     36 F   6 C     8.757000000000E-02  3.174700000000E-01  1.380700000000E-01
     37 T   7 N    -1.700200000000E-01 -4.639800000000E-01 -1.781600000000E-01
     38 F   7 N     1.700200000000E-01  4.639800000000E-01 -1.781600000000E-01
     39 F   7 N    -4.639800000000E-01  1.700200000000E-01  1.781600000000E-01
     40 F   7 N     4.639800000000E-01 -1.700200000000E-01  1.781600000000E-01
     41 T   7 N    -2.173200000000E-01 -3.359000000000E-01 -1.724000000000E-01
     42 F   7 N     2.173200000000E-01  3.359000000000E-01 -1.724000000000E-01
     43 F   7 N    -3.359000000000E-01  2.173200000000E-01  1.724000000000E-01
     44 F   7 N     3.359000000000E-01 -2.173200000000E-01  1.724000000000E-01
     45 T   7 N     1.501900000000E-01  3.599000000000E-02  4.119400000000E-01
     46 F   7 N    -1.501900000000E-01 -3.599000000000E-02  4.119400000000E-01
     47 F   7 N     3.599000000000E-02 -1.501900000000E-01 -4.119400000000E-01
     48 F   7 N    -3.599000000000E-02  1.501900000000E-01 -4.119400000000E-01
     49 T   7 N    -3.258000000000E-01 -3.355800000000E-01 -1.186800000000E-01
     50 F   7 N     3.258000000000E-01  3.355800000000E-01 -1.186800000000E-01
     51 F   7 N    -3.355800000000E-01  3.258000000000E-01  1.186800000000E-01
     52 F   7 N     3.355800000000E-01 -3.258000000000E-01  1.186800000000E-01
     53 T   7 N    -8.806000000000E-02  1.298200000000E-01 -9.984000000000E-02
     54 F   7 N     8.806000000000E-02 -1.298200000000E-01 -9.984000000000E-02
     55 F   7 N     1.298200000000E-01  8.806000000000E-02  9.984000000000E-02
     56 F   7 N    -1.298200000000E-01 -8.806000000000E-02  9.984000000000E-02
     57 T   9 F    -1.960000000000E-02  3.400300000000E-01 -6.657000000000E-02
     58 F   9 F     1.960000000000E-02 -3.400300000000E-01 -6.657000000000E-02
     59 F   9 F     3.400300000000E-01  1.960000000000E-02  6.657000000000E-02
     60 F   9 F    -3.400300000000E-01 -1.960000000000E-02  6.657000000000E-02
     61 T  30 ZN   -5.000000000000E-01 -4.675609717328E-17  2.500000000000E-01
     62 T  30 ZN    0.000000000000E+00  0.000000000000E+00  5.000000000000E-01

 T = ATOM BELONGING TO THE ASYMMETRIC UNIT

 ****    4 SYMMOPS - TRANSLATORS IN FRACTIONAL UNITS
 **** MATRICES AND TRANSLATORS IN THE CRYSTALLOGRAPHIC REFERENCE FRAME
   V INV                    ROTATION MATRICES                   TRANSLATORS
   1   1  1.00  0.00  0.00  0.00  1.00  0.00  0.00  0.00  1.00  0.00  0.00  0.00
   2   2  0.00  1.00 -1.00  1.00 -0.00 -1.00  0.00 -0.00 -1.00  0.00  0.00  0.00
   3   4 -0.00 -1.00  0.00 -0.00 -1.00  1.00  1.00 -1.00 -0.00  0.00  0.00  0.00
   4   3 -1.00 -0.00  1.00 -1.00 -0.00 -0.00 -1.00  1.00  0.00  0.00  0.00  0.00

 DIRECT LATTICE VECTORS CARTESIAN COMPONENTS (ANGSTROM)
          X                    Y                    Z
  -0.502612284840E+01   0.502612284840E+01   0.687925226775E+01
   0.502612284840E+01  -0.502612284840E+01   0.687925226775E+01
   0.502612284840E+01   0.502612284840E+01  -0.687925226775E+01


 CARTESIAN COORDINATES - PRIMITIVE CELL
 *******************************************************************************
 *      ATOM          X(ANGSTROM)         Y(ANGSTROM)         Z(ANGSTROM)
 *******************************************************************************
    1     1 H     5.383982795206E-01 -2.411232175291E+00  4.812724886518E+00
    2     1 H    -5.383982795206E-01  2.411232175291E+00  4.812724886518E+00
    3     1 H    -2.411232175291E+00 -5.383982795206E-01 -4.812724886518E+00
    4     1 H     2.411232175291E+00  5.383982795206E-01 -4.812724886518E+00
    5     1 H    -3.974054813773E+00  1.451544278618E-01 -2.094869900575E+00
    6     1 H     3.974054813773E+00 -1.451544278618E-01 -2.094869900575E+00
    7     1 H     1.451544278618E-01  3.974054813773E+00  2.094869900575E+00
    8     1 H    -1.451544278618E-01 -3.974054813773E+00  2.094869900575E+00
    9     1 H    -1.590365791691E+00 -6.121817629351E-01 -1.743890449875E+00
   10     1 H     1.590365791691E+00  6.121817629351E-01 -1.743890449875E+00
   11     1 H    -6.121817629351E-01  1.590365791691E+00  1.743890449875E+00
   12     1 H     6.121817629351E-01 -1.590365791691E+00  1.743890449875E+00
   13     6 C    -2.433548160738E+00  3.155701491596E+00 -1.608919520381E+00
   14     6 C     2.433548160738E+00 -3.155701491596E+00 -1.608919520381E+00
   15     6 C     3.155701491596E+00  2.433548160738E+00  1.608919520381E+00
   16     6 C    -3.155701491596E+00 -2.433548160738E+00  1.608919520381E+00
   17     6 C    -2.550857868020E+00  4.606542113016E+00 -1.734397081745E+00
   18     6 C     2.550857868020E+00 -4.606542113016E+00 -1.734397081745E+00
   19     6 C     4.606542113016E+00  2.550857868020E+00  1.734397081745E+00
   20     6 C    -4.606542113016E+00 -2.550857868020E+00  1.734397081745E+00
   21     6 C    -3.474960814927E+00  2.249189974659E+00 -1.870606276647E+00
   22     6 C     3.474960814927E+00 -2.249189974659E+00 -1.870606276647E+00
   23     6 C     2.249189974659E+00  3.474960814927E+00  1.870606276647E+00
   24     6 C    -2.249189974659E+00 -3.474960814927E+00  1.870606276647E+00
   25     6 C    -1.878262108447E+00  4.429019454010E-01 -1.687618166324E+00
   26     6 C     1.878262108447E+00 -4.429019454010E-01 -1.687618166324E+00
   27     6 C     4.429019454010E-01  1.878262108447E+00  1.687618166324E+00
   28     6 C    -4.429019454010E-01 -1.878262108447E+00  1.687618166324E+00
   29     6 C    -1.187371261706E+00  2.582019829680E+00 -1.315037863503E+00
   30     6 C     1.187371261706E+00 -2.582019829680E+00 -1.315037863503E+00
   31     6 C     2.582019829680E+00  1.187371261706E+00  1.315037863503E+00
   32     6 C    -2.582019829680E+00 -1.187371261706E+00  1.315037863503E+00
   33     6 C     3.191286441363E+00 -8.802751556688E-01 -1.899636721216E+00
   34     6 C    -3.191286441363E+00  8.802751556688E-01 -1.899636721216E+00
   35     6 C    -8.802751556688E-01 -3.191286441363E+00  1.899636721216E+00
   36     6 C     8.802751556688E-01  3.191286441363E+00  1.899636721216E+00
   37     7 N    -1.709082813370E+00 -4.664040958401E+00 -2.451215168045E+00
   38     7 N     1.709082813370E+00  4.664040958401E+00 -2.451215168045E+00
   39     7 N    -4.664040958401E+00  1.709082813370E+00  2.451215168045E+00
   40     7 N     4.664040958401E+00 -1.709082813370E+00  2.451215168045E+00
   41     7 N    -2.184554034829E+00 -3.376549329555E+00 -2.371966181920E+00
   42     7 N     2.184554034829E+00  3.376549329555E+00 -2.371966181920E+00
   43     7 N    -3.376549329555E+00  2.184554034829E+00  2.371966181920E+00
   44     7 N     3.376549329555E+00 -2.184554034829E+00  2.371966181920E+00
   45     7 N     1.509746781202E+00  3.617803226278E-01  5.667678358354E+00
   46     7 N    -1.509746781202E+00 -3.617803226278E-01  5.667678358354E+00
   47     7 N     3.617803226278E-01 -1.509746781202E+00 -5.667678358354E+00
   48     7 N    -3.617803226278E-01  1.509746781202E+00 -5.667678358354E+00
   49     7 N    -3.275021648017E+00 -3.373332610932E+00 -1.632859318273E+00
   50     7 N     3.275021648017E+00  3.373332610932E+00 -1.632859318273E+00
   51     7 N    -3.373332610932E+00  3.275021648017E+00  1.632859318273E+00
   52     7 N     3.373332610932E+00 -3.275021648017E+00  1.632859318273E+00
   53     7 N    -8.852007560602E-01  1.304982536359E+00 -1.373649092824E+00
   54     7 N     8.852007560602E-01 -1.304982536359E+00 -1.373649092824E+00
   55     7 N     1.304982536359E+00  8.852007560602E-01  1.373649092824E+00
   56     7 N    -1.304982536359E+00 -8.852007560602E-01  1.373649092824E+00
   57     9 F    -1.970240156573E-01  3.418065104283E+00 -9.159036469282E-01
   58     9 F     1.970240156573E-01 -3.418065104283E+00 -9.159036469282E-01
   59     9 F     3.418065104283E+00  1.970240156573E-01  9.159036469282E-01
   60     9 F    -3.418065104283E+00 -1.970240156573E-01  9.159036469282E-01
   61    30 ZN    5.026122848400E+00 -4.700037766092E-16 -1.031887840162E+01
   62    30 ZN    0.000000000000E+00  0.000000000000E+00  6.879252267750E+00

 *******************************************************************************
 STARTING BASIS SET HANDLING 
 *******************************************************************************

 Loading internal basis set: POB-DZVPP           

 Please cite in your publication:
 Peintinger, M. F., Oliveira, D. V. and Bredow, T. (2013), Generally applicable 
 solid-state Gaussian basis sets, in preparation                                
                                                                                
                    

 *******************************************************************************
 LOCAL ATOMIC FUNCTIONS BASIS SET
 *******************************************************************************
   ATOM   X(AU)   Y(AU)   Z(AU)  N. TYPE  EXPONENT  S COEF   P COEF   D/F/G COEF
 *******************************************************************************
   1 H    1.017  -4.557   9.095
                                  1 S  
                                         2.263E+01 1.441E-02 0.000E+00 0.000E+00
                                         3.236E+00 1.072E-01 0.000E+00 0.000E+00
                                         7.304E-01 3.846E-01 0.000E+00 0.000E+00
                                  2 S  
                                         1.417E-01 1.000E+00 0.000E+00 0.000E+00
                           3-     5 P  
                                         3.944E-01 0.000E+00 1.000E+00 0.000E+00
                           6-     8 P  
                                         1.006E-01 0.000E+00 1.000E+00 0.000E+00
   2 H   -1.017   4.557   9.095
   3 H   -4.557  -1.017  -9.095
   4 H    4.557   1.017  -9.095
   5 H   -7.510   0.274  -3.959
   6 H    7.510  -0.274  -3.959
   7 H    0.274   7.510   3.959
   8 H   -0.274  -7.510   3.959
   9 H   -3.005  -1.157  -3.295
  10 H    3.005   1.157  -3.295
  11 H   -1.157   3.005   3.295
  12 H    1.157  -3.005   3.295
  13 C   -4.599   5.963  -3.040
                                 97 S  
                                         1.238E+03 5.457E-03 0.000E+00 0.000E+00
                                         1.863E+02 4.064E-02 0.000E+00 0.000E+00
                                         4.225E+01 1.803E-01 0.000E+00 0.000E+00
                                         1.168E+01 4.632E-01 0.000E+00 0.000E+00
                                         3.593E+00 4.409E-01 0.000E+00 0.000E+00
                                 98 S  
                                         5.281E+00 1.000E+00 0.000E+00 0.000E+00
                                 99 S  
                                         4.447E-01 1.000E+00 0.000E+00 0.000E+00
                         100-   102 P  
                                         9.468E+00 0.000E+00 3.839E-02 0.000E+00
                                         2.010E+00 0.000E+00 2.112E-01 0.000E+00
                                         5.477E-01 0.000E+00 5.133E-01 0.000E+00
                         103-   105 P  
                                         1.604E-01 0.000E+00 1.000E+00 0.000E+00
                         106-   110 D  
                                         6.070E-01 0.000E+00 0.000E+00 1.000E+00
                         111-   115 D  
                                         2.939E-01 0.000E+00 0.000E+00 1.000E+00
  14 C    4.599  -5.963  -3.040
  15 C    5.963   4.599   3.040
  16 C   -5.963  -4.599   3.040
  17 C   -4.820   8.705  -3.278
  18 C    4.820  -8.705  -3.278
  19 C    8.705   4.820   3.278
  20 C   -8.705  -4.820   3.278
  21 C   -6.567   4.250  -3.535
  22 C    6.567  -4.250  -3.535
  23 C    4.250   6.567   3.535
  24 C   -4.250  -6.567   3.535
  25 C   -3.549   0.837  -3.189
  26 C    3.549  -0.837  -3.189
  27 C    0.837   3.549   3.189
  28 C   -0.837  -3.549   3.189
  29 C   -2.244   4.879  -2.485
  30 C    2.244  -4.879  -2.485
  31 C    4.879   2.244   2.485
  32 C   -4.879  -2.244   2.485
  33 C    6.031  -1.663  -3.590
  34 C   -6.031   1.663  -3.590
  35 C   -1.663  -6.031   3.590
  36 C    1.663   6.031   3.590
  37 N   -3.230  -8.814  -4.632
                                553 S  
                                         1.713E+03-5.393E-03 0.000E+00 0.000E+00
                                         2.576E+02-4.022E-02 0.000E+00 0.000E+00
                                         5.846E+01-1.793E-01 0.000E+00 0.000E+00
                                         1.620E+01-4.638E-01 0.000E+00 0.000E+00
                                         5.005E+00-4.417E-01 0.000E+00 0.000E+00
                                554 S  
                                         6.217E-01 1.000E+00 0.000E+00 0.000E+00
                                555 S  
                                         2.921E-01 1.000E+00 0.000E+00 0.000E+00
                         556-   558 P  
                                         1.357E+01 0.000E+00-4.007E-02 0.000E+00
                                         2.926E+00 0.000E+00-2.181E-01 0.000E+00
                                         7.993E-01 0.000E+00-5.129E-01 0.000E+00
                         559-   561 P  
                                         2.244E-01 0.000E+00 1.000E+00 0.000E+00
                         562-   566 D  
                                         3.118E-01 0.000E+00 0.000E+00 1.000E+00
  38 N    3.230   8.814  -4.632
  39 N   -8.814   3.230   4.632
  40 N    8.814  -3.230   4.632
  41 N   -4.128  -6.381  -4.482
  42 N    4.128   6.381  -4.482
  43 N   -6.381   4.128   4.482
  44 N    6.381  -4.128   4.482
  45 N    2.853   0.684  10.710
  46 N   -2.853  -0.684  10.710
  47 N    0.684  -2.853 -10.710
  48 N   -0.684   2.853 -10.710
  49 N   -6.189  -6.375  -3.086
  50 N    6.189   6.375  -3.086
  51 N   -6.375   6.189   3.086
  52 N    6.375  -6.189   3.086
  53 N   -1.673   2.466  -2.596
  54 N    1.673  -2.466  -2.596
  55 N    2.466   1.673   2.596
  56 N   -2.466  -1.673   2.596
  57 F   -0.372   6.459  -1.731
                                833 S  
                                         2.895E+03-5.341E-03 0.000E+00 0.000E+00
                                         4.354E+02-3.990E-02 0.000E+00 0.000E+00
                                         9.884E+01-1.791E-01 0.000E+00 0.000E+00
                                         2.749E+01-4.676E-01 0.000E+00 0.000E+00
                                         8.541E+00-4.465E-01 0.000E+00 0.000E+00
                                834 S  
                                         1.123E+00 1.000E+00 0.000E+00 0.000E+00
                                835 S  
                                         3.743E-01 1.000E+00 0.000E+00 0.000E+00
                         836-   838 P  
                                         2.270E+01 0.000E+00-4.521E-02 0.000E+00
                                         4.987E+00 0.000E+00-2.375E-01 0.000E+00
                                         1.349E+00 0.000E+00-5.129E-01 0.000E+00
                         839-   841 P  
                                         3.474E-01 0.000E+00 1.000E+00 0.000E+00
                         842-   846 D  
                                         9.203E-01 0.000E+00 0.000E+00 1.000E+00
                         847-   851 D  
                                         3.977E-01 0.000E+00 0.000E+00 1.000E+00
  58 F    0.372  -6.459  -1.731
  59 F    6.459   0.372   1.731
  60 F   -6.459  -0.372   1.731
  61 ZN   9.498  -0.000 -19.500
                                909 S  
                                         8.200E+04 1.421E-03 0.000E+00 0.000E+00
                                         1.231E+04 1.089E-02 0.000E+00 0.000E+00
                                         2.801E+03 5.406E-02 0.000E+00 0.000E+00
                                         7.910E+02 1.885E-01 0.000E+00 0.000E+00
                                         2.576E+02 3.835E-01 0.000E+00 0.000E+00
                                         8.881E+01 2.972E-01 0.000E+00 0.000E+00
                                910 S  
                                         1.719E+02-1.105E-01 0.000E+00 0.000E+00
                                         2.030E+01 6.461E-01 0.000E+00 0.000E+00
                                         8.346E+00 4.422E-01 0.000E+00 0.000E+00
                                911 S  
                                         1.485E+01-2.271E-01 0.000E+00 0.000E+00
                                         2.450E+00 7.243E-01 0.000E+00 0.000E+00
                                         9.985E-01 4.484E-01 0.000E+00 0.000E+00
                                912 S  
                                         1.493E+00 1.000E+00 0.000E+00 0.000E+00
                                913 S  
                                         1.830E-01 1.000E+00 0.000E+00 0.000E+00
                         914-   916 P  
                                         1.072E+03 0.000E+00 9.277E-03 0.000E+00
                                         2.527E+02 0.000E+00 6.954E-02 0.000E+00
                                         8.010E+01 0.000E+00 2.716E-01 0.000E+00
                                         2.890E+01 0.000E+00 5.340E-01 0.000E+00
                                         1.077E+01 0.000E+00 3.450E-01 0.000E+00
                         917-   919 P  
                                         5.645E+00 0.000E+00 3.413E-01 0.000E+00
                                         2.168E+00 0.000E+00 5.639E-01 0.000E+00
                                         8.054E-01 0.000E+00 2.368E-01 0.000E+00
                         920-   922 P  
                                         2.721E-01 0.000E+00 1.000E+00 0.000E+00
                         923-   927 D  
                                         5.609E+01 0.000E+00 0.000E+00 2.959E-02
                                         1.575E+01 0.000E+00 0.000E+00 1.587E-01
                                         5.312E+00 0.000E+00 0.000E+00 3.798E-01
                                         1.774E+00 0.000E+00 0.000E+00 4.690E-01
                         928-   932 D  
                                         5.073E-01 0.000E+00 0.000E+00 1.000E+00
                         933-   939 F  
                                         2.814E+00 0.000E+00 0.000E+00 1.000E+00
                         940-   946 F  
                                         1.300E+00 0.000E+00 0.000E+00 1.000E+00
  62 ZN   0.000   0.000  13.000

 *******************************************************************************
 FINISHED BASIS SET HANDLING 
 *******************************************************************************

 INFORMATION **** SET_MPP **** PCRYSTAL CALCULATION
 INFORMATION **** READM2 **** NEW DEFAULT: FOCK/KS MATRIX MIXING SET TO 30 %
 INFORMATION **** READM2 **** NEW DEFAULT: FULL DIRECT SCF MODE
 INFORMATION **** READM2 **** NEW DEFAULT: COULOMB BIPOLAR BUFFER SET TO 32 Mb
 INFORMATION **** READM2 **** NEW DEFAULT: EXCHANGE BIPOLAR BUFFER SET TO 32 Mb

 *******************************************************************************
 NEW DEFAULT: DFT INTEGRATION GRID INCREASED TO XLGRID
 NEW DEFAULT: DIIS ACCELERATOR ACTIVE
 USE KEYWORD NODIIS TO TURN IT OFF
 *******************************************************************************

 INFORMATION **** DFTD3_INPUT **** PERFORM DISPERSION CORRECTION DFT-D3(BJ) IN THE BECKE-JOHNSON DAMPING SCHEME

 PLEASE CITE:
 (1) DFT-D3 Reference
  S. Grimme, J. Antony, S. Ehrlich, and H. Krieg, J. Chem. Phys. 132 (2010), 154104
 (2) BJ-Damping Reference
  S. Grimme, S. Ehrlich, and L. Goerigk, J. Comput. Chem. 32 (2011), 1456-1465
 (3) General DFT-D Review
  S. Grimme, A. Hansen, J. G. Brandenburg, and C. Bannwarth,
  Chem. Rev. 116 (2016), 5105-5154

 INFORMATION **** TOLINTEG **** COULOMB AND EXCHANGE SERIES TOLERANCES MODIFIED
 INFORMATION **** BIPOSIZE **** COULOMB BIPOLAR BUFFER SET TO   100000000
 INFORMATION **** MAXCYCLE **** MAX NUMBER OF SCF CYCLES SET TO          50
 *******************************************************************************
 N. OF ATOMS PER CELL        62  COULOMB OVERLAP TOL         (T1) 10**  -12
 NUMBER OF SHELLS           388  COULOMB PENETRATION TOL     (T2) 10**  -12
 NUMBER OF AO               984  EXCHANGE OVERLAP TOL        (T3) 10**   20
 N. OF ELECTRONS PER CELL   392  EXCHANGE PSEUDO OVP (F(G))  (T4) 10**   20
 CORE ELECTRONS PER CELL    132  EXCHANGE PSEUDO OVP (P(G))  (T5) 10**   20
 N. OF SYMMETRY OPERATORS     4  POLE ORDER IN MONO ZONE                  4
 *******************************************************************************
 TYPE OF CALCULATION :  RESTRICTED CLOSED SHELL
 KOHN-SHAM HAMILTONIAN

 (EXCHANGE)[CORRELATION] FUNCTIONAL:(PERDEW-BURKE-ERNZERHOF)[PERDEW-BURKE-ERNZERHOF]


 CAPPA:IS1  3;IS2  3;IS3  3; K PTS MONK NET   6; SYMMOPS:K SPACE   8;G SPACE   4

 *******************************************************************************
 MAX NUMBER OF SCF CYCLES      50  CONVERGENCE ON DELTAP        10**-16
 WEIGHT OF F(I) IN F(I+1)      30% CONVERGENCE ON ENERGY        10**- 6
 SHRINK. FACT.(MONKH.)    3  3  3  NUMBER OF K POINTS IN THE IBZ      6
 SHRINKING FACTOR(GILAT NET)    3  NUMBER OF K POINTS(GILAT NET)      6
 *******************************************************************************
 *** K POINTS COORDINATES (OBLIQUE COORDINATES IN UNITS OF IS =  3)
   1-R(  0  0  0)   2-C(  1  0  0)   3-C(  1  1  0)   4-C(  2  1  0)
   5-C(  2  1  1)   6-C(  2  2  1)

 DIRECT LATTICE VECTORS COMPON. (A.U.)     RECIP. LATTICE VECTORS COMPON. (A.U.) 
        X            Y            Z              X            Y            Z
   -9.4979957    9.4979957   12.9999028      0.0000000    0.3307637    0.2416628
    9.4979957   -9.4979957   12.9999028      0.3307637    0.0000000    0.2416628
    9.4979957    9.4979957  -12.9999028      0.3307637    0.3307637    0.0000000

 DISK SPACE FOR EIGENVECTORS (FTN 10)    10650816 REALS

 SYMMETRY ADAPTION OF THE BLOCH FUNCTIONS ENABLED
 TTTTTTTTTTTTTTTTTTTTTTTTTTTTTT gordsh1     TELAPSE       12.89 TCPU        0.04

 MATRIX SIZE: P(G) 1837040, F(G)  919300, P(G) IRR  232318, F(G) IRR  232318
 MAX G-VECTOR INDEX FOR 1- AND 2-ELECTRON INTEGRALS  63

 TTTTTTTTTTTTTTTTTTTTTTTTTTTTTT INPUT       TELAPSE       12.97 TCPU        0.12

 NEIGHBORS OF THE NON-EQUIVALENT ATOMS

 N = NUMBER OF NEIGHBORS AT DISTANCE R
    ATOM  N     R/ANG      R/AU   NEIGHBORS (ATOM LABELS AND CELL INDICES)
   1 H    1     1.0944     2.0682   21 C    0 1 0
   1 H    1     2.1720     4.1044   34 C    0 1 0
   1 H    1     2.1729     4.1062   13 C    0 1 0
   1 H    1     2.4505     4.6308   50 N    0 0-1
   1 H    1     2.5227     4.7673    5 H    0 1 0
   1 H    1     2.7979     5.2873   17 C    0 1 0

   5 H    1     1.0914     2.0625   34 C    0 0 0
   5 H    1     2.1241     4.0139    6 H    0-1-1
   5 H    1     2.1557     4.0736   25 C    0 0 0
   5 H    1     2.1740     4.1083   21 C    0 0 0
   5 H    1     2.5227     4.7673    1 H    0-1 0
   5 H    1     2.5256     4.7727    9 H    0 0 0

   9 H    1     1.0951     2.0694   25 C    0 0 0
   9 H    1     2.0760     3.9231   53 N    0 0 0
   9 H    1     2.1942     4.1465   34 C    0 0 0
   9 H    1     2.5256     4.7727    5 H    0 0 0
   9 H    1     2.5972     4.9080   54 N    0 0 0
   9 H    1     2.8964     5.4734   41 N    0 0 0

  13 C    1     1.4030     2.6513   29 C    0 0 0
  13 C    1     1.4053     2.6556   21 C    0 0 0
  13 C    1     1.4610     2.7608   17 C    0 0 0
  13 C    1     2.1729     4.1062    1 H    0-1 0
  13 C    1     2.3561     4.4524   57 F    0 0 0
  13 C    1     2.4158     4.5653   34 C    0 0 0

  17 C    1     1.3476     2.5466   45 N    0-1 0
  17 C    1     1.3540     2.5588   37 N    1 0 1
  17 C    1     1.4610     2.7608   13 C    0 0 0
  17 C    1     2.1959     4.1497   41 N    1 0 1
  17 C    1     2.1976     4.1529   49 N    1 0 1
  17 C    1     2.4766     4.6801   29 C    0 0 0

  21 C    1     1.0944     2.0682    1 H    0-1 0
  21 C    1     1.3983     2.6424   34 C    0 0 0
  21 C    1     1.4053     2.6556   13 C    0 0 0
  21 C    1     2.1740     4.1083    5 H    0 0 0
  21 C    1     2.3775     4.4928   29 C    0 0 0
  21 C    1     2.4178     4.5689   25 C    0 0 0

  25 C    1     1.0951     2.0694    9 H    0 0 0
  25 C    1     1.3520     2.5549   53 N    0 0 0
  25 C    1     1.4001     2.6458   34 C    0 0 0
  25 C    1     2.1557     4.0736    5 H    0 0 0
  25 C    1     2.2786     4.3059   29 C    0 0 0
  25 C    1     2.4178     4.5689   21 C    0 0 0

  29 C    1     1.3136     2.4824   53 N    0 0 0
  29 C    1     1.3561     2.5627   57 F    0 0 0
  29 C    1     1.4030     2.6513   13 C    0 0 0
  29 C    1     2.2786     4.3059   25 C    0 0 0
  29 C    1     2.3775     4.4928   21 C    0 0 0
  29 C    1     2.4766     4.6801   17 C    0 0 0

  33 C    1     1.0914     2.0625    6 H    0 0 0
  33 C    1     1.3983     2.6424   22 C    0 0 0
  33 C    1     1.4001     2.6458   26 C    0 0 0
  33 C    1     2.1720     4.1044    2 H   -1 0 0
  33 C    1     2.1942     4.1465   10 H    0 0 0
  33 C    1     2.4031     4.5413   54 N    0 0 0

  37 N    1     1.3540     2.5588   17 C   -1 0-1
  37 N    1     1.3748     2.5979   41 N    0 0 0
  37 N    1     2.0072     3.7931   61 ZN   0 0-1
  37 N    1     2.1881     4.1349   49 N    0 0 0
  37 N    1     2.1916     4.1415   45 N   -1-1-1
  37 N    1     2.4937     4.7124   13 C   -1 0-1

  41 N    1     1.3173     2.4894   49 N    0 0 0
  41 N    1     1.3748     2.5979   37 N    0 0 0
  41 N    1     2.1860     4.1310   45 N   -1-1-1
  41 N    1     2.1959     4.1497   17 C   -1 0-1
  41 N    1     2.7917     5.2756   58 F    0 0 0
  41 N    1     2.8964     5.4734    9 H    0 0 0

  45 N    1     1.3476     2.5466   17 C    0 1 0
  45 N    1     1.3793     2.6065   49 N    1 1 1
  45 N    1     1.9693     3.7214   62 ZN   0 0 0
  45 N    1     2.1860     4.1310   41 N    1 1 1
  45 N    1     2.1916     4.1415   37 N    1 1 1
  45 N    1     2.5126     4.7481   13 C    0 1 0

  49 N    1     1.3173     2.4894   41 N    0 0 0
  49 N    1     1.3793     2.6065   45 N   -1-1-1
  49 N    1     2.1881     4.1349   37 N    0 0 0
  49 N    1     2.1976     4.1529   17 C   -1 0-1
  49 N    1     2.4505     4.6308    2 H   -1-1-1
  49 N    1     2.9093     5.4979   62 ZN  -1-1-1

  53 N    1     1.3136     2.4824   29 C    0 0 0
  53 N    1     1.3520     2.5549   25 C    0 0 0
  53 N    1     2.0760     3.9231    9 H    0 0 0
  53 N    1     2.2690     4.2877   57 F    0 0 0
  53 N    1     2.4031     4.5413   34 C    0 0 0
  53 N    1     2.4244     4.5815   13 C    0 0 0

  57 F    1     1.3561     2.5627   29 C    0 0 0
  57 F    1     2.2690     4.2877   53 N    0 0 0
  57 F    1     2.3561     4.4524   13 C    0 0 0
  57 F    1     2.7464     5.1900   38 N    0 0 0
  57 F    1     2.7610     5.2175   17 C    0 0 0
  57 F    1     2.7917     5.2756   42 N    0 0 0

  61 ZN   4     2.0072     3.7931   37 N    0 0 1   38 N   -1 0 0   39 N   -1 0 1
                                    40 N   -1-1 0
  61 ZN   4     2.9382     5.5525   41 N    0 0 1   42 N   -1 0 0   43 N   -1 0 1
                                    44 N   -1-1 0
  61 ZN   4     2.9990     5.6672   57 F   -1 0 0   58 F    0 0 1   59 F   -1-1 0
                                    60 F   -1 0 1
  61 ZN   4     3.0969     5.8523   17 C   -1 0 0   18 C    0 0 1   19 C   -1-1 0
                                    20 C   -1 0 1
  61 ZN   4     3.4493     6.5181   29 C   -1 0 0   30 C    0 0 1   31 C   -1-1 0
                                    32 C   -1 0 1
  61 ZN   4     3.5738     6.7535   13 C   -1 0 0   14 C    0 0 1   15 C   -1-1 0
                                    16 C   -1 0 1

  62 ZN   4     1.9693     3.7214   45 N    0 0 0   46 N    0 0 0   47 N    1 1 0
                                    48 N    1 1 0
  62 ZN   4     2.9093     5.4979   49 N    1 1 1   50 N    0 0-1   51 N    0 1 0
                                    52 N    1 0 0
  62 ZN   4     3.0514     5.7663   17 C    0 1 0   18 C    1 0 0   19 C    0 0-1
                                    20 C    1 1 1
  62 ZN   4     3.2209     6.0867    1 H    0 0 0    2 H    0 0 0    3 H    1 1 0
                                     4 H    1 1 0
  62 ZN   4     3.5789     6.7631   13 C    0 1 0   14 C    1 0 0   15 C    0 0-1
                                    16 C    1 1 1
  62 ZN   4     3.6901     6.9732   21 C    0 1 0   22 C    1 0 0   23 C    0 0-1
                                    24 C    1 1 1


 SYMMETRY ALLOWED INTERNAL DEGREE(S) OF FREEDOM:  45
 TTTTTTTTTTTTTTTTTTTTTTTTTTTTTT SYMM        TELAPSE       13.45 TCPU        0.59
 TTTTTTTTTTTTTTTTTTTTTTTTTTTTTT INT_SCREEN  TELAPSE       13.45 TCPU        0.60
 INFORMATION **** EXCBUF **** EXCH. BIPO BUFFER: WORDS USED =           0

 DFT PARAMETERS

     ATOM       ELECTRONS   NET CHARGE   R(ANGSTROM)
   1   1  H       1.0000      0.0000     1.11000000
  13   6  C       6.0000      0.0000     0.77000000
  37   7  N       7.0000      0.0000     0.74000000
  57   9  F       9.0000      0.0000     0.72000000
  61  30  ZN     30.0000      0.0000     1.37000000

 SIZE OF GRID=     460239
 TTTTTTTTTTTTTTTTTTTTTTTTTTTTTT MAKE_GRID2  TELAPSE       14.45 TCPU        1.59
 BECKE WEIGHT FUNCTION
 RADSAFE =     2.00
 TOLERANCES - DENSITY:10**- 6; POTENTIAL:10**- 9; GRID WGT:10**-14

 RADIAL INTEGRATION  - INTERVALS (POINTS,UPPER LIMIT):            1( 75,  4.0*R)

 ANGULAR INTEGRATION - INTERVALS (ACCURACY LEVEL [N. POINTS] UPPER LIMIT):
  1(  4[  86]   0.2)  2(  8[ 194]   0.5)  3( 12[ 350]   0.9)  4( 16[ 974]   3.5)
  5( 12[ 350]9999.0)
 TTTTTTTTTTTTTTTTTTTTTTTTTTTTTT INT_CALC    TELAPSE       14.50 TCPU        1.64
 EEEEEEEEEE INT_CALC TERMINATION  DATE 27 11 2023 TIME 04:03:01.1

 *******************************************************************************
 Z:\home\sanoj\Downloads\tmp_p\newconn.mol                                       
 CRYSTAL - SCF - TYPE OF CALCULATION :  RESTRICTED CLOSED SHELL
 *******************************************************************************

 CAPPA:IS1  3;IS2  3;IS3  3; K PTS MONK NET   6; SYMMOPS:K SPACE   8;G SPACE   4

 TTTTTTTTTTTTTTTTTTTTTTTTTTTTTT SDIK        TELAPSE       14.73 TCPU        1.86

 AAAAAAAAAAAAAAAAAAAAAAAAAAAAAAAAAAAAAAAAAAAAAAAAAAAAAAAAAAAAAAAAAAAAAAAAAAAAAAA
         ATOMIC WAVEFUNCTION(S)


 NUCLEAR CHARGE  1.0  SYMMETRY SPECIES            S
 N. ELECTRONS    1.0  NUMBER OF PRIMITIVE GTOS    4
                      NUMBER OF CONTRACTED GTOS   2
                      NUMBER OF CLOSED SHELLS     0
                      OPEN SHELL OCCUPATION       1

  ZNUC SCFIT  TOTAL HF ENERGY   KINETIC ENERGY   VIRIAL THEOREM ACCURACY
   1.0   1   -4.946643675E-01  4.917913167E-01 -2.005842012E+00  9.4E-17

 NUCLEAR CHARGE  6.0  SYMMETRY SPECIES            S    P
 N. ELECTRONS    6.0  NUMBER OF PRIMITIVE GTOS    7    4
                      NUMBER OF CONTRACTED GTOS   3    2
                      NUMBER OF CLOSED SHELLS     2    0
                      OPEN SHELL OCCUPATION       0    2

  ZNUC SCFIT  TOTAL HF ENERGY   KINETIC ENERGY   VIRIAL THEOREM ACCURACY
   6.0   6   -3.750912652E+01  3.905246519E+01 -1.960480378E+00  3.7E-06

 NUCLEAR CHARGE  7.0  SYMMETRY SPECIES            S    P
 N. ELECTRONS    7.0  NUMBER OF PRIMITIVE GTOS    7    4
                      NUMBER OF CONTRACTED GTOS   3    2
                      NUMBER OF CLOSED SHELLS     2    0
                      OPEN SHELL OCCUPATION       0    3

  ZNUC SCFIT  TOTAL HF ENERGY   KINETIC ENERGY   VIRIAL THEOREM ACCURACY
   7.0   9   -5.432196661E+01  5.425066284E+01 -2.001314339E+00  1.2E-06

 NUCLEAR CHARGE  9.0  SYMMETRY SPECIES            S    P
 N. ELECTRONS    9.0  NUMBER OF PRIMITIVE GTOS    7    4
                      NUMBER OF CONTRACTED GTOS   3    2
                      NUMBER OF CLOSED SHELLS     2    0
                      OPEN SHELL OCCUPATION       0    5

  ZNUC SCFIT  TOTAL HF ENERGY   KINETIC ENERGY   VIRIAL THEOREM ACCURACY
   9.0  14   -9.927886620E+01  9.927374065E+01 -2.000051630E+00  4.0E-06

 NUCLEAR CHARGE 30.0  SYMMETRY SPECIES            S    P    D
 N. ELECTRONS   30.0  NUMBER OF PRIMITIVE GTOS   14    9    5
                      NUMBER OF CONTRACTED GTOS   5    3    2
                      NUMBER OF CLOSED SHELLS     4    2    1
                      OPEN SHELL OCCUPATION       0    0    0

  ZNUC SCFIT  TOTAL HF ENERGY   KINETIC ENERGY   VIRIAL THEOREM ACCURACY
  30.0  10   -1.777404290E+03  1.777325716E+03 -2.000044209E+00  2.5E-06

 AAAAAAAAAAAAAAAAAAAAAAAAAAAAAAAAAAAAAAAAAAAAAAAAAAAAAAAAAAAAAAAAAAAAAAAAAAAAAAA

 TOTAL ATOMIC CHARGES:
   1.0000000   1.0000000   1.0000000   1.0000000   1.0000000   1.0000000
   1.0000000   1.0000000   1.0000000   1.0000000   1.0000000   1.0000000
   6.0000000   6.0000000   6.0000000   6.0000000   6.0000000   6.0000000
   6.0000000   6.0000000   6.0000000   6.0000000   6.0000000   6.0000000
   6.0000000   6.0000000   6.0000000   6.0000000   6.0000000   6.0000000
   6.0000000   6.0000000   6.0000000   6.0000000   6.0000000   6.0000000
   7.0000000   7.0000000   7.0000000   7.0000000   7.0000000   7.0000000
   7.0000000   7.0000000   7.0000000   7.0000000   7.0000000   7.0000000
   7.0000000   7.0000000   7.0000000   7.0000000   7.0000000   7.0000000
   7.0000000   7.0000000   9.0000000   9.0000000   9.0000000   9.0000000
  30.0000000  30.0000000
 TTTTTTTTTTTTTTTTTTTTTTTTTTTTTT MOQGAD      TELAPSE       16.49 TCPU        3.61
 TTTTTTTTTTTTTTTTTTTTTTTTTTTTTT SHELLXN     TELAPSE       94.94 TCPU       81.49
 TTTTTTTTTTTTTTTTTTTTTTTTTTTTTT MONMO3      TELAPSE       98.83 TCPU       85.37
 NUMERICALLY INTEGRATED DENSITY    391.9999447876
 TTTTTTTTTTTTTTTTTTTTTTTTTTTTTT NUMDFT      TELAPSE      101.41 TCPU       87.94
 CYC   0 ETOT(AU) -5.973021981745E+03 DETOT -5.97E+03 tst  0.00E+00 PX  1.00E+00
 TTTTTTTTTTTTTTTTTTTTTTTTTTTTTT DIIS        TELAPSE      101.49 TCPU       88.02
 TTTTTTTTTTTTTTTTTTTTTTTTTTTTTT FDIK        TELAPSE      142.02 TCPU      122.18
 INSULATING STATE
 TOP OF VALENCE BANDS -    BAND    196; K    3; EIG -1.2671297E-01 AU
 TOP OF VALENCE BANDS -    BAND    196; K    1; EIG -1.2917558E-01 AU
 BOTTOM OF VIRTUAL BANDS - BAND    197; K    1; EIG -1.0527925E-01 AU
 INDIRECT ENERGY BAND GAP:   0.5832 eV
 TTTTTTTTTTTTTTTTTTTTTTTTTTTTTT PDIG        TELAPSE      142.55 TCPU      122.70
 TOTAL ATOMIC CHARGES:
   1.1918542   1.1918542   1.1918542   1.1918542   1.0427203   1.0427203
   1.0427203   1.0427203   1.2589699   1.2589699   1.2589699   1.2589699
   6.1686269   6.1686269   6.1686269   6.1686269   5.5093909   5.5093909
   5.5093909   5.5093909   6.1547077   6.1547077   6.1547077   6.1547077
   5.7214580   5.7214580   5.7214580   5.7214580   5.0527919   5.0527919
   5.0527919   5.0527919   6.0195914   6.0195914   6.0195914   6.0195914
   7.3876003   7.3876003   7.3876003   7.3876003   7.1936090   7.1936090
   7.1936090   7.1936090   7.3630491   7.3630491   7.3630491   7.3630491
   7.1794983   7.1794983   7.1794983   7.1794983   7.5442080   7.5442080
   7.5442080   7.5442080   9.2981664   9.2981664   9.2981664   9.2981664
  27.8511096  27.8039220
 TTTTTTTTTTTTTTTTTTTTTTTTTTTTTT MOQGAD      TELAPSE      142.59 TCPU      122.75
 TTTTTTTTTTTTTTTTTTTTTTTTTTTTTT SHELLXN     TELAPSE      242.35 TCPU      213.20
 TTTTTTTTTTTTTTTTTTTTTTTTTTTTTT MONMO3      TELAPSE      245.23 TCPU      216.07
 NUMERICALLY INTEGRATED DENSITY    391.9999790944
 TTTTTTTTTTTTTTTTTTTTTTTTTTTTTT NUMDFT      TELAPSE      252.77 TCPU      223.58
 CYC   1 ETOT(AU) -5.967886299184E+03 DETOT  5.14E+00 tst  0.00E+00 PX  1.00E+00
 TTTTTTTTTTTTTTTTTTTTTTTTTTTTTT DIIS        TELAPSE      253.11 TCPU      223.92
 DIIS TEST: 0.13648E+02 AT SCF   CYCLE   1 - MIX   30 %
 TTTTTTTTTTTTTTTTTTTTTTTTTTTTTT FDIK        TELAPSE      271.49 TCPU      240.18
 INSULATING STATE
 TOP OF VALENCE BANDS -    BAND    196; K    4; EIG -1.6587773E-01 AU
 TOP OF VALENCE BANDS -    BAND    196; K    1; EIG -1.6609090E-01 AU
 BOTTOM OF VIRTUAL BANDS - BAND    197; K    1; EIG -1.2744443E-01 AU
 INDIRECT ENERGY BAND GAP:   1.0458 eV
 TTTTTTTTTTTTTTTTTTTTTTTTTTTTTT PDIG        TELAPSE      272.02 TCPU      240.70
 TOTAL ATOMIC CHARGES:
   1.1427415   1.1427415   1.1427415   1.1427415   1.0063128   1.0063128
   1.0063128   1.0063128   1.2314548   1.2314548   1.2314548   1.2314548
   6.3343343   6.3343343   6.3343343   6.3343343   6.2702322   6.2702322
   6.2702322   6.2702322   6.2687397   6.2687397   6.2687397   6.2687397
   6.0200170   6.0200170   6.0200170   6.0200170   6.4075217   6.4075217
   6.4075217   6.4075217   5.7198790   5.7198790   5.7198790   5.7198790
   6.9449682   6.9449682   6.9449682   6.9449682   6.7823610   6.7823610
   6.7823610   6.7823610   6.9433077   6.9433077   6.9433077   6.9433077
   6.8157467   6.8157467   6.8157467   6.8157467   6.1171830   6.1171830
   6.1171830   6.1171830   9.0739987   9.0739987   9.0739987   9.0739987
  29.8281016  29.8567049
 TTTTTTTTTTTTTTTTTTTTTTTTTTTTTT MOQGAD      TELAPSE      272.07 TCPU      240.75
 TTTTTTTTTTTTTTTTTTTTTTTTTTTTTT SHELLXN     TELAPSE      366.41 TCPU      331.17
 TTTTTTTTTTTTTTTTTTTTTTTTTTTTTT MONMO3      TELAPSE      370.84 TCPU      335.59
 NUMERICALLY INTEGRATED DENSITY    391.9999773901
 TTTTTTTTTTTTTTTTTTTTTTTTTTTTTT NUMDFT      TELAPSE      378.31 TCPU      343.02
 CYC   2 ETOT(AU) -5.966516868143E+03 DETOT  1.37E+00 tst  7.45E-02 PX  7.79E-01
 TTTTTTTTTTTTTTTTTTTTTTTTTTTTTT DIIS        TELAPSE      378.90 TCPU      343.61
 DIIS TEST: 0.20758E+02 AT SCF   CYCLE   2 - DIIS ACTIVE - HISTORY:     2 CYCLES
 TTTTTTTTTTTTTTTTTTTTTTTTTTTTTT FDIK        TELAPSE      392.11 TCPU      354.43
 INSULATING STATE
 TOP OF VALENCE BANDS -    BAND    196; K    6; EIG -2.4544957E-01 AU
 TOP OF VALENCE BANDS -    BAND    196; K    1; EIG -2.4819362E-01 AU
 BOTTOM OF VIRTUAL BANDS - BAND    197; K    1; EIG -1.1988661E-01 AU
 INDIRECT ENERGY BAND GAP:   3.4167 eV
 TTTTTTTTTTTTTTTTTTTTTTTTTTTTTT PDIG        TELAPSE      392.63 TCPU      354.95
 TOTAL ATOMIC CHARGES:
   1.1294587   1.1294587   1.1294587   1.1294587   0.9644034   0.9644034
   0.9644034   0.9644034   1.1612873   1.1612873   1.1612873   1.1612873
   5.8511892   5.8511892   5.8511892   5.8511892   5.7682714   5.7682714
   5.7682714   5.7682714   6.1088372   6.1088372   6.1088372   6.1088372
   6.1337486   6.1337486   6.1337486   6.1337486   5.5391413   5.5391413
   5.5391413   5.5391413   5.9536673   5.9536673   5.9536673   5.9536673
   6.9565748   6.9565748   6.9565748   6.9565748   7.1789156   7.1789156
   7.1789156   7.1789156   6.9721509   6.9721509   6.9721509   6.9721509
   7.1979628   7.1979628   7.1979628   7.1979628   7.4011159   7.4011159
   7.4011159   7.4011159   9.0981933   9.0981933   9.0981933   9.0981933
  29.1487114  29.1916177
 TTTTTTTTTTTTTTTTTTTTTTTTTTTTTT MOQGAD      TELAPSE      392.68 TCPU      355.00
 TTTTTTTTTTTTTTTTTTTTTTTTTTTTTT SHELLXN     TELAPSE      487.97 TCPU      445.53
 TTTTTTTTTTTTTTTTTTTTTTTTTTTTTT MONMO3      TELAPSE      491.06 TCPU      448.61
 NUMERICALLY INTEGRATED DENSITY    391.9999802392
 TTTTTTTTTTTTTTTTTTTTTTTTTTTTTT NUMDFT      TELAPSE      498.50 TCPU      456.02
 CYC   3 ETOT(AU) -5.969486091537E+03 DETOT -2.97E+00 tst  1.37E-02 PX  6.38E-01
 TTTTTTTTTTTTTTTTTTTTTTTTTTTTTT DIIS        TELAPSE      498.92 TCPU      456.45
 DIIS TEST: 0.41218E+01 AT SCF   CYCLE   3 - DIIS ACTIVE - HISTORY:     3 CYCLES
 TTTTTTTTTTTTTTTTTTTTTTTTTTTTTT FDIK        TELAPSE      511.76 TCPU      465.52
 INSULATING STATE
 TOP OF VALENCE BANDS -    BAND    196; K    3; EIG -2.3436288E-01 AU
 TOP OF VALENCE BANDS -    BAND    196; K    1; EIG -2.3495251E-01 AU
 BOTTOM OF VIRTUAL BANDS - BAND    197; K    1; EIG -1.2118495E-01 AU
 INDIRECT ENERGY BAND GAP:   3.0797 eV
 TTTTTTTTTTTTTTTTTTTTTTTTTTTTTT PDIG        TELAPSE      512.28 TCPU      466.04
 TOTAL ATOMIC CHARGES:
   1.1096512   1.1096512   1.1096512   1.1096512   0.9904515   0.9904515
   0.9904515   0.9904515   1.2121912   1.2121912   1.2121912   1.2121912
   6.2664807   6.2664807   6.2664807   6.2664807   5.8065146   5.8065146
   5.8065146   5.8065146   6.2794280   6.2794280   6.2794280   6.2794280
   5.7573496   5.7573496   5.7573496   5.7573496   5.5440747   5.5440747
   5.5440747   5.5440747   5.9868418   5.9868418   5.9868418   5.9868418
   7.2177088   7.2177088   7.2177088   7.2177088   7.0134300   7.0134300
   7.0134300   7.0134300   7.1988742   7.1988742   7.1988742   7.1988742
   7.0345234   7.0345234   7.0345234   7.0345234   6.9730109   6.9730109
   6.9730109   6.9730109   9.2100029   9.2100029   9.2100029   9.2100029
  28.7974940  28.8003722
 TTTTTTTTTTTTTTTTTTTTTTTTTTTTTT MOQGAD      TELAPSE      512.33 TCPU      466.09
 TTTTTTTTTTTTTTTTTTTTTTTTTTTTTT SHELLXN     TELAPSE      605.33 TCPU      556.78
 TTTTTTTTTTTTTTTTTTTTTTTTTTTTTT MONMO3      TELAPSE      609.66 TCPU      561.10
 NUMERICALLY INTEGRATED DENSITY    391.9999844736
 TTTTTTTTTTTTTTTTTTTTTTTTTTTTTT NUMDFT      TELAPSE      616.99 TCPU      568.41
 CYC   4 ETOT(AU) -5.969870652294E+03 DETOT -3.85E-01 tst  5.92E-03 PX  1.76E-01
 TTTTTTTTTTTTTTTTTTTTTTTTTTTTTT DIIS        TELAPSE      617.45 TCPU      568.87
 DIIS TEST: 0.12204E+01 AT SCF   CYCLE   4 - DIIS ACTIVE - HISTORY:     4 CYCLES
 TTTTTTTTTTTTTTTTTTTTTTTTTTTTTT FDIK        TELAPSE      628.99 TCPU      578.22
 INSULATING STATE
 TOP OF VALENCE BANDS -    BAND    196; K    5; EIG -2.5665696E-01 AU
 TOP OF VALENCE BANDS -    BAND    196; K    1; EIG -2.5845498E-01 AU
 BOTTOM OF VIRTUAL BANDS - BAND    197; K    1; EIG -1.2291229E-01 AU
 INDIRECT ENERGY BAND GAP:   3.6394 eV
 TTTTTTTTTTTTTTTTTTTTTTTTTTTTTT PDIG        TELAPSE      629.51 TCPU      578.74
 TOTAL ATOMIC CHARGES:
   1.1191531   1.1191531   1.1191531   1.1191531   0.9829233   0.9829233
   0.9829233   0.9829233   1.1998525   1.1998525   1.1998525   1.1998525
   6.1757098   6.1757098   6.1757098   6.1757098   5.8259327   5.8259327
   5.8259327   5.8259327   6.1913808   6.1913808   6.1913808   6.1913808
   5.9226897   5.9226897   5.9226897   5.9226897   5.6374551   5.6374551
   5.6374551   5.6374551   5.9106391   5.9106391   5.9106391   5.9106391
   7.1173240   7.1173240   7.1173240   7.1173240   7.0659084   7.0659084
   7.0659084   7.0659084   7.0954017   7.0954017   7.0954017   7.0954017
   7.0749589   7.0749589   7.0749589   7.0749589   7.0678995   7.0678995
   7.0678995   7.0678995   9.1738296   9.1738296   9.1738296   9.1738296
  28.8750008  28.8807656
 TTTTTTTTTTTTTTTTTTTTTTTTTTTTTT MOQGAD      TELAPSE      629.56 TCPU      578.78
 TTTTTTTTTTTTTTTTTTTTTTTTTTTTTT SHELLXN     TELAPSE      722.55 TCPU      669.41
 TTTTTTTTTTTTTTTTTTTTTTTTTTTTTT MONMO3      TELAPSE      727.48 TCPU      674.33
 NUMERICALLY INTEGRATED DENSITY    391.9999825192
 TTTTTTTTTTTTTTTTTTTTTTTTTTTTTT NUMDFT      TELAPSE      734.90 TCPU      681.74
 CYC   5 ETOT(AU) -5.970053172095E+03 DETOT -1.83E-01 tst  8.11E-04 PX  1.35E-01
 TTTTTTTTTTTTTTTTTTTTTTTTTTTTTT DIIS        TELAPSE      735.20 TCPU      682.02
 DIIS TEST: 0.54627E-01 AT SCF   CYCLE   5 - DIIS ACTIVE - HISTORY:     5 CYCLES
 TTTTTTTTTTTTTTTTTTTTTTTTTTTTTT FDIK        TELAPSE      746.76 TCPU      691.23
 INSULATING STATE
 TOP OF VALENCE BANDS -    BAND    196; K    5; EIG -2.5207076E-01 AU
 TOP OF VALENCE BANDS -    BAND    196; K    1; EIG -2.5407684E-01 AU
 BOTTOM OF VIRTUAL BANDS - BAND    197; K    1; EIG -1.2189382E-01 AU
 INDIRECT ENERGY BAND GAP:   3.5423 eV
 TTTTTTTTTTTTTTTTTTTTTTTTTTTTTT PDIG        TELAPSE      747.29 TCPU      691.75
 TOTAL ATOMIC CHARGES:
   1.1179631   1.1179631   1.1179631   1.1179631   0.9780530   0.9780530
   0.9780530   0.9780530   1.1985382   1.1985382   1.1985382   1.1985382
   6.1309615   6.1309615   6.1309615   6.1309615   5.8237443   5.8237443
   5.8237443   5.8237443   6.2401889   6.2401889   6.2401889   6.2401889
   5.9119821   5.9119821   5.9119821   5.9119821   5.5972035   5.5972035
   5.5972035   5.5972035   5.9739770   5.9739770   5.9739770   5.9739770
   7.1042892   7.1042892   7.1042892   7.1042892   7.0414323   7.0414323
   7.0414323   7.0414323   7.1303050   7.1303050   7.1303050   7.1303050
   7.0876477   7.0876477   7.0876477   7.0876477   7.0491232   7.0491232
   7.0491232   7.0491232   9.1595907   9.1595907   9.1595907   9.1595907
  28.9032311  28.9167702
 TTTTTTTTTTTTTTTTTTTTTTTTTTTTTT MOQGAD      TELAPSE      747.33 TCPU      691.80
 TTTTTTTTTTTTTTTTTTTTTTTTTTTTTT SHELLXN     TELAPSE      840.64 TCPU      782.37
 TTTTTTTTTTTTTTTTTTTTTTTTTTTTTT MONMO3      TELAPSE      845.73 TCPU      787.44
 NUMERICALLY INTEGRATED DENSITY    391.9999846177
 TTTTTTTTTTTTTTTTTTTTTTTTTTTTTT NUMDFT      TELAPSE      853.08 TCPU      794.77
 CYC   6 ETOT(AU) -5.970054541798E+03 DETOT -1.37E-03 tst  1.02E-04 PX  1.95E-02
 TTTTTTTTTTTTTTTTTTTTTTTTTTTTTT DIIS        TELAPSE      853.36 TCPU      795.05
 DIIS TEST: 0.46603E-01 AT SCF   CYCLE   6 - DIIS ACTIVE - HISTORY:     6 CYCLES
 TTTTTTTTTTTTTTTTTTTTTTTTTTTTTT FDIK        TELAPSE      864.53 TCPU      803.82
 INSULATING STATE
 TOP OF VALENCE BANDS -    BAND    196; K    5; EIG -2.5341046E-01 AU
 TOP OF VALENCE BANDS -    BAND    196; K    1; EIG -2.5547246E-01 AU
 BOTTOM OF VIRTUAL BANDS - BAND    197; K    1; EIG -1.2200244E-01 AU
 INDIRECT ENERGY BAND GAP:   3.5758 eV
 TTTTTTTTTTTTTTTTTTTTTTTTTTTTTT PDIG        TELAPSE      865.05 TCPU      804.33
 TOTAL ATOMIC CHARGES:
   1.1175885   1.1175885   1.1175885   1.1175885   0.9779272   0.9779272
   0.9779272   0.9779272   1.1976067   1.1976067   1.1976067   1.1976067
   6.1420174   6.1420174   6.1420174   6.1420174   5.8291397   5.8291397
   5.8291397   5.8291397   6.2128578   6.2128578   6.2128578   6.2128578
   5.9085803   5.9085803   5.9085803   5.9085803   5.6161873   5.6161873
   5.6161873   5.6161873   5.9436151   5.9436151   5.9436151   5.9436151
   7.1345550   7.1345550   7.1345550   7.1345550   7.0694945   7.0694945
   7.0694945   7.0694945   7.0957601   7.0957601   7.0957601   7.0957601
   7.0620117   7.0620117   7.0620117   7.0620117   7.0718471   7.0718471
   7.0718471   7.0718471   9.1658609   9.1658609   9.1658609   9.1658609
  28.9067838  28.9130191
 TTTTTTTTTTTTTTTTTTTTTTTTTTTTTT MOQGAD      TELAPSE      865.10 TCPU      804.38
 TTTTTTTTTTTTTTTTTTTTTTTTTTTTTT SHELLXN     TELAPSE      958.25 TCPU      895.10
 TTTTTTTTTTTTTTTTTTTTTTTTTTTTTT MONMO3      TELAPSE      962.46 TCPU      899.30
 NUMERICALLY INTEGRATED DENSITY    391.9999823461
 TTTTTTTTTTTTTTTTTTTTTTTTTTTTTT NUMDFT      TELAPSE      969.78 TCPU      906.60
 CYC   7 ETOT(AU) -5.970058833228E+03 DETOT -4.29E-03 tst  3.79E-05 PX  1.06E-02
 TTTTTTTTTTTTTTTTTTTTTTTTTTTTTT DIIS        TELAPSE      969.99 TCPU      906.81
 DIIS TEST: 0.12352E-01 AT SCF   CYCLE   7 - DIIS ACTIVE - HISTORY:     7 CYCLES
 TTTTTTTTTTTTTTTTTTTTTTTTTTTTTT FDIK        TELAPSE      980.13 TCPU      914.97
 INSULATING STATE
 TOP OF VALENCE BANDS -    BAND    196; K    5; EIG -2.5350844E-01 AU
 TOP OF VALENCE BANDS -    BAND    196; K    1; EIG -2.5556673E-01 AU
 BOTTOM OF VIRTUAL BANDS - BAND    197; K    1; EIG -1.2189041E-01 AU
 INDIRECT ENERGY BAND GAP:   3.5815 eV
 TTTTTTTTTTTTTTTTTTTTTTTTTTTTTT PDIG        TELAPSE      980.65 TCPU      915.49
 TOTAL ATOMIC CHARGES:
   1.1173023   1.1173023   1.1173023   1.1173023   0.9780210   0.9780210
   0.9780210   0.9780210   1.1974043   1.1974043   1.1974043   1.1974043
   6.1484332   6.1484332   6.1484332   6.1484332   5.8261848   5.8261848
   5.8261848   5.8261848   6.2122589   6.2122589   6.2122589   6.2122589
   5.9175602   5.9175602   5.9175602   5.9175602   5.6149599   5.6149599
   5.6149599   5.6149599   5.9388925   5.9388925   5.9388925   5.9388925
   7.1033498   7.1033498   7.1033498   7.1033498   7.0512523   7.0512523
   7.0512523   7.0512523   7.1153882   7.1153882   7.1153882   7.1153882
   7.0892454   7.0892454   7.0892454   7.0892454   7.0665032   7.0665032
   7.0665032   7.0665032   9.1678833   9.1678833   9.1678833   9.1678833
  28.9049000  28.9165433
 TTTTTTTTTTTTTTTTTTTTTTTTTTTTTT MOQGAD      TELAPSE      980.70 TCPU      915.54
 TTTTTTTTTTTTTTTTTTTTTTTTTTTTTT SHELLXN     TELAPSE     1073.80 TCPU     1006.17
 TTTTTTTTTTTTTTTTTTTTTTTTTTTTTT MONMO3      TELAPSE     1078.20 TCPU     1010.57
 NUMERICALLY INTEGRATED DENSITY    391.9999828919
 TTTTTTTTTTTTTTTTTTTTTTTTTTTTTT NUMDFT      TELAPSE     1085.64 TCPU     1017.89
 CYC   8 ETOT(AU) -5.970059967050E+03 DETOT -1.13E-03 tst  1.71E-05 PX  8.40E-03
 TTTTTTTTTTTTTTTTTTTTTTTTTTTTTT DIIS        TELAPSE     1086.10 TCPU     1018.35
 DIIS TEST: 0.43487E-02 AT SCF   CYCLE   8 - DIIS ACTIVE - HISTORY:     8 CYCLES
 TTTTTTTTTTTTTTTTTTTTTTTTTTTTTT FDIK        TELAPSE     1096.46 TCPU     1026.81
 INSULATING STATE
 TOP OF VALENCE BANDS -    BAND    196; K    5; EIG -2.5363707E-01 AU
 TOP OF VALENCE BANDS -    BAND    196; K    1; EIG -2.5564920E-01 AU
 BOTTOM OF VIRTUAL BANDS - BAND    197; K    1; EIG -1.2209148E-01 AU
 INDIRECT ENERGY BAND GAP:   3.5795 eV
 TTTTTTTTTTTTTTTTTTTTTTTTTTTTTT PDIG        TELAPSE     1096.99 TCPU     1027.33
 TOTAL ATOMIC CHARGES:
   1.1168089   1.1168089   1.1168089   1.1168089   0.9777317   0.9777317
   0.9777317   0.9777317   1.1973076   1.1973076   1.1973076   1.1973076
   6.1463668   6.1463668   6.1463668   6.1463668   5.8221388   5.8221388
   5.8221388   5.8221388   6.2159580   6.2159580   6.2159580   6.2159580
   5.9187687   5.9187687   5.9187687   5.9187687   5.6120490   5.6120490
   5.6120490   5.6120490   5.9459511   5.9459511   5.9459511   5.9459511
   7.1168706   7.1168706   7.1168706   7.1168706   7.0597239   7.0597239
   7.0597239   7.0597239   7.1077391   7.1077391   7.1077391   7.1077391
   7.0759557   7.0759557   7.0759557   7.0759557   7.0638428   7.0638428
   7.0638428   7.0638428   9.1670916   9.1670916   9.1670916   9.1670916
  28.9059828  28.9168002
 TTTTTTTTTTTTTTTTTTTTTTTTTTTTTT MOQGAD      TELAPSE     1097.03 TCPU     1027.38
 TTTTTTTTTTTTTTTTTTTTTTTTTTTTTT SHELLXN     TELAPSE     1189.45 TCPU     1117.71
 TTTTTTTTTTTTTTTTTTTTTTTTTTTTTT MONMO3      TELAPSE     1194.17 TCPU     1122.42
 NUMERICALLY INTEGRATED DENSITY    391.9999830360
 TTTTTTTTTTTTTTTTTTTTTTTTTTTTTT NUMDFT      TELAPSE     1201.49 TCPU     1129.72
 CYC   9 ETOT(AU) -5.970060621685E+03 DETOT -6.55E-04 tst  3.15E-06 PX  3.88E-03
 TTTTTTTTTTTTTTTTTTTTTTTTTTTTTT DIIS        TELAPSE     1202.71 TCPU     1130.93
 DIIS TEST: 0.30892E-03 AT SCF   CYCLE   9 - DIIS ACTIVE - HISTORY:     9 CYCLES
 TTTTTTTTTTTTTTTTTTTTTTTTTTTTTT FDIK        TELAPSE     1213.01 TCPU     1139.26
 INSULATING STATE
 TOP OF VALENCE BANDS -    BAND    196; K    5; EIG -2.5360595E-01 AU
 TOP OF VALENCE BANDS -    BAND    196; K    1; EIG -2.5567201E-01 AU
 BOTTOM OF VIRTUAL BANDS - BAND    197; K    1; EIG -1.2209302E-01 AU
 INDIRECT ENERGY BAND GAP:   3.5787 eV
 TTTTTTTTTTTTTTTTTTTTTTTTTTTTTT PDIG        TELAPSE     1213.53 TCPU     1139.79
 TOTAL ATOMIC CHARGES:
   1.1169939   1.1169939   1.1169939   1.1169939   0.9780197   0.9780197
   0.9780197   0.9780197   1.1975384   1.1975384   1.1975384   1.1975384
   6.1452833   6.1452833   6.1452833   6.1452833   5.8245275   5.8245275
   5.8245275   5.8245275   6.2155988   6.2155988   6.2155988   6.2155988
   5.9147348   5.9147348   5.9147348   5.9147348   5.6127610   5.6127610
   5.6127610   5.6127610   5.9449145   5.9449145   5.9449145   5.9449145
   7.1169178   7.1169178   7.1169178   7.1169178   7.0561114   7.0561114
   7.0561114   7.0561114   7.1100922   7.1100922   7.1100922   7.1100922
   7.0775898   7.0775898   7.0775898   7.0775898   7.0683278   7.0683278
   7.0683278   7.0683278   9.1653478   9.1653478   9.1653478   9.1653478
  28.9055892  28.9153759
 TTTTTTTTTTTTTTTTTTTTTTTTTTTTTT MOQGAD      TELAPSE     1213.58 TCPU     1139.83
 TTTTTTTTTTTTTTTTTTTTTTTTTTTTTT SHELLXN     TELAPSE     1304.11 TCPU     1230.06
 TTTTTTTTTTTTTTTTTTTTTTTTTTTTTT MONMO3      TELAPSE     1311.09 TCPU     1237.02
 NUMERICALLY INTEGRATED DENSITY    391.9999830006
 TTTTTTTTTTTTTTTTTTTTTTTTTTTTTT NUMDFT      TELAPSE     1318.46 TCPU     1244.37
 CYC  10 ETOT(AU) -5.970060659458E+03 DETOT -3.78E-05 tst  1.14E-07 PX  1.27E-03
 TTTTTTTTTTTTTTTTTTTTTTTTTTTTTT DIIS        TELAPSE     1319.00 TCPU     1244.91
 DIIS TEST: 0.73973E-04 AT SCF   CYCLE  10 - DIIS ACTIVE - HISTORY:    10 CYCLES
 TTTTTTTTTTTTTTTTTTTTTTTTTTTTTT FDIK        TELAPSE     1332.74 TCPU     1254.30
 INSULATING STATE
 TOP OF VALENCE BANDS -    BAND    196; K    5; EIG -2.5354969E-01 AU
 TOP OF VALENCE BANDS -    BAND    196; K    1; EIG -2.5558904E-01 AU
 BOTTOM OF VIRTUAL BANDS - BAND    197; K    1; EIG -1.2203945E-01 AU
 INDIRECT ENERGY BAND GAP:   3.5786 eV
 TTTTTTTTTTTTTTTTTTTTTTTTTTTTTT PDIG        TELAPSE     1333.26 TCPU     1254.82
 TOTAL ATOMIC CHARGES:
   1.1170180   1.1170180   1.1170180   1.1170180   0.9778343   0.9778343
   0.9778343   0.9778343   1.1975104   1.1975104   1.1975104   1.1975104
   6.1443082   6.1443082   6.1443082   6.1443082   5.8247802   5.8247802
   5.8247802   5.8247802   6.2158486   6.2158486   6.2158486   6.2158486
   5.9162046   5.9162046   5.9162046   5.9162046   5.6132050   5.6132050
   5.6132050   5.6132050   5.9451778   5.9451778   5.9451778   5.9451778
   7.1155361   7.1155361   7.1155361   7.1155361   7.0586088   7.0586088
   7.0586088   7.0586088   7.1084724   7.1084724   7.1084724   7.1084724
   7.0783394   7.0783394   7.0783394   7.0783394   7.0658287   7.0658287
   7.0658287   7.0658287   9.1662376   9.1662376   9.1662376   9.1662376
  28.9051435  28.9152164
 TTTTTTTTTTTTTTTTTTTTTTTTTTTTTT MOQGAD      TELAPSE     1333.31 TCPU     1254.86
 TTTTTTTTTTTTTTTTTTTTTTTTTTTTTT SHELLXN     TELAPSE     1425.07 TCPU     1345.23
 TTTTTTTTTTTTTTTTTTTTTTTTTTTTTT MONMO3      TELAPSE     1429.74 TCPU     1349.89
 NUMERICALLY INTEGRATED DENSITY    391.9999829866
 TTTTTTTTTTTTTTTTTTTTTTTTTTTTTT NUMDFT      TELAPSE     1437.05 TCPU     1357.17
 CYC  11 ETOT(AU) -5.970060667537E+03 DETOT -8.08E-06 tst  7.88E-08 PX  6.94E-04
 TTTTTTTTTTTTTTTTTTTTTTTTTTTTTT DIIS        TELAPSE     1437.30 TCPU     1357.41
 DIIS TEST: 0.20884E-04 AT SCF   CYCLE  11 - DIIS ACTIVE - HISTORY:    11 CYCLES
 TTTTTTTTTTTTTTTTTTTTTTTTTTTTTT FDIK        TELAPSE     1445.85 TCPU     1365.73
 INSULATING STATE
 TOP OF VALENCE BANDS -    BAND    196; K    5; EIG -2.5358562E-01 AU
 TOP OF VALENCE BANDS -    BAND    196; K    1; EIG -2.5563020E-01 AU
 BOTTOM OF VIRTUAL BANDS - BAND    197; K    1; EIG -1.2207335E-01 AU
 INDIRECT ENERGY BAND GAP:   3.5786 eV
 TTTTTTTTTTTTTTTTTTTTTTTTTTTTTT PDIG        TELAPSE     1446.37 TCPU     1366.25
 TOTAL ATOMIC CHARGES:
   1.1170034   1.1170034   1.1170034   1.1170034   0.9777419   0.9777419
   0.9777419   0.9777419   1.1974174   1.1974174   1.1974174   1.1974174
   6.1451188   6.1451188   6.1451188   6.1451188   5.8240661   5.8240661
   5.8240661   5.8240661   6.2156190   6.2156190   6.2156190   6.2156190
   5.9163241   5.9163241   5.9163241   5.9163241   5.6124680   5.6124680
   5.6124680   5.6124680   5.9451629   5.9451629   5.9451629   5.9451629
   7.1166454   7.1166454   7.1166454   7.1166454   7.0573782   7.0573782
   7.0573782   7.0573782   7.1095858   7.1095858   7.1095858   7.1095858
   7.0774263   7.0774263   7.0774263   7.0774263   7.0666521   7.0666521
   7.0666521   7.0666521   9.1661634   9.1661634   9.1661634   9.1661634
  28.9052953  28.9156129
 TTTTTTTTTTTTTTTTTTTTTTTTTTTTTT MOQGAD      TELAPSE     1446.42 TCPU     1366.30
 TTTTTTTTTTTTTTTTTTTTTTTTTTTTTT SHELLXN     TELAPSE     1539.67 TCPU     1457.03
 TTTTTTTTTTTTTTTTTTTTTTTTTTTTTT MONMO3      TELAPSE     1544.75 TCPU     1462.10
 NUMERICALLY INTEGRATED DENSITY    391.9999829818
 TTTTTTTTTTTTTTTTTTTTTTTTTTTTTT NUMDFT      TELAPSE     1552.11 TCPU     1469.44
 CYC  12 ETOT(AU) -5.970060670582E+03 DETOT -3.04E-06 tst  3.60E-08 PX  3.23E-04
 TTTTTTTTTTTTTTTTTTTTTTTTTTTTTT DIIS        TELAPSE     1552.80 TCPU     1470.13
 DIIS TEST: 0.51153E-05 AT SCF   CYCLE  12 - DIIS ACTIVE - HISTORY:    12 CYCLES
 TTTTTTTTTTTTTTTTTTTTTTTTTTTTTT FDIK        TELAPSE     1564.46 TCPU     1478.89
 INSULATING STATE
 TOP OF VALENCE BANDS -    BAND    196; K    5; EIG -2.5357799E-01 AU
 TOP OF VALENCE BANDS -    BAND    196; K    1; EIG -2.5562497E-01 AU
 BOTTOM OF VIRTUAL BANDS - BAND    197; K    1; EIG -1.2205975E-01 AU
 INDIRECT ENERGY BAND GAP:   3.5788 eV
 TTTTTTTTTTTTTTTTTTTTTTTTTTTTTT PDIG        TELAPSE     1564.98 TCPU     1479.42
 TOTAL ATOMIC CHARGES:
   1.1169848   1.1169848   1.1169848   1.1169848   0.9778217   0.9778217
   0.9778217   0.9778217   1.1974704   1.1974704   1.1974704   1.1974704
   6.1451332   6.1451332   6.1451332   6.1451332   5.8243103   5.8243103
   5.8243103   5.8243103   6.2157756   6.2157756   6.2157756   6.2157756
   5.9158626   5.9158626   5.9158626   5.9158626   5.6127327   5.6127327
   5.6127327   5.6127327   5.9452018   5.9452018   5.9452018   5.9452018
   7.1161977   7.1161977   7.1161977   7.1161977   7.0576876   7.0576876
   7.0576876   7.0576876   7.1090116   7.1090116   7.1090116   7.1090116
   7.0778655   7.0778655   7.0778655   7.0778655   7.0666749   7.0666749
   7.0666749   7.0666749   9.1660323   9.1660323   9.1660323   9.1660323
  28.9054210  28.9155287
 TTTTTTTTTTTTTTTTTTTTTTTTTTTTTT MOQGAD      TELAPSE     1565.03 TCPU     1479.46
 TTTTTTTTTTTTTTTTTTTTTTTTTTTTTT SHELLXN     TELAPSE     1658.67 TCPU     1569.95
 TTTTTTTTTTTTTTTTTTTTTTTTTTTTTT MONMO3      TELAPSE     1662.20 TCPU     1573.46
 NUMERICALLY INTEGRATED DENSITY    391.9999829893
 TTTTTTTTTTTTTTTTTTTTTTTTTTTTTT NUMDFT      TELAPSE     1669.54 TCPU     1580.75
 CYC  13 ETOT(AU) -5.970060671189E+03 DETOT -6.07E-07 tst  4.75E-09 PX  1.34E-04
 TTTTTTTTTTTTTTTTTTTTTTTTTTTTTT DIIS        TELAPSE     1669.76 TCPU     1580.97
 DIIS TEST: 0.10043E-05 AT SCF   CYCLE  13 - DIIS ACTIVE - HISTORY:    13 CYCLES
 TTTTTTTTTTTTTTTTTTTTTTTTTTTTTT FDIK        TELAPSE     1678.88 TCPU     1589.51
 INSULATING STATE
 TOP OF VALENCE BANDS -    BAND    196; K    5; EIG -2.5357375E-01 AU
 TOP OF VALENCE BANDS -    BAND    196; K    1; EIG -2.5561957E-01 AU
 BOTTOM OF VIRTUAL BANDS - BAND    197; K    1; EIG -1.2205949E-01 AU
 INDIRECT ENERGY BAND GAP:   3.5787 eV
 TTTTTTTTTTTTTTTTTTTTTTTTTTTTTT PDIG        TELAPSE     1679.40 TCPU     1590.03
 TOTAL ATOMIC CHARGES:
   1.1170066   1.1170066   1.1170066   1.1170066   0.9778317   0.9778317
   0.9778317   0.9778317   1.1974728   1.1974728   1.1974728   1.1974728
   6.1449530   6.1449530   6.1449530   6.1449530   5.8243089   5.8243089
[...]
 TTTTTTTTTTTTTTTTTTTTTTTTTTTTTT MOQGAD      TELAPSE   363798.50 TCPU   361279.17
 TTTTTTTTTTTTTTTTTTTTTTTTTTTTTT CP_MONMON   TELAPSE   363816.71 TCPU   361297.33
 DIIS TEST: 0.10191E+03 AT CPHF  CYCLE   1 - MIX    0 %
 CYCLE   1   ALPHA  217.409416  EPSILON    1.582404  DELTA   -3.5843E+02
 TTTTTTTTTTTTTTTTTTTTTTTTTTTTTT MOQGAD      TELAPSE   364641.58 TCPU   362113.03
 TTTTTTTTTTTTTTTTTTTTTTTTTTTTTT CP_MONMON   TELAPSE   364659.70 TCPU   362131.10
 DIIS TEST: 0.83754E+03 AT CPHF  CYCLE   2 - DIIS ACTIVE - HISTORY:     2 CYCLES
 CYCLE   2   ALPHA  406.592525  EPSILON    2.089194  DELTA    1.8918E+02
 TTTTTTTTTTTTTTTTTTTTTTTTTTTTTT MOQGAD      TELAPSE   365495.38 TCPU   362961.00
 TTTTTTTTTTTTTTTTTTTTTTTTTTTTTT CP_MONMON   TELAPSE   365513.51 TCPU   362979.08
 DIIS TEST: 0.10849E+03 AT CPHF  CYCLE   3 - DIIS ACTIVE - HISTORY:     3 CYCLES
 CYCLE   3   ALPHA  424.731521  EPSILON    2.137785  DELTA    1.8139E+01
 TTTTTTTTTTTTTTTTTTTTTTTTTTTTTT MOQGAD      TELAPSE   366343.11 TCPU   363800.14
 TTTTTTTTTTTTTTTTTTTTTTTTTTTTTT CP_MONMON   TELAPSE   366361.10 TCPU   363818.03
 DIIS TEST: 0.99465E+03 AT CPHF  CYCLE   4 - DIIS ACTIVE - HISTORY:     4 CYCLES
 CYCLE   4   ALPHA  424.736090  EPSILON    2.137798  DELTA    4.5690E-03
 TTTTTTTTTTTTTTTTTTTTTTTTTTTTTT MOQGAD      TELAPSE   367177.60 TCPU   364628.93
 TTTTTTTTTTTTTTTTTTTTTTTTTTTTTT CP_MONMON   TELAPSE   367195.88 TCPU   364647.13
 DIIS TEST: 0.10479E+04 AT CPHF  CYCLE   5 - DIIS ACTIVE - HISTORY:     5 CYCLES
 CYCLE   5   ALPHA  437.802261  EPSILON    2.172800  DELTA    1.3066E+01
 TTTTTTTTTTTTTTTTTTTTTTTTTTTTTT MOQGAD      TELAPSE   367999.37 TCPU   365443.66
 TTTTTTTTTTTTTTTTTTTTTTTTTTTTTT CP_MONMON   TELAPSE   368017.49 TCPU   365461.73
 DIIS TEST: 0.55076E+01 AT CPHF  CYCLE   6 - DIIS ACTIVE - HISTORY:     6 CYCLES
 CYCLE   6   ALPHA  438.817970  EPSILON    2.175521  DELTA    1.0157E+00
 TTTTTTTTTTTTTTTTTTTTTTTTTTTTTT MOQGAD      TELAPSE   368822.77 TCPU   366256.92
 TTTTTTTTTTTTTTTTTTTTTTTTTTTTTT CP_MONMON   TELAPSE   368840.77 TCPU   366274.88
 DIIS TEST: 0.37820E+01 AT CPHF  CYCLE   7 - DIIS ACTIVE - HISTORY:     7 CYCLES
 CYCLE   7   ALPHA  439.295579  EPSILON    2.176800  DELTA    4.7761E-01
 TTTTTTTTTTTTTTTTTTTTTTTTTTTTTT MOQGAD      TELAPSE   369676.75 TCPU   367098.91
 TTTTTTTTTTTTTTTTTTTTTTTTTTTTTT CP_MONMON   TELAPSE   369694.74 TCPU   367116.85
 DIIS TEST: 0.10343E+02 AT CPHF  CYCLE   8 - DIIS ACTIVE - HISTORY:     8 CYCLES
 CYCLE   8   ALPHA  439.284655  EPSILON    2.176771  DELTA   -1.0925E-02
 TTTTTTTTTTTTTTTTTTTTTTTTTTTTTT MOQGAD      TELAPSE   370500.62 TCPU   367913.50
 TTTTTTTTTTTTTTTTTTTTTTTTTTTTTT CP_MONMON   TELAPSE   370519.36 TCPU   367932.20
 DIIS TEST: 0.37801E+01 AT CPHF  CYCLE   9 - DIIS ACTIVE - HISTORY:     9 CYCLES
 CYCLE   9   ALPHA  439.508537  EPSILON    2.177370  DELTA    2.2388E-01
 TTTTTTTTTTTTTTTTTTTTTTTTTTTTTT MOQGAD      TELAPSE   371349.10 TCPU   368752.47
 TTTTTTTTTTTTTTTTTTTTTTTTTTTTTT CP_MONMON   TELAPSE   371367.08 TCPU   368770.39
 DIIS TEST: 0.11581E+01 AT CPHF  CYCLE  10 - DIIS ACTIVE - HISTORY:    10 CYCLES
 CYCLE  10   ALPHA  439.598499  EPSILON    2.177611  DELTA    8.9962E-02
 TTTTTTTTTTTTTTTTTTTTTTTTTTTTTT MOQGAD      TELAPSE   372169.76 TCPU   369569.12
 TTTTTTTTTTTTTTTTTTTTTTTTTTTTTT CP_MONMON   TELAPSE   372187.72 TCPU   369587.01
 DIIS TEST: 0.23255E+00 AT CPHF  CYCLE  11 - DIIS ACTIVE - HISTORY:    11 CYCLES
 CYCLE  11   ALPHA  439.597790  EPSILON    2.177610  DELTA   -7.0942E-04
 TTTTTTTTTTTTTTTTTTTTTTTTTTTTTT CP_SC       TELAPSE   372225.06 TCPU   369618.00

 *******************************************************************************

 POLARIZABILITY (ALPHA), DIELECTRIC (EPSILON) AND FIRST-ORDER ELECTRIC
 SUSCEPTIBILITY (CHI(1)) TENSORS (INDEPENDENT COMPONENTS)

  FR.(eV) COMP.   ALPHA(Re,Im)           EPSILON(Re,Im)                CHI(1)
  1.435   XX     816.6349       0.0000       3.1876       0.0000       2.1876
  1.435   ZZ     439.5978       0.0000       2.1776       0.0000       1.1776

 DIELECTRIC TENSOR

 TENSOR IN PRINCIPAL AXES SYSTEM
 AA  3.187630E+00 BB  3.187630E+00 CC  2.177610E+00

 REFRACTIVE INDICES 
 AA  1.475673E+00 BB  1.785393E+00 CC  1.785393E+00

 OPTICALLY ANISOTROPIC - UNIAXIAL CRYSTAL

 BIREFRINGENCE =  0.3097 (NEGATIVE) - OBLATE OPTICAL ELLIPSOID

 EPSILON=N**2=1+CHI(1)=1+ALPHA*4*PI/V,   4*PI/V=   0.00268 BOHR**(-3)
 ALPHA IN BOHR**3; EPSILON AND CHI(1) ARE DIMENSIONLESS.
 *******************************************************************************

 DYNAMIC FIELD: RUN 10/ 10 - RADIATION WAVELENGTH: 1064.0000 NM

 *******************************************************************************

 ELECTRIC FIELD APPLIED ALONG CARTESIAN DIRECTION X

 *******************************************************************************
 THE NUMBER OF SYMMETRY OPERATORS HAS BEEN REDUCED FROM  4 TO  1

 NEW GRID IN RECIPROCAL SPACE
 *******************************************************************************
 POINTS IN THE IBZ                  14 SHRINKING FACTORS               3  3  3
 *******************************************************************************
 *** K POINTS COORDINATES (OBLIQUE COORDINATES IN UNITS OF SHRINK FAC. )
   1-R(  0  0  0)   2-C(  1  0  0)   3-C(  0  1  2)   4-C(  2  0  1)
   5-C(  0  2  0)   6-C(  1  1  0)   7-C(  1  1  1)   8-C(  1  0  1)
   9-C(  0  1  1)  10-C(  2  1  0)  11-C(  0  0  2)  12-C(  2  1  1)
  13-C(  2  1  2)  14-C(  2  2  1)

 GCALCO - MAX INDICES DIRECT LATTICE VECTOR    14    14    16
 NO.OF VECTORS CREATED 6999 STARS  481 RMAX   199.04463 BOHR
 TTTTTTTTTTTTTTTTTTTTTTTTTTTTTT gordsh1     TELAPSE   372225.07 TCPU   369618.01

 MATRIX SIZE: P(G) 1837040, F(G)  919300, P(G) IRR  920994, F(G) IRR  920994
 MAX G-VECTOR INDEX FOR 1- AND 2-ELECTRON INTEGRALS  63

 TTTTTTTTTTTTTTTTTTTTTTTTTTTTTT INPUT       TELAPSE   372225.44 TCPU   369618.34
 TTTTTTTTTTTTTTTTTTTTTTTTTTTTTT SYMM        TELAPSE   372225.44 TCPU   369618.34

 ***** NEW REFERENCE GEOMETRY *****
 TTTTTTTTTTTTTTTTTTTTTTTTTTTTTT INT_SCREEN  TELAPSE   372225.45 TCPU   369618.36
 INFORMATION **** EXCBUF **** EXCH. BIPO BUFFER: WORDS USED =           0

 DFT PARAMETERS

     ATOM       ELECTRONS   NET CHARGE   R(ANGSTROM)
   1   1  H       1.0000      0.0000     1.11000000
  13   6  C       6.0000      0.0000     0.77000000
  37   7  N       7.0000      0.0000     0.74000000
  57   9  F       9.0000      0.0000     0.72000000
  61  30  ZN     30.0000      0.0000     1.37000000

 SIZE OF GRID=    1840730
 TTTTTTTTTTTTTTTTTTTTTTTTTTTTTT MAKE_GRID2  TELAPSE   372227.93 TCPU   369620.82
 BECKE WEIGHT FUNCTION
 RADSAFE =     2.00
 TOLERANCES - DENSITY:10**- 6; POTENTIAL:10**- 9; GRID WGT:10**-14

 RADIAL INTEGRATION  - INTERVALS (POINTS,UPPER LIMIT):            1( 75,  4.0*R)

 ANGULAR INTEGRATION - INTERVALS (ACCURACY LEVEL [N. POINTS] UPPER LIMIT):
  1(  4[  86]   0.2)  2(  8[ 194]   0.5)  3( 12[ 350]   0.9)  4( 16[ 974]   3.5)
  5( 12[ 350]9999.0)
 TTTTTTTTTTTTTTTTTTTTTTTTTTTTTT INT_CALC    TELAPSE   372228.05 TCPU   369620.94
 CYCLE   0   ALPHA 1143.468149  EPSILON    4.063162  DELTA    1.1435E+03
 TTTTTTTTTTTTTTTTTTTTTTTTTTTTTT MOQGAD      TELAPSE   373862.14 TCPU   371249.65
 TTTTTTTTTTTTTTTTTTTTTTTTTTTTTT CP_MONMON   TELAPSE   373895.94 TCPU   371283.36
 DIIS TEST: 0.30885E+03 AT CPHF  CYCLE   1 - MIX    0 %
 CYCLE   1   ALPHA   73.050827  EPSILON    1.195691  DELTA   -1.0704E+03
 TTTTTTTTTTTTTTTTTTTTTTTTTTTTTT MOQGAD      TELAPSE   375521.28 TCPU   372899.38
 TTTTTTTTTTTTTTTTTTTTTTTTTTTTTT CP_MONMON   TELAPSE   375555.04 TCPU   372932.98
 DIIS TEST: 0.24202E+04 AT CPHF  CYCLE   2 - DIIS ACTIVE - HISTORY:     2 CYCLES
 CYCLE   2   ALPHA  754.777358  EPSILON    3.021923  DELTA    6.8173E+02
 TTTTTTTTTTTTTTTTTTTTTTTTTTTTTT MOQGAD      TELAPSE   377180.96 TCPU   374548.52
 TTTTTTTTTTTTTTTTTTTTTTTTTTTTTT CP_MONMON   TELAPSE   377214.81 TCPU   374582.24
 DIIS TEST: 0.43656E+02 AT CPHF  CYCLE   3 - DIIS ACTIVE - HISTORY:     3 CYCLES
 CYCLE   3   ALPHA  788.414597  EPSILON    3.112032  DELTA    3.3637E+01
 TTTTTTTTTTTTTTTTTTTTTTTTTTTTTT MOQGAD      TELAPSE   378889.62 TCPU   376247.44
 TTTTTTTTTTTTTTTTTTTTTTTTTTTTTT CP_MONMON   TELAPSE   378923.47 TCPU   376281.20
 DIIS TEST: 0.33897E+01 AT CPHF  CYCLE   4 - DIIS ACTIVE - HISTORY:     4 CYCLES
 CYCLE   4   ALPHA  800.928490  EPSILON    3.145555  DELTA    1.2514E+01
 TTTTTTTTTTTTTTTTTTTTTTTTTTTTTT MOQGAD      TELAPSE   380609.31 TCPU   377956.39
 TTTTTTTTTTTTTTTTTTTTTTTTTTTTTT CP_MONMON   TELAPSE   380642.87 TCPU   377989.87
 DIIS TEST: 0.10922E+01 AT CPHF  CYCLE   5 - DIIS ACTIVE - HISTORY:     5 CYCLES
 CYCLE   5   ALPHA  804.500489  EPSILON    3.155123  DELTA    3.5720E+00
 TTTTTTTTTTTTTTTTTTTTTTTTTTTTTT MOQGAD      TELAPSE   382298.08 TCPU   379637.90
 TTTTTTTTTTTTTTTTTTTTTTTTTTTTTT CP_MONMON   TELAPSE   382331.80 TCPU   379671.51
 DIIS TEST: 0.64104E-01 AT CPHF  CYCLE   6 - DIIS ACTIVE - HISTORY:     6 CYCLES
 CYCLE   6   ALPHA  805.597363  EPSILON    3.158062  DELTA    1.0969E+00
 TTTTTTTTTTTTTTTTTTTTTTTTTTTTTT MOQGAD      TELAPSE   384005.31 TCPU   381336.56
 TTTTTTTTTTTTTTTTTTTTTTTTTTTTTT CP_MONMON   TELAPSE   384038.89 TCPU   381370.05
 DIIS TEST: 0.43335E+00 AT CPHF  CYCLE   7 - DIIS ACTIVE - HISTORY:     7 CYCLES
 CYCLE   7   ALPHA  805.688071  EPSILON    3.158305  DELTA    9.0708E-02
 TTTTTTTTTTTTTTTTTTTTTTTTTTTTTT MOQGAD      TELAPSE   385742.98 TCPU   383064.71
 TTTTTTTTTTTTTTTTTTTTTTTTTTTTTT CP_MONMON   TELAPSE   385776.68 TCPU   383098.18
 DIIS TEST: 0.34131E-01 AT CPHF  CYCLE   8 - DIIS ACTIVE - HISTORY:     8 CYCLES
 CYCLE   8   ALPHA  805.836804  EPSILON    3.158703  DELTA    1.4873E-01
 TTTTTTTTTTTTTTTTTTTTTTTTTTTTTT MOQGAD      TELAPSE   387425.21 TCPU   384737.10
 TTTTTTTTTTTTTTTTTTTTTTTTTTTTTT CP_MONMON   TELAPSE   387458.76 TCPU   384770.57
 DIIS TEST: 0.78972E-03 AT CPHF  CYCLE   9 - DIIS ACTIVE - HISTORY:     9 CYCLES
 CYCLE   9   ALPHA  805.868469  EPSILON    3.158788  DELTA    3.1665E-02
 TTTTTTTTTTTTTTTTTTTTTTTTTTTTTT MOQGAD      TELAPSE   389080.58 TCPU   386381.22
 TTTTTTTTTTTTTTTTTTTTTTTTTTTTTT CP_MONMON   TELAPSE   389114.35 TCPU   386414.89
 DIIS TEST: 0.10990E-03 AT CPHF  CYCLE  10 - DIIS ACTIVE - HISTORY:    10 CYCLES
 CYCLE  10   ALPHA  805.839938  EPSILON    3.158712  DELTA   -2.8531E-02
 TTTTTTTTTTTTTTTTTTTTTTTTTTTTTT MOQGAD      TELAPSE   390743.19 TCPU   388030.82
 TTTTTTTTTTTTTTTTTTTTTTTTTTTTTT CP_MONMON   TELAPSE   390776.93 TCPU   388064.49
 DIIS TEST: 0.14440E-04 AT CPHF  CYCLE  11 - DIIS ACTIVE - HISTORY:    11 CYCLES
 CYCLE  11   ALPHA  805.828260  EPSILON    3.158680  DELTA   -1.1678E-02
 TTTTTTTTTTTTTTTTTTTTTTTTTTTTTT MOQGAD      TELAPSE   392449.49 TCPU   389726.67
 TTTTTTTTTTTTTTTTTTTTTTTTTTTTTT CP_MONMON   TELAPSE   392483.02 TCPU   389760.07
 DIIS TEST: 0.22455E-05 AT CPHF  CYCLE  12 - DIIS ACTIVE - HISTORY:    12 CYCLES
 CYCLE  12   ALPHA  805.823084  EPSILON    3.158666  DELTA   -5.1766E-03
 TTTTTTTTTTTTTTTTTTTTTTTTTTTTTT MOQGAD      TELAPSE   394173.32 TCPU   391440.71
 TTTTTTTTTTTTTTTTTTTTTTTTTTTTTT CP_MONMON   TELAPSE   394207.06 TCPU   391474.31
 DIIS TEST: 0.19070E-06 AT CPHF  CYCLE  13 - DIIS ACTIVE - HISTORY:    13 CYCLES
 CYCLE  13   ALPHA  805.821788  EPSILON    3.158663  DELTA   -1.2960E-03
 TTTTTTTTTTTTTTTTTTTTTTTTTTTTTT MOQGAD      TELAPSE   395942.24 TCPU   393196.03
 TTTTTTTTTTTTTTTTTTTTTTTTTTTTTT CP_MONMON   TELAPSE   395975.82 TCPU   393229.41
 DIIS TEST: 0.11967E-07 AT CPHF  CYCLE  14 - DIIS ACTIVE - HISTORY:    14 CYCLES
 CYCLE  14   ALPHA  805.821351  EPSILON    3.158662  DELTA   -4.3660E-04
 TTTTTTTTTTTTTTTTTTTTTTTTTTTTTT CP_SC       TELAPSE   396038.13 TCPU   393268.54

 *******************************************************************************

 ELECTRIC FIELD APPLIED ALONG CARTESIAN DIRECTION Z

 *******************************************************************************
 THE NUMBER OF SYMMETRY OPERATORS HAS BEEN REDUCED FROM  4 TO  2

 NEW GRID IN RECIPROCAL SPACE
 *******************************************************************************
 POINTS IN THE IBZ                  10 SHRINKING FACTORS               3  3  3
 *******************************************************************************
 *** K POINTS COORDINATES (OBLIQUE COORDINATES IN UNITS OF SHRINK FAC. )
   1-R(  0  0  0)   2-C(  1  0  0)   3-C(  2  0  1)   4-C(  1  1  0)
   5-C(  1  0  1)   6-C(  2  1  0)   7-C(  0  0  2)   8-C(  2  1  1)
   9-C(  2  1  2)  10-C(  2  2  1)

 GCALCO - MAX INDICES DIRECT LATTICE VECTOR    14    14    16
 NO.OF VECTORS CREATED 6999 STARS  481 RMAX   199.04463 BOHR
 TTTTTTTTTTTTTTTTTTTTTTTTTTTTTT gordsh1     TELAPSE   396038.14 TCPU   393268.55

 MATRIX SIZE: P(G) 1837040, F(G)  919300, P(G) IRR  463012, F(G) IRR  463012
 MAX G-VECTOR INDEX FOR 1- AND 2-ELECTRON INTEGRALS  63

 TTTTTTTTTTTTTTTTTTTTTTTTTTTTTT INPUT       TELAPSE   396038.23 TCPU   393268.64
 TTTTTTTTTTTTTTTTTTTTTTTTTTTTTT SYMM        TELAPSE   396038.23 TCPU   393268.64

 ***** NEW REFERENCE GEOMETRY *****
 TTTTTTTTTTTTTTTTTTTTTTTTTTTTTT INT_SCREEN  TELAPSE   396038.24 TCPU   393268.65
 INFORMATION **** EXCBUF **** EXCH. BIPO BUFFER: WORDS USED =           0

 DFT PARAMETERS

     ATOM       ELECTRONS   NET CHARGE   R(ANGSTROM)
   1   1  H       1.0000      0.0000     1.11000000
  13   6  C       6.0000      0.0000     0.77000000
  37   7  N       7.0000      0.0000     0.74000000
  57   9  F       9.0000      0.0000     0.72000000
  61  30  ZN     30.0000      0.0000     1.37000000

 SIZE OF GRID=     920478
 TTTTTTTTTTTTTTTTTTTTTTTTTTTTTT MAKE_GRID2  TELAPSE   396039.74 TCPU   393270.14
 BECKE WEIGHT FUNCTION
 RADSAFE =     2.00
 TOLERANCES - DENSITY:10**- 6; POTENTIAL:10**- 9; GRID WGT:10**-14

 RADIAL INTEGRATION  - INTERVALS (POINTS,UPPER LIMIT):            1( 75,  4.0*R)

 ANGULAR INTEGRATION - INTERVALS (ACCURACY LEVEL [N. POINTS] UPPER LIMIT):
  1(  4[  86]   0.2)  2(  8[ 194]   0.5)  3( 12[ 350]   0.9)  4( 16[ 974]   3.5)
  5( 12[ 350]9999.0)
 TTTTTTTTTTTTTTTTTTTTTTTTTTTTTT INT_CALC    TELAPSE   396039.81 TCPU   393270.21
 CYCLE   0   ALPHA  570.307792  EPSILON    2.527760  DELTA    5.7031E+02
 TTTTTTTTTTTTTTTTTTTTTTTTTTTTTT MOQGAD      TELAPSE   396848.60 TCPU   394075.97
 TTTTTTTTTTTTTTTTTTTTTTTTTTTTTT CP_MONMON   TELAPSE   396866.72 TCPU   394094.01
 DIIS TEST: 0.98591E+02 AT CPHF  CYCLE   1 - MIX    0 %
 CYCLE   1   ALPHA  222.076389  EPSILON    1.594906  DELTA   -3.4823E+02
 TTTTTTTTTTTTTTTTTTTTTTTTTTTTTT MOQGAD      TELAPSE   397697.85 TCPU   394912.84
 TTTTTTTTTTTTTTTTTTTTTTTTTTTTTT CP_MONMON   TELAPSE   397715.78 TCPU   394930.73
 DIIS TEST: 0.77537E+03 AT CPHF  CYCLE   2 - DIIS ACTIVE - HISTORY:     2 CYCLES
 CYCLE   2   ALPHA  405.384940  EPSILON    2.085959  DELTA    1.8331E+02
 TTTTTTTTTTTTTTTTTTTTTTTTTTTTTT MOQGAD      TELAPSE   398559.35 TCPU   395755.48
 TTTTTTTTTTTTTTTTTTTTTTTTTTTTTT CP_MONMON   TELAPSE   398577.46 TCPU   395773.53
 DIIS TEST: 0.79320E+02 AT CPHF  CYCLE   3 - DIIS ACTIVE - HISTORY:     3 CYCLES
 CYCLE   3   ALPHA  423.221017  EPSILON    2.133739  DELTA    1.7836E+01
 TTTTTTTTTTTTTTTTTTTTTTTTTTTTTT MOQGAD      TELAPSE   399416.76 TCPU   396606.69
 TTTTTTTTTTTTTTTTTTTTTTTTTTTTTT CP_MONMON   TELAPSE   399434.79 TCPU   396624.63
 DIIS TEST: 0.10558E+04 AT CPHF  CYCLE   4 - DIIS ACTIVE - HISTORY:     4 CYCLES
 CYCLE   4   ALPHA  423.218194  EPSILON    2.133731  DELTA   -2.8235E-03
 TTTTTTTTTTTTTTTTTTTTTTTTTTTTTT MOQGAD      TELAPSE   400241.83 TCPU   397425.39
 TTTTTTTTTTTTTTTTTTTTTTTTTTTTTT CP_MONMON   TELAPSE   400259.95 TCPU   397443.43
 DIIS TEST: 0.97207E+03 AT CPHF  CYCLE   5 - DIIS ACTIVE - HISTORY:     5 CYCLES
 CYCLE   5   ALPHA  434.727554  EPSILON    2.164563  DELTA    1.1509E+01
 TTTTTTTTTTTTTTTTTTTTTTTTTTTTTT MOQGAD      TELAPSE   401080.38 TCPU   398253.52
 TTTTTTTTTTTTTTTTTTTTTTTTTTTTTT CP_MONMON   TELAPSE   401098.32 TCPU   398271.38
 DIIS TEST: 0.42632E+01 AT CPHF  CYCLE   6 - DIIS ACTIVE - HISTORY:     6 CYCLES
 CYCLE   6   ALPHA  435.701914  EPSILON    2.167173  DELTA    9.7436E-01
 TTTTTTTTTTTTTTTTTTTTTTTTTTTTTT MOQGAD      TELAPSE   401921.50 TCPU   399080.46
 TTTTTTTTTTTTTTTTTTTTTTTTTTTTTT CP_MONMON   TELAPSE   401941.86 TCPU   399100.77
 DIIS TEST: 0.28753E+01 AT CPHF  CYCLE   7 - DIIS ACTIVE - HISTORY:     7 CYCLES
 CYCLE   7   ALPHA  436.150762  EPSILON    2.168376  DELTA    4.4885E-01
 TTTTTTTTTTTTTTTTTTTTTTTTTTTTTT MOQGAD      TELAPSE   402753.75 TCPU   399905.38
 TTTTTTTTTTTTTTTTTTTTTTTTTTTTTT CP_MONMON   TELAPSE   402771.87 TCPU   399923.43
 DIIS TEST: 0.72625E+01 AT CPHF  CYCLE   8 - DIIS ACTIVE - HISTORY:     8 CYCLES
 CYCLE   8   ALPHA  436.147434  EPSILON    2.168367  DELTA   -3.3286E-03
 TTTTTTTTTTTTTTTTTTTTTTTTTTTTTT MOQGAD      TELAPSE   403600.64 TCPU   400744.83
 TTTTTTTTTTTTTTTTTTTTTTTTTTTTTT CP_MONMON   TELAPSE   403620.19 TCPU   400764.30
 DIIS TEST: 0.26412E+01 AT CPHF  CYCLE   9 - DIIS ACTIVE - HISTORY:     9 CYCLES
 CYCLE   9   ALPHA  436.351291  EPSILON    2.168913  DELTA    2.0386E-01
 TTTTTTTTTTTTTTTTTTTTTTTTTTTTTT MOQGAD      TELAPSE   404429.67 TCPU   401564.63
 TTTTTTTTTTTTTTTTTTTTTTTTTTTTTT CP_MONMON   TELAPSE   404450.04 TCPU   401584.96
 DIIS TEST: 0.12882E+01 AT CPHF  CYCLE  10 - DIIS ACTIVE - HISTORY:    10 CYCLES
 CYCLE  10   ALPHA  436.425024  EPSILON    2.169110  DELTA    7.3734E-02
 TTTTTTTTTTTTTTTTTTTTTTTTTTTTTT MOQGAD      TELAPSE   405273.78 TCPU   402398.28
 TTTTTTTTTTTTTTTTTTTTTTTTTTTTTT CP_MONMON   TELAPSE   405291.93 TCPU   402416.37
 DIIS TEST: 0.19312E+00 AT CPHF  CYCLE  11 - DIIS ACTIVE - HISTORY:    11 CYCLES
 CYCLE  11   ALPHA  436.424874  EPSILON    2.169110  DELTA   -1.5084E-04
 TTTTTTTTTTTTTTTTTTTTTTTTTTTTTT CP_SC       TELAPSE   405329.29 TCPU   402445.24

 *******************************************************************************

 POLARIZABILITY (ALPHA), DIELECTRIC (EPSILON) AND FIRST-ORDER ELECTRIC
 SUSCEPTIBILITY (CHI(1)) TENSORS (INDEPENDENT COMPONENTS)

  FR.(eV) COMP.   ALPHA(Re,Im)           EPSILON(Re,Im)                CHI(1)
  1.165   XX     805.8214       0.0000       3.1587       0.0000       2.1587
  1.165   ZZ     436.4249       0.0000       2.1691       0.0000       1.1691

 DIELECTRIC TENSOR

 TENSOR IN PRINCIPAL AXES SYSTEM
 AA  3.158662E+00 BB  3.158662E+00 CC  2.169110E+00

 REFRACTIVE INDICES 
 AA  1.472790E+00 BB  1.777262E+00 CC  1.777262E+00

 OPTICALLY ANISOTROPIC - UNIAXIAL CRYSTAL

 BIREFRINGENCE =  0.3045 (NEGATIVE) - OBLATE OPTICAL ELLIPSOID

 EPSILON=N**2=1+CHI(1)=1+ALPHA*4*PI/V,   4*PI/V=   0.00268 BOHR**(-3)
 ALPHA IN BOHR**3; EPSILON AND CHI(1) ARE DIMENSIONLESS.
 *******************************************************************************


 GCALCO - MAX INDICES DIRECT LATTICE VECTOR    14    14    16
 NO.OF VECTORS CREATED 6999 STARS  481 RMAX   199.04463 BOHR

 CAPPA:IS1  3;IS2  3;IS3  3; K PTS MONK NET   6; SYMMOPS:K SPACE   8;G SPACE   4

 TTTTTTTTTTTTTTTTTTTTTTTTTTTTTT END         TELAPSE   405329.37 TCPU   402445.24
 EEEEEEEEEE TERMINATION  DATE 01 12 2023 TIME 20:38:16.0
NODE    0 CPU TIME =    402445.244
NODE    1 CPU TIME =    403152.745
NODE    2 CPU TIME =    402521.724
NODE    3 CPU TIME =    402370.634
NODE    4 CPU TIME =    402867.558
NODE    5 CPU TIME =    403109.619
NODE    6 CPU TIME =    402411.267
NODE    7 CPU TIME =    402336.559
NODE    8 CPU TIME =    402762.245
NODE    9 CPU TIME =    403027.154
NODE   10 CPU TIME =    402398.470
NODE   11 CPU TIME =    402240.216
NODE   12 CPU TIME =    402604.245
NODE   13 CPU TIME =    402888.051
NODE   14 CPU TIME =    402087.290
NODE   15 CPU TIME =    401946.203
NODE   16 CPU TIME =    402407.683
NODE   17 CPU TIME =    402697.985
NODE   18 CPU TIME =    402023.411
NODE   19 CPU TIME =    401932.543
NODE   20 CPU TIME =    402330.548
NODE   21 CPU TIME =    402774.983
NODE   22 CPU TIME =    402046.064
NODE   23 CPU TIME =    401687.511
    TOTAL CPU TIME =   9659069.951
trying normal rsh (/usr/bin/rsh)
exec: No such file or directory
trying normal rsh (/usr/bin/rsh)
exec: No such file or directory
trying normal rsh (/usr/bin/rsh)
exec: No such file or directory
trying normal rsh (/usr/bin/rsh)
exec: No such file or directory
