Loading crystal17/1.0.2/intel/19.0
  Loading requirement: intel/19.0 ompi/4.0.1/intel/19.0
 PROCESS            0  OF           24  WORKING
 PROCESS            1  OF           24  WORKING
 PROCESS            3  OF           24  WORKING
 PROCESS            4  OF           24  WORKING
 PROCESS            5  OF           24  WORKING
 PROCESS            7  OF           24  WORKING
 PROCESS            8  OF           24  WORKING
 PROCESS            9  OF           24  WORKING
 PROCESS           10  OF           24  WORKING
 PROCESS           11  OF           24  WORKING
 PROCESS           12  OF           24  WORKING
 PROCESS           13  OF           24  WORKING
 PROCESS           14  OF           24  WORKING
 PROCESS           15  OF           24  WORKING
 PROCESS           16  OF           24  WORKING
 PROCESS           17  OF           24  WORKING
 PROCESS           18  OF           24  WORKING
 PROCESS           19  OF           24  WORKING
 PROCESS           20  OF           24  WORKING
 PROCESS           21  OF           24  WORKING
 PROCESS           22  OF           24  WORKING
 PROCESS           23  OF           24  WORKING
 PROCESS            2  OF           24  WORKING
 PROCESS            6  OF           24  WORKING

         
 *******************************************************************************
 *                                                                             *
 *                               CRYSTAL17                                     *
 *                      public : 1.0.2 - March 1st, 2018                       *
 *                       HTTP://WWW.CRYSTAL.UNITO.IT                           *
 *                                                                             *
 *                              MAIN AUTHORS                                   *
 *                                                                             *
 *  R. DOVESI(1,11), V.R. SAUNDERS(2), C. ROETTI(1,11), R. ORLANDO(1,11),      *
 *  C.M. ZICOVICH-WILSON(1,3), F. PASCALE(4), B. CIVALLERI(1,11),              *
 *  K. DOLL(5), N.M. HARRISON(2,6), I.J. BUSH(7), Ph. D'ARCO(8),               *
 *  M. LLUNELL(9), M. CAUSA'(10), Y. NOEL(8), L. MASCHIO(1,11), A. ERBA(1,11)  *
 *  M. RE'RAT(14), S. CASASSA(1,11)                                            *
 *                                                                             *
 *        CONTRIBUTIONS TO THE CODE HAVE ALSO BEEN GIVEN BY                    *
 *                                                                             *
 *  M. FERRABONE(1,11), M. DE LA PIERRE(1,11), M. FERRERO(1,11),               *
 *  J. BAIMA(1,11), E. ALBANESE(1,11), M.F. PEINTINGER(12), R. BAST(13),       *
 *  B. KIRTMAN(15), V. LACIVITA(1,11), R. DEMICHELIS(1,16)                     *
 *  G. BRANDEBURG(17), S. SALUSTRO(1,11), G. SANSONE(1,11)                     *
 *  M.T. RUGGIERO(18)                                                          *
 *                                                                             *
 * (1) THEORETICAL CHEMISTRY GROUP - UNIVERSITA' DI TORINO - TORINO (ITALY)    *
 * (2) COMPUTATIONAL SCIENCE & ENGINEERING DEPARTMENT - STFC DARESBURY (UK)    *
 * (3) UNIVERSIDAD AUTONOMA DEL ESTADO DE MORELOS - CUERNAVACA (MEXICO)        *
 * (4) UNIVERSITE' DE LORRAINE - NANCY (FRANCE)                                *
 * (5) UNIVERSITAET STUTTGART- STUTTGART (GERMANY)                             *
 * (6) IMPERIAL COLLEGE - LONDON (UK)                                          *
 * (7) OXFORD E-RESEARCH CENTRE - OXFORD (UK)                                  *
 * (8) UPMC - SORBONNE UNIVERSITES - PARIS (FRANCE)                            *
 * (9) UNIVERSIDAD DE BARCELONA - BARCELONA (SPAIN)                            *
 *(10) UNIVERSITA' DI NAPOLI "FEDERICO II" - NAPOLI (ITALY)                    *
 *(11) NIS - NANOSTRUCTURED INTERFACES AND SURFACES - TORINO (ITALY)           *
 *(12) MPI FUER CHEMISCHE ENERGIEKONVERSION - MUELHEIM AN DER RUHR (GERMANY)   *
 *(13) UNIVERSITY OF TROMSO - TROMSO (NORWAY)                                  *
 *(14) UNIVERSITE' DE PAU ET DES PAYS DE L'ADOUR - PAU (FRANCE)                *
 *(15) UNIVERSITY OF CALIFORNIA SANTA BARBARA - SANTA BARBARA (USA)            *
 *(16) CURTIN UNIVERSITY - PERTH (AUSTRALIA)                                   *
 *(17) UNIVERSITY COLLEGE LONDON - LONDON (UK)                                 *
 *(18) CAMBRIDGE UNIVERSITY - CAMBRIDGE (UK)                                   *
 *                                                                             *
 *******************************************************************************
 EEEEEEEEEE STARTING  DATE 27 11 2023 TIME 09:11:13.4
 Z:\home\sanoj\Downloads\tmp_p\newconn.mol                                       

 CRYSTAL CALCULATION
 (INPUT ACCORDING TO THE INTERNATIONAL TABLES FOR X-RAY CRYSTALLOGRAPHY)
 CRYSTAL FAMILY                       :  TETRAGONAL  
 CRYSTAL CLASS  (GROTH - 1921)        :  TETRAGONAL DISPHENOIDAL              

 SPACE GROUP (NONCENTROSYMMETRIC)     :  I -4            

 LATTICE PARAMETERS  (ANGSTROMS AND DEGREES) - CONVENTIONAL CELL
        A           B           C        ALPHA        BETA       GAMMA
    10.49590    10.49590    12.52648    90.00000    90.00000    90.00000


 NUMBER OF IRREDUCIBLE ATOMS IN THE CONVENTIONAL CELL:   17

 INPUT COORDINATES

 ATOM AT. N.              COORDINATES
   1   1     5.588000000000E-02  7.784800000000E-01  3.595500000000E-01
   2   1     4.660000000000E-01  8.053800000000E-01  4.037400000000E-01
   3   1     8.338000000000E-02  5.396000000000E-01  3.560300000000E-01
   4   6     2.593400000000E-01  8.122700000000E-01  3.809300000000E-01
   5   6     2.522700000000E-01 -4.938000000000E-02  3.778300000000E-01
   6   6     1.501800000000E-01  7.356500000000E-01  3.686200000000E-01
   7   6     2.880600000000E-01  5.553400000000E-01  3.730600000000E-01
   8   6     3.779900000000E-01  7.512800000000E-01  3.914800000000E-01
   9   6     8.360200000000E-01  3.960100000000E-01  3.658200000000E-01
  10   7     3.447700000000E-01  2.788000000000E-02  3.391000000000E-01
  11   7     3.016000000000E-01  1.514900000000E-01  3.478700000000E-01
  12   7     1.537400000000E-01  2.433000000000E-02  4.098400000000E-01
  13   7     1.864500000000E-01  1.494300000000E-01  3.893700000000E-01
  14   7     3.921000000000E-01  6.243900000000E-01  3.861900000000E-01
  15   9     3.041600000000E-01  4.285900000000E-01  3.645300000000E-01
  16  30     0.000000000000E+00  5.000000000000E-01  7.500000000000E-01
  17  30     0.000000000000E+00  0.000000000000E+00  5.000000000000E-01

 *******************************************************************************

 << INFORMATION >>: FROM NOW ON, ALL COORDINATES REFER TO THE PRIMITIVE CELL

 *******************************************************************************

 LATTICE PARAMETERS  (ANGSTROMS AND DEGREES) - PRIMITIVE CELL
       A          B          C        ALPHA      BETA     GAMMA        VOLUME
    9.71134    9.71134    9.71134   114.57907 114.57907  99.67753    689.982636

 COORDINATES OF THE EQUIVALENT ATOMS (FRACTIONAL UNITS)

 N. ATOM EQUIV AT. N.          X                  Y                  Z

   1   1   1    1 H     1.38030000000E-01  4.15430000000E-01 -1.65640000000E-01
   2   1   2    1 H    -4.18930000000E-01  3.03670000000E-01  1.65640000000E-01
   3   1   3    1 H    -4.15430000000E-01  4.18930000000E-01 -2.77400000000E-01
   4   1   4    1 H    -3.03670000000E-01 -1.38030000000E-01  2.77400000000E-01

   5   2   1    1 H     2.09120000000E-01 -1.30260000000E-01  2.71380000000E-01
   6   2   2    1 H    -4.01640000000E-01 -6.22600000000E-02 -2.71380000000E-01
   7   2   3    1 H     1.30260000000E-01  4.01640000000E-01  3.39380000000E-01
   8   2   4    1 H     6.22600000000E-02 -2.09120000000E-01 -3.39380000000E-01

   9   3   1    1 H    -1.04370000000E-01  4.39410000000E-01 -3.77020000000E-01
  10   3   2    1 H    -1.83570000000E-01  2.72650000000E-01  3.77020000000E-01
  11   3   3    1 H    -4.39410000000E-01  1.83570000000E-01  4.56220000000E-01
  12   3   4    1 H    -2.72650000000E-01  1.04370000000E-01 -4.56220000000E-01

  13   4   1    6 C     1.93200000000E-01 -3.59730000000E-01  7.16100000000E-02
  14   4   2    6 C    -4.31340000000E-01  1.21590000000E-01 -7.16100000000E-02
  15   4   3    6 C     3.59730000000E-01  4.31340000000E-01 -4.47070000000E-01
  16   4   4    6 C    -1.21590000000E-01 -1.93200000000E-01  4.47070000000E-01

  17   5   1    6 C     3.28450000000E-01 -3.69900000000E-01  2.02890000000E-01
  18   5   2    6 C     4.27210000000E-01  1.25560000000E-01 -2.02890000000E-01
  19   5   3    6 C     3.69900000000E-01 -4.27210000000E-01 -3.01650000000E-01
  20   5   4    6 C    -1.25560000000E-01 -3.28450000000E-01  3.01650000000E-01

  21   6   1    6 C     1.04270000000E-01 -4.81200000000E-01 -1.14170000000E-01
  22   6   2    6 C    -3.67030000000E-01  2.18440000000E-01  1.14170000000E-01
  23   6   3    6 C     4.81200000000E-01  3.67030000000E-01 -4.14530000000E-01
  24   6   4    6 C    -2.18440000000E-01 -1.04270000000E-01  4.14530000000E-01

  25   7   1    6 C    -7.16000000000E-02 -3.38880000000E-01 -1.56600000000E-01
  26   7   2    6 C    -1.82280000000E-01  8.50000000000E-02  1.56600000000E-01
  27   7   3    6 C     3.38880000000E-01  1.82280000000E-01  2.67280000000E-01
  28   7   4    6 C    -8.50000000000E-02  7.16000000000E-02 -2.67280000000E-01

  29   8   1    6 C     1.42760000000E-01 -2.30530000000E-01  1.29270000000E-01
  30   8   2    6 C    -3.59800000000E-01  1.34900000000E-02 -1.29270000000E-01
  31   8   3    6 C     2.30530000000E-01  3.59800000000E-01  3.73290000000E-01
  32   8   4    6 C    -1.34900000000E-02 -1.42760000000E-01 -3.73290000000E-01

  33   9   1    6 C    -2.38170000000E-01  2.01840000000E-01  2.32030000000E-01
  34   9   2    6 C    -3.01900000000E-02 -4.70200000000E-01 -2.32030000000E-01
  35   9   3    6 C    -2.01840000000E-01  3.01900000000E-02 -4.40010000000E-01
  36   9   4    6 C     4.70200000000E-01  2.38170000000E-01  4.40010000000E-01

  37  10   1    7 N     3.66980000000E-01 -3.16130000000E-01  3.72650000000E-01
  38  10   2    7 N     3.11220000000E-01 -5.67000000000E-03 -3.72650000000E-01
  39  10   3    7 N     3.16130000000E-01 -3.11220000000E-01 -3.16890000000E-01
  40  10   4    7 N     5.67000000000E-03 -3.66980000000E-01  3.16890000000E-01

  41  11   1    7 N     4.99360000000E-01 -3.50530000000E-01  4.53090000000E-01
  42  11   2    7 N     1.96380000000E-01  4.62700000000E-02 -4.53090000000E-01
  43  11   3    7 N     3.50530000000E-01 -1.96380000000E-01 -1.50110000000E-01
  44  11   4    7 N    -4.62700000000E-02 -4.99360000000E-01  1.50110000000E-01

  45  12   1    7 N     4.34170000000E-01 -4.36420000000E-01  1.78070000000E-01
  46  12   2    7 N     3.85510000000E-01  2.56100000000E-01 -1.78070000000E-01
  47  12   3    7 N     4.36420000000E-01 -3.85510000000E-01 -1.29410000000E-01
  48  12   4    7 N    -2.56100000000E-01 -4.34170000000E-01  1.29410000000E-01

  49  13   1    7 N    -4.61200000000E-01 -4.24180000000E-01  3.35880000000E-01
  50  13   2    7 N     2.39940000000E-01  2.02920000000E-01 -3.35880000000E-01
  51  13   3    7 N     4.24180000000E-01 -2.39940000000E-01 -3.70200000000E-02
  52  13   4    7 N    -2.02920000000E-01  4.61200000000E-01  3.70200000000E-02

  53  14   1    7 N     1.05800000000E-02 -2.21710000000E-01  1.64900000000E-02
  54  14   2    7 N    -2.38200000000E-01 -5.91000000000E-03 -1.64900000000E-02
  55  14   3    7 N     2.21710000000E-01  2.38200000000E-01  2.32290000000E-01
  56  14   4    7 N     5.91000000000E-03 -1.05800000000E-02 -2.32290000000E-01

  57  15   1    9 F    -2.06880000000E-01 -3.31310000000E-01 -2.67250000000E-01
  58  15   2    9 F    -6.40600000000E-02  6.03700000000E-02  2.67250000000E-01
  59  15   3    9 F     3.31310000000E-01  6.40600000000E-02  1.24430000000E-01
  60  15   4    9 F    -6.03700000000E-02  2.06880000000E-01 -1.24430000000E-01

  61  16   1   30 ZN    2.50000000000E-01 -2.50000000000E-01 -5.00000000000E-01

  62  17   1   30 ZN   -5.00000000000E-01 -5.00000000000E-01  0.00000000000E+00

 NUMBER OF SYMMETRY OPERATORS         :    4
 *******************************************************************************
 * GEOMETRY EDITING - INPUT COORDINATES ARE GIVEN IN ANGSTROM         
 *******************************************************************************

 GEOMETRY NOW FULLY CONSISTENT WITH THE GROUP

 GCALCO - MAX INDICES DIRECT LATTICE VECTOR    14    14    16
 NO.OF VECTORS CREATED 6999 STARS  485 RMAX   198.94668 BOHR

 GEOMETRY FOR WAVE FUNCTION - DIMENSIONALITY OF THE SYSTEM    3
 (NON PERIODIC DIRECTION: LATTICE PARAMETER FORMALLY SET TO 500)
 *******************************************************************************
 LATTICE PARAMETERS (ANGSTROMS AND DEGREES) - BOHR = 0.5291772083 ANGSTROM
 PRIMITIVE CELL - CENTRING CODE 6/0 VOLUME=   689.982636 - DENSITY  1.887 g/cm^3
         A              B              C           ALPHA      BETA       GAMMA 
     9.71133841     9.71133841     9.71133841   114.579069 114.579069  99.677529
 *******************************************************************************
 ATOMS IN THE ASYMMETRIC UNIT   17 - ATOMS IN THE UNIT CELL:   62
     ATOM                 X/A                 Y/B                 Z/C    
 *******************************************************************************
      1 T   1 H     1.380300000000E-01  4.154300000000E-01 -1.656400000000E-01
      2 F   1 H    -4.189300000000E-01  3.036700000000E-01  1.656400000000E-01
      3 F   1 H    -4.154300000000E-01  4.189300000000E-01 -2.774000000000E-01
      4 F   1 H    -3.036700000000E-01 -1.380300000000E-01  2.774000000000E-01
      5 T   1 H     2.091200000000E-01 -1.302600000000E-01  2.713800000000E-01
      6 F   1 H    -4.016400000000E-01 -6.226000000000E-02 -2.713800000000E-01
      7 F   1 H     1.302600000000E-01  4.016400000000E-01  3.393800000000E-01
      8 F   1 H     6.226000000000E-02 -2.091200000000E-01 -3.393800000000E-01
      9 T   1 H    -1.043700000000E-01  4.394100000000E-01 -3.770200000000E-01
     10 F   1 H    -1.835700000000E-01  2.726500000000E-01  3.770200000000E-01
     11 F   1 H    -4.394100000000E-01  1.835700000000E-01  4.562200000000E-01
     12 F   1 H    -2.726500000000E-01  1.043700000000E-01 -4.562200000000E-01
     13 T   6 C     1.932000000000E-01 -3.597300000000E-01  7.161000000000E-02
     14 F   6 C    -4.313400000000E-01  1.215900000000E-01 -7.161000000000E-02
     15 F   6 C     3.597300000000E-01  4.313400000000E-01 -4.470700000000E-01
     16 F   6 C    -1.215900000000E-01 -1.932000000000E-01  4.470700000000E-01
     17 T   6 C     3.284500000000E-01 -3.699000000000E-01  2.028900000000E-01
     18 F   6 C     4.272100000000E-01  1.255600000000E-01 -2.028900000000E-01
     19 F   6 C     3.699000000000E-01 -4.272100000000E-01 -3.016500000000E-01
     20 F   6 C    -1.255600000000E-01 -3.284500000000E-01  3.016500000000E-01
     21 T   6 C     1.042700000000E-01 -4.812000000000E-01 -1.141700000000E-01
     22 F   6 C    -3.670300000000E-01  2.184400000000E-01  1.141700000000E-01
     23 F   6 C     4.812000000000E-01  3.670300000000E-01 -4.145300000000E-01
     24 F   6 C    -2.184400000000E-01 -1.042700000000E-01  4.145300000000E-01
     25 T   6 C    -7.160000000000E-02 -3.388800000000E-01 -1.566000000000E-01
     26 F   6 C    -1.822800000000E-01  8.500000000000E-02  1.566000000000E-01
     27 F   6 C     3.388800000000E-01  1.822800000000E-01  2.672800000000E-01
     28 F   6 C    -8.500000000000E-02  7.160000000000E-02 -2.672800000000E-01
     29 T   6 C     1.427600000000E-01 -2.305300000000E-01  1.292700000000E-01
     30 F   6 C    -3.598000000000E-01  1.349000000000E-02 -1.292700000000E-01
     31 F   6 C     2.305300000000E-01  3.598000000000E-01  3.732900000000E-01
     32 F   6 C    -1.349000000000E-02 -1.427600000000E-01 -3.732900000000E-01
     33 T   6 C    -2.381700000000E-01  2.018400000000E-01  2.320300000000E-01
     34 F   6 C    -3.019000000000E-02 -4.702000000000E-01 -2.320300000000E-01
     35 F   6 C    -2.018400000000E-01  3.019000000000E-02 -4.400100000000E-01
     36 F   6 C     4.702000000000E-01  2.381700000000E-01  4.400100000000E-01
     37 T   7 N     3.669800000000E-01 -3.161300000000E-01  3.726500000000E-01
     38 F   7 N     3.112200000000E-01 -5.670000000000E-03 -3.726500000000E-01
     39 F   7 N     3.161300000000E-01 -3.112200000000E-01 -3.168900000000E-01
     40 F   7 N     5.670000000000E-03 -3.669800000000E-01  3.168900000000E-01
     41 T   7 N     4.993600000000E-01 -3.505300000000E-01  4.530900000000E-01
     42 F   7 N     1.963800000000E-01  4.627000000000E-02 -4.530900000000E-01
     43 F   7 N     3.505300000000E-01 -1.963800000000E-01 -1.501100000000E-01
     44 F   7 N    -4.627000000000E-02 -4.993600000000E-01  1.501100000000E-01
     45 T   7 N     4.341700000000E-01 -4.364200000000E-01  1.780700000000E-01
     46 F   7 N     3.855100000000E-01  2.561000000000E-01 -1.780700000000E-01
     47 F   7 N     4.364200000000E-01 -3.855100000000E-01 -1.294100000000E-01
     48 F   7 N    -2.561000000000E-01 -4.341700000000E-01  1.294100000000E-01
     49 T   7 N    -4.612000000000E-01 -4.241800000000E-01  3.358800000000E-01
     50 F   7 N     2.399400000000E-01  2.029200000000E-01 -3.358800000000E-01
     51 F   7 N     4.241800000000E-01 -2.399400000000E-01 -3.702000000000E-02
     52 F   7 N    -2.029200000000E-01  4.612000000000E-01  3.702000000000E-02
     53 T   7 N     1.058000000000E-02 -2.217100000000E-01  1.649000000000E-02
     54 F   7 N    -2.382000000000E-01 -5.910000000000E-03 -1.649000000000E-02
     55 F   7 N     2.217100000000E-01  2.382000000000E-01  2.322900000000E-01
     56 F   7 N     5.910000000000E-03 -1.058000000000E-02 -2.322900000000E-01
     57 T   9 F    -2.068800000000E-01 -3.313100000000E-01 -2.672500000000E-01
     58 F   9 F    -6.406000000000E-02  6.037000000000E-02  2.672500000000E-01
     59 F   9 F     3.313100000000E-01  6.406000000000E-02  1.244300000000E-01
     60 F   9 F    -6.037000000000E-02  2.068800000000E-01 -1.244300000000E-01
     61 T  30 ZN    2.500000000000E-01 -2.500000000000E-01 -5.000000000000E-01
     62 T  30 ZN   -5.000000000000E-01 -5.000000000000E-01  0.000000000000E+00

 TRANSFORMATION MATRIX PRIMITIVE-CRYSTALLOGRAPHIC CELL
  0.0000  1.0000  1.0000  1.0000  0.0000  1.0000  1.0000  1.0000  0.0000

 *******************************************************************************
 CRYSTALLOGRAPHIC CELL (VOLUME=       1379.96527200)
         A              B              C           ALPHA      BETA       GAMMA 
    10.49589839    10.49589839    12.52647632    90.000000  90.000000  90.000000

 COORDINATES IN THE CRYSTALLOGRAPHIC CELL
     ATOM                 X/A                 Y/B                 Z/C    
 *******************************************************************************
      1 T   1 H     5.588000000000E-02 -2.215200000000E-01  3.595500000000E-01
      2 F   1 H    -5.588000000000E-02  2.215200000000E-01  3.595500000000E-01
      3 F   1 H    -2.215200000000E-01 -5.588000000000E-02 -3.595500000000E-01
      4 F   1 H     2.215200000000E-01  5.588000000000E-02 -3.595500000000E-01
      5 T   1 H    -3.400000000000E-02  3.053800000000E-01 -9.626000000000E-02
      6 F   1 H     3.400000000000E-02 -3.053800000000E-01 -9.626000000000E-02
      7 F   1 H     3.053800000000E-01  3.400000000000E-02  9.626000000000E-02
      8 F   1 H    -3.053800000000E-01 -3.400000000000E-02  9.626000000000E-02
      9 T   1 H    -4.166200000000E-01  3.960000000000E-02 -1.439700000000E-01
     10 F   1 H     4.166200000000E-01 -3.960000000000E-02 -1.439700000000E-01
     11 F   1 H     3.960000000000E-02  4.166200000000E-01  1.439700000000E-01
     12 F   1 H    -3.960000000000E-02 -4.166200000000E-01  1.439700000000E-01
     13 T   6 C    -2.406600000000E-01  3.122700000000E-01 -1.190700000000E-01
     14 F   6 C     2.406600000000E-01 -3.122700000000E-01 -1.190700000000E-01
     15 F   6 C     3.122700000000E-01  2.406600000000E-01  1.190700000000E-01
     16 F   6 C    -3.122700000000E-01 -2.406600000000E-01  1.190700000000E-01
     17 T   6 C     2.522700000000E-01 -4.938000000000E-02  3.778300000000E-01
     18 F   6 C    -2.522700000000E-01  4.938000000000E-02  3.778300000000E-01
     19 F   6 C    -4.938000000000E-02 -2.522700000000E-01 -3.778300000000E-01
     20 F   6 C     4.938000000000E-02  2.522700000000E-01 -3.778300000000E-01
     21 T   6 C    -3.498200000000E-01  2.356500000000E-01 -1.313800000000E-01
     22 F   6 C     3.498200000000E-01 -2.356500000000E-01 -1.313800000000E-01
     23 F   6 C     2.356500000000E-01  3.498200000000E-01  1.313800000000E-01
     24 F   6 C    -2.356500000000E-01 -3.498200000000E-01  1.313800000000E-01
     25 T   6 C    -2.119400000000E-01  5.534000000000E-02 -1.269400000000E-01
     26 F   6 C     2.119400000000E-01 -5.534000000000E-02 -1.269400000000E-01
     27 F   6 C     5.534000000000E-02  2.119400000000E-01  1.269400000000E-01
     28 F   6 C    -5.534000000000E-02 -2.119400000000E-01  1.269400000000E-01
     29 T   6 C    -1.220100000000E-01  2.512800000000E-01 -1.085200000000E-01
     30 F   6 C     1.220100000000E-01 -2.512800000000E-01 -1.085200000000E-01
     31 F   6 C     2.512800000000E-01  1.220100000000E-01  1.085200000000E-01
     32 F   6 C    -2.512800000000E-01 -1.220100000000E-01  1.085200000000E-01
     33 T   6 C     3.360200000000E-01 -1.039900000000E-01 -1.341800000000E-01
     34 F   6 C    -3.360200000000E-01  1.039900000000E-01 -1.341800000000E-01
     35 F   6 C    -1.039900000000E-01 -3.360200000000E-01  1.341800000000E-01
     36 F   6 C     1.039900000000E-01  3.360200000000E-01  1.341800000000E-01
     37 T   7 N     3.447700000000E-01  2.788000000000E-02  3.391000000000E-01
     38 F   7 N    -3.447700000000E-01 -2.788000000000E-02  3.391000000000E-01
     39 F   7 N     2.788000000000E-02 -3.447700000000E-01 -3.391000000000E-01
     40 F   7 N    -2.788000000000E-02  3.447700000000E-01 -3.391000000000E-01
     41 T   7 N    -1.984000000000E-01 -3.485100000000E-01 -1.521300000000E-01
     42 F   7 N     1.984000000000E-01  3.485100000000E-01 -1.521300000000E-01
     43 F   7 N    -3.485100000000E-01  1.984000000000E-01  1.521300000000E-01
     44 F   7 N     3.485100000000E-01 -1.984000000000E-01  1.521300000000E-01
     45 T   7 N     1.537400000000E-01  2.433000000000E-02  4.098400000000E-01
     46 F   7 N    -1.537400000000E-01 -2.433000000000E-02  4.098400000000E-01
     47 F   7 N     2.433000000000E-02 -1.537400000000E-01 -4.098400000000E-01
     48 F   7 N    -2.433000000000E-02  1.537400000000E-01 -4.098400000000E-01
     49 T   7 N    -3.135500000000E-01 -3.505700000000E-01 -1.106300000000E-01
     50 F   7 N     3.135500000000E-01  3.505700000000E-01 -1.106300000000E-01
     51 F   7 N    -3.505700000000E-01  3.135500000000E-01  1.106300000000E-01
     52 F   7 N     3.505700000000E-01 -3.135500000000E-01  1.106300000000E-01
     53 T   7 N    -1.079000000000E-01  1.243900000000E-01 -1.138100000000E-01
     54 F   7 N     1.079000000000E-01 -1.243900000000E-01 -1.138100000000E-01
     55 F   7 N     1.243900000000E-01  1.079000000000E-01  1.138100000000E-01
     56 F   7 N    -1.243900000000E-01 -1.079000000000E-01  1.138100000000E-01
     57 T   9 F    -1.958400000000E-01 -7.141000000000E-02 -1.354700000000E-01
     58 F   9 F     1.958400000000E-01  7.141000000000E-02 -1.354700000000E-01
     59 F   9 F    -7.141000000000E-02  1.958400000000E-01  1.354700000000E-01
     60 F   9 F     7.141000000000E-02 -1.958400000000E-01  1.354700000000E-01
     61 T  30 ZN   -5.000000000000E-01 -4.477975674000E-17  2.500000000000E-01
     62 T  30 ZN    0.000000000000E+00  0.000000000000E+00 -5.000000000000E-01

 T = ATOM BELONGING TO THE ASYMMETRIC UNIT

 ****    4 SYMMOPS - TRANSLATORS IN FRACTIONAL UNITS
 **** MATRICES AND TRANSLATORS IN THE CRYSTALLOGRAPHIC REFERENCE FRAME
   V INV                    ROTATION MATRICES                   TRANSLATORS
   1   1  1.00  0.00  0.00  0.00  1.00  0.00  0.00  0.00  1.00  0.00  0.00  0.00
   2   2 -0.00  1.00 -1.00  1.00 -0.00 -1.00  0.00  0.00 -1.00  0.00  0.00  0.00
   3   4  0.00 -1.00 -0.00  0.00 -1.00  1.00  1.00 -1.00  0.00  0.00  0.00  0.00
   4   3 -1.00  0.00  1.00 -1.00  0.00 -0.00 -1.00  1.00  0.00  0.00  0.00  0.00

 DIRECT LATTICE VECTORS CARTESIAN COMPONENTS (ANGSTROM)
          X                    Y                    Z
  -0.524794919430E+01   0.524794919430E+01   0.626323816220E+01
   0.524794919430E+01  -0.524794919430E+01   0.626323816220E+01
   0.524794919430E+01   0.524794919430E+01  -0.626323816220E+01


 CARTESIAN COORDINATES - PRIMITIVE CELL
 *******************************************************************************
 *      ATOM          X(ANGSTROM)         Y(ANGSTROM)         Z(ANGSTROM)
 *******************************************************************************
    1     1 H     5.865108019550E-01 -2.325051411043E+00  4.503894562438E+00
    2     1 H    -5.865108019550E-01  2.325051411043E+00  4.503894562438E+00
    3     1 H    -2.325051411043E+00 -5.865108019550E-01 -4.503894562438E+00
    4     1 H     2.325051411043E+00  5.865108019550E-01 -4.503894562438E+00
    5     1 H    -3.568605452124E-01  3.205237449911E+00 -1.205798610987E+00
    6     1 H     3.568605452124E-01 -3.205237449911E+00 -1.205798610987E+00
    7     1 H     3.205237449911E+00  3.568605452124E-01  1.205798610987E+00
    8     1 H    -3.205237449911E+00 -3.568605452124E-01  1.205798610987E+00
    9     1 H    -4.372801186659E+00  4.156375761886E-01 -1.803436796424E+00
   10     1 H     4.372801186659E+00 -4.156375761886E-01 -1.803436796424E+00
   11     1 H     4.156375761886E-01  4.372801186659E+00  1.803436796424E+00
   12     1 H    -4.156375761886E-01 -4.372801186659E+00  1.803436796424E+00
   13     6 C    -2.525942906200E+00  3.277554189808E+00 -1.491527535946E+00
   14     6 C     2.525942906200E+00 -3.277554189808E+00 -1.491527535946E+00
   15     6 C     3.277554189808E+00  2.525942906200E+00  1.491527535946E+00
   16     6 C    -3.277554189808E+00 -2.525942906200E+00  1.491527535946E+00
   17     6 C     2.647800286492E+00 -5.182874624291E-01  4.732878549648E+00
   18     6 C    -2.647800286492E+00  5.182874624291E-01  4.732878549648E+00
   19     6 C    -5.182874624291E-01 -2.647800286492E+00 -4.732878549648E+00
   20     6 C     5.182874624291E-01  2.647800286492E+00 -4.732878549648E+00
   21     6 C    -3.671675174300E+00  2.473358455274E+00 -1.645728459500E+00
   22     6 C     3.671675174300E+00 -2.473358455274E+00 -1.645728459500E+00
   23     6 C     2.473358455274E+00  3.671675174300E+00  1.645728459500E+00
   24     6 C    -2.473358455274E+00 -3.671675174300E+00  1.645728459500E+00
   25     6 C    -2.224500704480E+00  5.808430168251E-01 -1.590110904619E+00
   26     6 C     2.224500704480E+00 -5.808430168251E-01 -1.590110904619E+00
   27     6 C     5.808430168251E-01  2.224500704480E+00  1.590110904619E+00
   28     6 C    -5.808430168251E-01 -2.224500704480E+00  1.590110904619E+00
   29     6 C    -1.280604562393E+00  2.637409347087E+00 -1.359373210724E+00
   30     6 C     1.280604562393E+00 -2.637409347087E+00 -1.359373210724E+00
   31     6 C     2.637409347087E+00  1.280604562393E+00  1.359373210724E+00
   32     6 C    -2.637409347087E+00 -1.280604562393E+00  1.359373210724E+00
   33     6 C     3.526831776537E+00 -1.091468473431E+00 -1.680802593208E+00
   34     6 C    -3.526831776537E+00  1.091468473431E+00 -1.680802593208E+00
   35     6 C    -1.091468473431E+00 -3.526831776537E+00  1.680802593208E+00
   36     6 C     1.091468473431E+00  3.526831776537E+00  1.680802593208E+00
   37     7 N     3.618670887438E+00  2.926256470742E-01  4.247728121604E+00
   38     7 N    -3.618670887438E+00 -2.926256470742E-01  4.247728121604E+00
   39     7 N     2.926256470742E-01 -3.618670887438E+00 -4.247728121604E+00
   40     7 N    -2.926256470742E-01  3.618670887438E+00 -4.247728121604E+00
   41     7 N    -2.082386240298E+00 -3.657925547411E+00 -1.905652843231E+00
   42     7 N     2.082386240298E+00  3.657925547411E+00 -1.905652843231E+00
   43     7 N    -3.657925547411E+00  2.082386240298E+00  1.905652843231E+00
   44     7 N     3.657925547411E+00 -2.082386240298E+00  1.905652843231E+00
   45     7 N     1.613639418263E+00  2.553652077946E-01  5.133851056792E+00
   46     7 N    -1.613639418263E+00 -2.553652077946E-01  5.133851056792E+00
   47     7 N     2.553652077946E-01 -1.613639418263E+00 -5.133851056792E+00
   48     7 N    -2.553652077946E-01  1.613639418263E+00 -5.133851056792E+00
   49     7 N    -3.290988939746E+00 -3.679547098092E+00 -1.385804075768E+00
   50     7 N     3.290988939746E+00  3.679547098092E+00 -1.385804075768E+00
   51     7 N    -3.679547098092E+00  3.290988939746E+00  1.385804075768E+00
   52     7 N     3.679547098092E+00 -3.290988939746E+00  1.385804075768E+00
   53     7 N    -1.132507436130E+00  1.305584800558E+00 -1.425638270480E+00
   54     7 N     1.132507436130E+00 -1.305584800558E+00 -1.425638270480E+00
   55     7 N     1.305584800558E+00  1.132507436130E+00  1.425638270480E+00
   56     7 N    -1.305584800558E+00 -1.132507436130E+00  1.425638270480E+00
   57     9 F    -2.055516740423E+00 -7.495121039299E-01 -1.696961747666E+00
   58     9 F     2.055516740423E+00  7.495121039299E-01 -1.696961747666E+00
   59     9 F    -7.495121039299E-01  2.055516740423E+00  1.696961747666E+00
   60     9 F     7.495121039299E-01 -2.055516740423E+00  1.696961747666E+00
   61    30 ZN    5.247949194300E+00 -4.700037766092E-16 -9.394857243300E+00
   62    30 ZN    0.000000000000E+00  0.000000000000E+00  6.263238162200E+00

 *******************************************************************************
 STARTING BASIS SET HANDLING 
 *******************************************************************************

 Loading internal basis set: POB-DZVPP           

 Please cite in your publication:
 Peintinger, M. F., Oliveira, D. V. and Bredow, T. (2013), Generally applicable 
 solid-state Gaussian basis sets, in preparation                                
                                                                                
                    

 *******************************************************************************
 LOCAL ATOMIC FUNCTIONS BASIS SET
 *******************************************************************************
   ATOM   X(AU)   Y(AU)   Z(AU)  N. TYPE  EXPONENT  S COEF   P COEF   D/F/G COEF
 *******************************************************************************
   1 H    1.108  -4.394   8.511
                                  1 S  
                                         2.263E+01 1.441E-02 0.000E+00 0.000E+00
                                         3.236E+00 1.072E-01 0.000E+00 0.000E+00
                                         7.304E-01 3.846E-01 0.000E+00 0.000E+00
                                  2 S  
                                         1.417E-01 1.000E+00 0.000E+00 0.000E+00
                           3-     5 P  
                                         3.944E-01 0.000E+00 1.000E+00 0.000E+00
                           6-     8 P  
                                         1.006E-01 0.000E+00 1.000E+00 0.000E+00
   2 H   -1.108   4.394   8.511
   3 H   -4.394  -1.108  -8.511
   4 H    4.394   1.108  -8.511
   5 H   -0.674   6.057  -2.279
   6 H    0.674  -6.057  -2.279
   7 H    6.057   0.674   2.279
   8 H   -6.057  -0.674   2.279
   9 H   -8.263   0.785  -3.408
  10 H    8.263  -0.785  -3.408
  11 H    0.785   8.263   3.408
  12 H   -0.785  -8.263   3.408
  13 C   -4.773   6.194  -2.819
                                 97 S  
                                         1.238E+03 5.457E-03 0.000E+00 0.000E+00
                                         1.863E+02 4.064E-02 0.000E+00 0.000E+00
                                         4.225E+01 1.803E-01 0.000E+00 0.000E+00
                                         1.168E+01 4.632E-01 0.000E+00 0.000E+00
                                         3.593E+00 4.409E-01 0.000E+00 0.000E+00
                                 98 S  
                                         5.281E+00 1.000E+00 0.000E+00 0.000E+00
                                 99 S  
                                         4.447E-01 1.000E+00 0.000E+00 0.000E+00
                         100-   102 P  
                                         9.468E+00 0.000E+00 3.839E-02 0.000E+00
                                         2.010E+00 0.000E+00 2.112E-01 0.000E+00
                                         5.477E-01 0.000E+00 5.133E-01 0.000E+00
                         103-   105 P  
                                         1.604E-01 0.000E+00 1.000E+00 0.000E+00
                         106-   110 D  
                                         6.070E-01 0.000E+00 0.000E+00 1.000E+00
                         111-   115 D  
                                         2.939E-01 0.000E+00 0.000E+00 1.000E+00
  14 C    4.773  -6.194  -2.819
  15 C    6.194   4.773   2.819
  16 C   -6.194  -4.773   2.819
  17 C    5.004  -0.979   8.944
  18 C   -5.004   0.979   8.944
  19 C   -0.979  -5.004  -8.944
  20 C    0.979   5.004  -8.944
  21 C   -6.938   4.674  -3.110
  22 C    6.938  -4.674  -3.110
  23 C    4.674   6.938   3.110
  24 C   -4.674  -6.938   3.110
  25 C   -4.204   1.098  -3.005
  26 C    4.204  -1.098  -3.005
  27 C    1.098   4.204   3.005
  28 C   -1.098  -4.204   3.005
  29 C   -2.420   4.984  -2.569
  30 C    2.420  -4.984  -2.569
  31 C    4.984   2.420   2.569
  32 C   -4.984  -2.420   2.569
  33 C    6.665  -2.063  -3.176
  34 C   -6.665   2.063  -3.176
  35 C   -2.063  -6.665   3.176
  36 C    2.063   6.665   3.176
  37 N    6.838   0.553   8.027
                                553 S  
                                         1.713E+03-5.393E-03 0.000E+00 0.000E+00
                                         2.576E+02-4.022E-02 0.000E+00 0.000E+00
                                         5.846E+01-1.793E-01 0.000E+00 0.000E+00
                                         1.620E+01-4.638E-01 0.000E+00 0.000E+00
                                         5.005E+00-4.417E-01 0.000E+00 0.000E+00
                                554 S  
                                         6.217E-01 1.000E+00 0.000E+00 0.000E+00
                                555 S  
                                         2.921E-01 1.000E+00 0.000E+00 0.000E+00
                         556-   558 P  
                                         1.357E+01 0.000E+00-4.007E-02 0.000E+00
                                         2.926E+00 0.000E+00-2.181E-01 0.000E+00
                                         7.993E-01 0.000E+00-5.129E-01 0.000E+00
                         559-   561 P  
                                         2.244E-01 0.000E+00 1.000E+00 0.000E+00
                         562-   566 D  
                                         3.118E-01 0.000E+00 0.000E+00 1.000E+00
  38 N   -6.838  -0.553   8.027
  39 N    0.553  -6.838  -8.027
  40 N   -0.553   6.838  -8.027
  41 N   -3.935  -6.912  -3.601
  42 N    3.935   6.912  -3.601
  43 N   -6.912   3.935   3.601
  44 N    6.912  -3.935   3.601
  45 N    3.049   0.483   9.702
  46 N   -3.049  -0.483   9.702
  47 N    0.483  -3.049  -9.702
  48 N   -0.483   3.049  -9.702
  49 N   -6.219  -6.953  -2.619
  50 N    6.219   6.953  -2.619
  51 N   -6.953   6.219   2.619
  52 N    6.953  -6.219   2.619
  53 N   -2.140   2.467  -2.694
  54 N    2.140  -2.467  -2.694
  55 N    2.467   2.140   2.694
  56 N   -2.467  -2.140   2.694
  57 F   -3.884  -1.416  -3.207
                                833 S  
                                         2.895E+03-5.341E-03 0.000E+00 0.000E+00
                                         4.354E+02-3.990E-02 0.000E+00 0.000E+00
                                         9.884E+01-1.791E-01 0.000E+00 0.000E+00
                                         2.749E+01-4.676E-01 0.000E+00 0.000E+00
                                         8.541E+00-4.465E-01 0.000E+00 0.000E+00
                                834 S  
                                         1.123E+00 1.000E+00 0.000E+00 0.000E+00
                                835 S  
                                         3.743E-01 1.000E+00 0.000E+00 0.000E+00
                         836-   838 P  
                                         2.270E+01 0.000E+00-4.521E-02 0.000E+00
                                         4.987E+00 0.000E+00-2.375E-01 0.000E+00
                                         1.349E+00 0.000E+00-5.129E-01 0.000E+00
                         839-   841 P  
                                         3.474E-01 0.000E+00 1.000E+00 0.000E+00
                         842-   846 D  
                                         9.203E-01 0.000E+00 0.000E+00 1.000E+00
                         847-   851 D  
                                         3.977E-01 0.000E+00 0.000E+00 1.000E+00
  58 F    3.884   1.416  -3.207
  59 F   -1.416   3.884   3.207
  60 F    1.416  -3.884   3.207
  61 ZN   9.917  -0.000 -17.754
                                909 S  
                                         8.200E+04 1.421E-03 0.000E+00 0.000E+00
                                         1.231E+04 1.089E-02 0.000E+00 0.000E+00
                                         2.801E+03 5.406E-02 0.000E+00 0.000E+00
                                         7.910E+02 1.885E-01 0.000E+00 0.000E+00
                                         2.576E+02 3.835E-01 0.000E+00 0.000E+00
                                         8.881E+01 2.972E-01 0.000E+00 0.000E+00
                                910 S  
                                         1.719E+02-1.105E-01 0.000E+00 0.000E+00
                                         2.030E+01 6.461E-01 0.000E+00 0.000E+00
                                         8.346E+00 4.422E-01 0.000E+00 0.000E+00
                                911 S  
                                         1.485E+01-2.271E-01 0.000E+00 0.000E+00
                                         2.450E+00 7.243E-01 0.000E+00 0.000E+00
                                         9.985E-01 4.484E-01 0.000E+00 0.000E+00
                                912 S  
                                         1.493E+00 1.000E+00 0.000E+00 0.000E+00
                                913 S  
                                         1.830E-01 1.000E+00 0.000E+00 0.000E+00
                         914-   916 P  
                                         1.072E+03 0.000E+00 9.277E-03 0.000E+00
                                         2.527E+02 0.000E+00 6.954E-02 0.000E+00
                                         8.010E+01 0.000E+00 2.716E-01 0.000E+00
                                         2.890E+01 0.000E+00 5.340E-01 0.000E+00
                                         1.077E+01 0.000E+00 3.450E-01 0.000E+00
                         917-   919 P  
                                         5.645E+00 0.000E+00 3.413E-01 0.000E+00
                                         2.168E+00 0.000E+00 5.639E-01 0.000E+00
                                         8.054E-01 0.000E+00 2.368E-01 0.000E+00
                         920-   922 P  
                                         2.721E-01 0.000E+00 1.000E+00 0.000E+00
                         923-   927 D  
                                         5.609E+01 0.000E+00 0.000E+00 2.959E-02
                                         1.575E+01 0.000E+00 0.000E+00 1.587E-01
                                         5.312E+00 0.000E+00 0.000E+00 3.798E-01
                                         1.774E+00 0.000E+00 0.000E+00 4.690E-01
                         928-   932 D  
                                         5.073E-01 0.000E+00 0.000E+00 1.000E+00
                         933-   939 F  
                                         2.814E+00 0.000E+00 0.000E+00 1.000E+00
                         940-   946 F  
                                         1.300E+00 0.000E+00 0.000E+00 1.000E+00
  62 ZN   0.000   0.000  11.836

 *******************************************************************************
 FINISHED BASIS SET HANDLING 
 *******************************************************************************

 INFORMATION **** SET_MPP **** PCRYSTAL CALCULATION
 INFORMATION **** READM2 **** NEW DEFAULT: FOCK/KS MATRIX MIXING SET TO 30 %
 INFORMATION **** READM2 **** NEW DEFAULT: FULL DIRECT SCF MODE
 INFORMATION **** READM2 **** NEW DEFAULT: COULOMB BIPOLAR BUFFER SET TO 32 Mb
 INFORMATION **** READM2 **** NEW DEFAULT: EXCHANGE BIPOLAR BUFFER SET TO 32 Mb

 *******************************************************************************
 NEW DEFAULT: DFT INTEGRATION GRID INCREASED TO XLGRID
 NEW DEFAULT: DIIS ACCELERATOR ACTIVE
 USE KEYWORD NODIIS TO TURN IT OFF
 *******************************************************************************

 INFORMATION **** DFTD3_INPUT **** PERFORM DISPERSION CORRECTION DFT-D3(BJ) IN THE BECKE-JOHNSON DAMPING SCHEME

 PLEASE CITE:
 (1) DFT-D3 Reference
  S. Grimme, J. Antony, S. Ehrlich, and H. Krieg, J. Chem. Phys. 132 (2010), 154104
 (2) BJ-Damping Reference
  S. Grimme, S. Ehrlich, and L. Goerigk, J. Comput. Chem. 32 (2011), 1456-1465
 (3) General DFT-D Review
  S. Grimme, A. Hansen, J. G. Brandenburg, and C. Bannwarth,
  Chem. Rev. 116 (2016), 5105-5154

 INFORMATION **** TOLINTEG **** COULOMB AND EXCHANGE SERIES TOLERANCES MODIFIED
 INFORMATION **** BIPOSIZE **** COULOMB BIPOLAR BUFFER SET TO   100000000
 INFORMATION **** MAXCYCLE **** MAX NUMBER OF SCF CYCLES SET TO          50
 *******************************************************************************
 N. OF ATOMS PER CELL        62  COULOMB OVERLAP TOL         (T1) 10**  -12
 NUMBER OF SHELLS           388  COULOMB PENETRATION TOL     (T2) 10**  -12
 NUMBER OF AO               984  EXCHANGE OVERLAP TOL        (T3) 10**   20
 N. OF ELECTRONS PER CELL   392  EXCHANGE PSEUDO OVP (F(G))  (T4) 10**   20
 CORE ELECTRONS PER CELL    132  EXCHANGE PSEUDO OVP (P(G))  (T5) 10**   20
 N. OF SYMMETRY OPERATORS     4  POLE ORDER IN MONO ZONE                  4
 *******************************************************************************
 TYPE OF CALCULATION :  RESTRICTED CLOSED SHELL
 KOHN-SHAM HAMILTONIAN

 (EXCHANGE)[CORRELATION] FUNCTIONAL:(PERDEW-BURKE-ERNZERHOF)[PERDEW-BURKE-ERNZERHOF]


 CAPPA:IS1  3;IS2  3;IS3  3; K PTS MONK NET   6; SYMMOPS:K SPACE   8;G SPACE   4

 *******************************************************************************
 MAX NUMBER OF SCF CYCLES      50  CONVERGENCE ON DELTAP        10**-16
 WEIGHT OF F(I) IN F(I+1)      30% CONVERGENCE ON ENERGY        10**- 6
 SHRINK. FACT.(MONKH.)    3  3  3  NUMBER OF K POINTS IN THE IBZ      6
 SHRINKING FACTOR(GILAT NET)    3  NUMBER OF K POINTS(GILAT NET)      6
 *******************************************************************************
 *** K POINTS COORDINATES (OBLIQUE COORDINATES IN UNITS OF IS =  3)
   1-R(  0  0  0)   2-C(  1  0  0)   3-C(  1  1  0)   4-C(  2  1  0)
   5-C(  2  1  1)   6-C(  2  2  1)

 DIRECT LATTICE VECTORS COMPON. (A.U.)     RECIP. LATTICE VECTORS COMPON. (A.U.) 
        X            Y            Z              X            Y            Z
   -9.9171867    9.9171867   11.8358048      0.0000000    0.3167826    0.2654313
    9.9171867   -9.9171867   11.8358048      0.3167826    0.0000000    0.2654313
    9.9171867    9.9171867  -11.8358048      0.3167826    0.3167826    0.0000000

 DISK SPACE FOR EIGENVECTORS (FTN 10)    10650816 REALS

 SYMMETRY ADAPTION OF THE BLOCH FUNCTIONS ENABLED
 TTTTTTTTTTTTTTTTTTTTTTTTTTTTTT gordsh1     TELAPSE        7.04 TCPU        0.06

 MATRIX SIZE: P(G) 1849588, F(G)  925838, P(G) IRR  234110, F(G) IRR  234110
 MAX G-VECTOR INDEX FOR 1- AND 2-ELECTRON INTEGRALS  63

 TTTTTTTTTTTTTTTTTTTTTTTTTTTTTT INPUT       TELAPSE        7.10 TCPU        0.12

 NEIGHBORS OF THE NON-EQUIVALENT ATOMS

 N = NUMBER OF NEIGHBORS AT DISTANCE R
    ATOM  N     R/ANG      R/AU   NEIGHBORS (ATOM LABELS AND CELL INDICES)
   1 H    1     1.0930     2.0655   21 C    0 1 0
   1 H    1     2.1558     4.0739   34 C    0 1 0
   1 H    1     2.1812     4.1220   13 C    0 1 0
   1 H    1     2.5242     4.7701    9 H    0 1 0
   1 H    1     2.6798     5.0641   50 N    0 0-1
   1 H    1     2.7506     5.1979   17 C    0 0 0

   5 H    1     1.0951     2.0695   29 C    0 0 0
   5 H    1     2.0636     3.8997   53 N    0 0 0
   5 H    1     2.1890     4.1366   13 C    0 0 0
   5 H    1     2.5777     4.8712   42 N    0 0 0
   5 H    1     2.7316     5.1619   17 C    0-1 0
   5 H    1     2.7682     5.2312   38 N    0 0 1

   9 H    1     1.0897     2.0592   34 C    0 0 0
   9 H    1     1.9377     3.6617   10 H    0-1-1
   9 H    1     2.1652     4.0916   25 C    0 0 0
   9 H    1     2.1796     4.1189   21 C    0 0 0
   9 H    1     2.5242     4.7701    1 H    0-1 0
   9 H    1     2.5959     4.9055   57 F    0 0 0

  13 C    1     1.4065     2.6578   29 C    0 0 0
  13 C    1     1.4083     2.6612   21 C    0 0 0
  13 C    1     1.4545     2.7486   17 C    0-1 0
  13 C    1     2.1812     4.1220    1 H    0-1 0
  13 C    1     2.1890     4.1366    5 H    0 0 0
  13 C    1     2.4118     4.5576   34 C    0 0 0

  17 C    1     1.3523     2.5555   45 N    0 0 0
  17 C    1     1.3548     2.5602   37 N    0 0 0
  17 C    1     1.4545     2.7486   13 C    0 1 0
  17 C    1     2.2028     4.1627   49 N    1 1 1
  17 C    1     2.2032     4.1634   41 N    1 1 1
  17 C    1     2.4795     4.6856   29 C    0 1 0

  21 C    1     1.0930     2.0655    1 H    0-1 0
  21 C    1     1.3899     2.6265   34 C    0 0 0
  21 C    1     1.4083     2.6612   13 C    0 0 0
  21 C    1     2.1796     4.1189    9 H    0 0 0
  21 C    1     2.3831     4.5033   25 C    0 0 0
  21 C    1     2.4137     4.5613   29 C    0 0 0

  25 C    1     1.3209     2.4961   53 N    0 0 0
  25 C    1     1.3453     2.5422   57 F    0 0 0
  25 C    1     1.4018     2.6490   34 C    0 0 0
  25 C    1     2.1652     4.0916    9 H    0 0 0
  25 C    1     2.2746     4.2983   29 C    0 0 0
  25 C    1     2.3831     4.5033   21 C    0 0 0

  29 C    1     1.0951     2.0695    5 H    0 0 0
  29 C    1     1.3417     2.5354   53 N    0 0 0
  29 C    1     1.4065     2.6578   13 C    0 0 0
  29 C    1     2.2746     4.2983   25 C    0 0 0
  29 C    1     2.4137     4.5613   21 C    0 0 0
  29 C    1     2.4795     4.6856   17 C    0-1 0

  33 C    1     1.0897     2.0592   10 H    0 0 0
  33 C    1     1.3899     2.6265   22 C    0 0 0
  33 C    1     1.4018     2.6490   26 C    0 0 0
  33 C    1     2.1558     4.0739    2 H   -1 0 0
  33 C    1     2.3567     4.4536   58 F    0 0 0
  33 C    1     2.4118     4.5576   14 C    0 0 0

  37 N    1     1.3548     2.5602   17 C    0 0 0
  37 N    1     1.3786     2.6052   41 N    1 1 1
  37 N    1     1.9965     3.7728   61 ZN   1 1 0
  37 N    1     2.1876     4.1339   49 N    1 1 1
  37 N    1     2.1924     4.1431   45 N    0 0 0
  37 N    1     2.4899     4.7053   13 C    0 1 0

  41 N    1     1.3158     2.4866   49 N    0 0 0
  41 N    1     1.3786     2.6052   37 N   -1-1-1
  41 N    1     2.1891     4.1369   45 N   -1-1-1
  41 N    1     2.2032     4.1634   17 C   -1-1-1
  41 N    1     2.5777     4.8712    6 H    0 0 0
  41 N    1     2.8927     5.4663   61 ZN   0 0-1

  45 N    1     1.3523     2.5555   17 C    0 0 0
  45 N    1     1.3812     2.6101   49 N    1 1 1
  45 N    1     1.9861     3.7532   62 ZN   0 0 0
  45 N    1     2.1891     4.1369   41 N    1 1 1
  45 N    1     2.1924     4.1431   37 N    0 0 0
  45 N    1     2.5127     4.7483   13 C    0 1 0

  49 N    1     1.3158     2.4866   41 N    0 0 0
  49 N    1     1.3812     2.6101   45 N   -1-1-1
  49 N    1     2.1876     4.1339   37 N   -1-1-1
  49 N    1     2.2028     4.1627   17 C   -1-1-1
  49 N    1     2.6798     5.0641    2 H   -1-1-1
  49 N    1     2.8653     5.4147   62 ZN  -1-1-1

  53 N    1     1.3209     2.4961   25 C    0 0 0
  53 N    1     1.3417     2.5354   29 C    0 0 0
  53 N    1     2.0636     3.8997    5 H    0 0 0
  53 N    1     2.2691     4.2880   57 F    0 0 0
  53 N    1     2.4155     4.5646   13 C    0 0 0
  53 N    1     2.4174     4.5682   34 C    0 0 0

  57 F    1     1.3453     2.5422   25 C    0 0 0
  57 F    1     2.2691     4.2880   53 N    0 0 0
  57 F    1     2.3567     4.4536   34 C    0 0 0
  57 F    1     2.5959     4.9055    9 H    0 0 0
  57 F    1     2.8246     5.3376    3 H    0 0 0
  57 F    1     2.9160     5.5105   41 N    0 0 0

  61 ZN   4     1.9965     3.7728   37 N   -1-1 0   38 N   -1 0 1   39 N    0 0 1
                                    40 N   -1 0 0
  61 ZN   4     2.8300     5.3479    5 H   -1 0 0    6 H    0 0 1    7 H   -1-1 0
                                     8 H   -1 0 1
  61 ZN   4     2.8927     5.4663   41 N    0 0 1   42 N   -1 0 0   43 N   -1 0 1
                                    44 N   -1-1 0
  61 ZN   4     3.0973     5.8531   17 C   -1-1 0   18 C   -1 0 1   19 C    0 0 1
                                    20 C   -1 0 0
  61 ZN   4     3.4052     6.4350   29 C   -1 0 0   30 C    0 0 1   31 C   -1-1 0
                                    32 C   -1 0 1
  61 ZN   4     3.5990     6.8011   13 C   -1 0 0   14 C    0 0 1   15 C   -1-1 0
                                    16 C   -1 0 1

  62 ZN   4     1.9861     3.7532   45 N    0 0 0   46 N    0 0 0   47 N    1 1 0
                                    48 N    1 1 0
  62 ZN   4     2.8653     5.4147   49 N    1 1 1   50 N    0 0-1   51 N    0 1 0
                                    52 N    1 0 0
  62 ZN   4     2.9741     5.6202    1 H    0 0 0    2 H    0 0 0    3 H    1 1 0
                                     4 H    1 1 0
  62 ZN   4     3.1018     5.8616   17 C    0 0 0   18 C    0 0 0   19 C    1 1 0
                                    20 C    1 1 0
  62 ZN   4     3.5905     6.7850   21 C    0 1 0   22 C    1 0 0   23 C    0 0-1
                                    24 C    1 1 1
  62 ZN   4     3.6765     6.9475   13 C    0 1 0   14 C    1 0 0   15 C    0 0-1
                                    16 C    1 1 1


 SYMMETRY ALLOWED INTERNAL DEGREE(S) OF FREEDOM:  45
 TTTTTTTTTTTTTTTTTTTTTTTTTTTTTT SYMM        TELAPSE       10.18 TCPU        3.18
 TTTTTTTTTTTTTTTTTTTTTTTTTTTTTT INT_SCREEN  TELAPSE       10.21 TCPU        3.21
 INFORMATION **** EXCBUF **** EXCH. BIPO BUFFER: WORDS USED =           0

 DFT PARAMETERS

     ATOM       ELECTRONS   NET CHARGE   R(ANGSTROM)
   1   1  H       1.0000      0.0000     1.11000000
  13   6  C       6.0000      0.0000     0.77000000
  37   7  N       7.0000      0.0000     0.74000000
  57   9  F       9.0000      0.0000     0.72000000
  61  30  ZN     30.0000      0.0000     1.37000000

 SIZE OF GRID=     458044
 TTTTTTTTTTTTTTTTTTTTTTTTTTTTTT MAKE_GRID2  TELAPSE       16.09 TCPU        9.06
 BECKE WEIGHT FUNCTION
 RADSAFE =     2.00
 TOLERANCES - DENSITY:10**- 6; POTENTIAL:10**- 9; GRID WGT:10**-14

 RADIAL INTEGRATION  - INTERVALS (POINTS,UPPER LIMIT):            1( 75,  4.0*R)

 ANGULAR INTEGRATION - INTERVALS (ACCURACY LEVEL [N. POINTS] UPPER LIMIT):
  1(  4[  86]   0.2)  2(  8[ 194]   0.5)  3( 12[ 350]   0.9)  4( 16[ 974]   3.5)
  5( 12[ 350]9999.0)
 TTTTTTTTTTTTTTTTTTTTTTTTTTTTTT INT_CALC    TELAPSE       16.22 TCPU        9.19
 EEEEEEEEEE INT_CALC TERMINATION  DATE 27 11 2023 TIME 09:11:29.5

 *******************************************************************************
 Z:\home\sanoj\Downloads\tmp_p\newconn.mol                                       
 CRYSTAL - SCF - TYPE OF CALCULATION :  RESTRICTED CLOSED SHELL
 *******************************************************************************

 CAPPA:IS1  3;IS2  3;IS3  3; K PTS MONK NET   6; SYMMOPS:K SPACE   8;G SPACE   4

 TTTTTTTTTTTTTTTTTTTTTTTTTTTTTT SDIK        TELAPSE       16.55 TCPU        9.52

 AAAAAAAAAAAAAAAAAAAAAAAAAAAAAAAAAAAAAAAAAAAAAAAAAAAAAAAAAAAAAAAAAAAAAAAAAAAAAAA
         ATOMIC WAVEFUNCTION(S)


 NUCLEAR CHARGE  1.0  SYMMETRY SPECIES            S
 N. ELECTRONS    1.0  NUMBER OF PRIMITIVE GTOS    4
                      NUMBER OF CONTRACTED GTOS   2
                      NUMBER OF CLOSED SHELLS     0
                      OPEN SHELL OCCUPATION       1

  ZNUC SCFIT  TOTAL HF ENERGY   KINETIC ENERGY   VIRIAL THEOREM ACCURACY
   1.0   1   -4.946643675E-01  4.917913167E-01 -2.005842012E+00  9.4E-17

 NUCLEAR CHARGE  6.0  SYMMETRY SPECIES            S    P
 N. ELECTRONS    6.0  NUMBER OF PRIMITIVE GTOS    7    4
                      NUMBER OF CONTRACTED GTOS   3    2
                      NUMBER OF CLOSED SHELLS     2    0
                      OPEN SHELL OCCUPATION       0    2

  ZNUC SCFIT  TOTAL HF ENERGY   KINETIC ENERGY   VIRIAL THEOREM ACCURACY
   6.0   6   -3.750912652E+01  3.905246519E+01 -1.960480378E+00  3.7E-06

 NUCLEAR CHARGE  7.0  SYMMETRY SPECIES            S    P
 N. ELECTRONS    7.0  NUMBER OF PRIMITIVE GTOS    7    4
                      NUMBER OF CONTRACTED GTOS   3    2
                      NUMBER OF CLOSED SHELLS     2    0
                      OPEN SHELL OCCUPATION       0    3

  ZNUC SCFIT  TOTAL HF ENERGY   KINETIC ENERGY   VIRIAL THEOREM ACCURACY
   7.0   9   -5.432196661E+01  5.425066284E+01 -2.001314339E+00  1.2E-06

 NUCLEAR CHARGE  9.0  SYMMETRY SPECIES            S    P
 N. ELECTRONS    9.0  NUMBER OF PRIMITIVE GTOS    7    4
                      NUMBER OF CONTRACTED GTOS   3    2
                      NUMBER OF CLOSED SHELLS     2    0
                      OPEN SHELL OCCUPATION       0    5

  ZNUC SCFIT  TOTAL HF ENERGY   KINETIC ENERGY   VIRIAL THEOREM ACCURACY
   9.0  14   -9.927886620E+01  9.927374065E+01 -2.000051630E+00  4.0E-06

 NUCLEAR CHARGE 30.0  SYMMETRY SPECIES            S    P    D
 N. ELECTRONS   30.0  NUMBER OF PRIMITIVE GTOS   14    9    5
                      NUMBER OF CONTRACTED GTOS   5    3    2
                      NUMBER OF CLOSED SHELLS     4    2    1
                      OPEN SHELL OCCUPATION       0    0    0

  ZNUC SCFIT  TOTAL HF ENERGY   KINETIC ENERGY   VIRIAL THEOREM ACCURACY
  30.0  10   -1.777404290E+03  1.777325716E+03 -2.000044209E+00  2.5E-06

 AAAAAAAAAAAAAAAAAAAAAAAAAAAAAAAAAAAAAAAAAAAAAAAAAAAAAAAAAAAAAAAAAAAAAAAAAAAAAAA

 TOTAL ATOMIC CHARGES:
   1.0000000   1.0000000   1.0000000   1.0000000   1.0000000   1.0000000
   1.0000000   1.0000000   1.0000000   1.0000000   1.0000000   1.0000000
   6.0000000   6.0000000   6.0000000   6.0000000   6.0000000   6.0000000
   6.0000000   6.0000000   6.0000000   6.0000000   6.0000000   6.0000000
   6.0000000   6.0000000   6.0000000   6.0000000   6.0000000   6.0000000
   6.0000000   6.0000000   6.0000000   6.0000000   6.0000000   6.0000000
   7.0000000   7.0000000   7.0000000   7.0000000   7.0000000   7.0000000
   7.0000000   7.0000000   7.0000000   7.0000000   7.0000000   7.0000000
   7.0000000   7.0000000   7.0000000   7.0000000   7.0000000   7.0000000
   7.0000000   7.0000000   9.0000000   9.0000000   9.0000000   9.0000000
  30.0000000  30.0000000
 TTTTTTTTTTTTTTTTTTTTTTTTTTTTTT MOQGAD      TELAPSE       22.24 TCPU       15.19
 TTTTTTTTTTTTTTTTTTTTTTTTTTTTTT SHELLXN     TELAPSE      104.90 TCPU       93.72
 TTTTTTTTTTTTTTTTTTTTTTTTTTTTTT MONMO3      TELAPSE      109.24 TCPU       98.05
 NUMERICALLY INTEGRATED DENSITY    392.0000005981
 TTTTTTTTTTTTTTTTTTTTTTTTTTTTTT NUMDFT      TELAPSE      111.72 TCPU      100.51
 CYC   0 ETOT(AU) -5.973085961600E+03 DETOT -5.97E+03 tst  0.00E+00 PX  1.00E+00
 TTTTTTTTTTTTTTTTTTTTTTTTTTTTTT DIIS        TELAPSE      111.81 TCPU      100.60
 TTTTTTTTTTTTTTTTTTTTTTTTTTTTTT FDIK        TELAPSE      150.69 TCPU      130.43
 INSULATING STATE
 TOP OF VALENCE BANDS -    BAND    196; K    4; EIG -1.3391075E-01 AU
 TOP OF VALENCE BANDS -    BAND    196; K    1; EIG -1.3431647E-01 AU
 BOTTOM OF VIRTUAL BANDS - BAND    197; K    6; EIG -1.0043859E-01 AU
 INDIRECT ENERGY BAND GAP:   0.9108 eV
 BOTTOM OF VIRTUAL BANDS - BAND    197; K    1; EIG -9.9785360E-02 AU
 TTTTTTTTTTTTTTTTTTTTTTTTTTTTTT PDIG        TELAPSE      151.21 TCPU      130.95
 TOTAL ATOMIC CHARGES:
   1.2155019   1.2155019   1.2155019   1.2155019   1.3162386   1.3162386
   1.3162386   1.3162386   1.1443173   1.1443173   1.1443173   1.1443173
   6.0921260   6.0921260   6.0921260   6.0921260   5.4661060   5.4661060
   5.4661060   5.4661060   6.0771132   6.0771132   6.0771132   6.0771132
   5.0183316   5.0183316   5.0183316   5.0183316   5.7555765   5.7555765
   5.7555765   5.7555765   6.0849966   6.0849966   6.0849966   6.0849966
   7.3718299   7.3718299   7.3718299   7.3718299   7.1798393   7.1798393
   7.1798393   7.1798393   7.3666965   7.3666965   7.3666965   7.3666965
   7.1739572   7.1739572   7.1739572   7.1739572   7.5764334   7.5764334
   7.5764334   7.5764334   9.2792957   9.2792957   9.2792957   9.2792957
  27.7299364  27.7966244
 TTTTTTTTTTTTTTTTTTTTTTTTTTTTTT MOQGAD      TELAPSE      151.26 TCPU      131.00
 TTTTTTTTTTTTTTTTTTTTTTTTTTTTTT SHELLXN     TELAPSE      248.46 TCPU      222.19
 TTTTTTTTTTTTTTTTTTTTTTTTTTTTTT MONMO3      TELAPSE      254.26 TCPU      227.97
 NUMERICALLY INTEGRATED DENSITY    392.0000018558
 TTTTTTTTTTTTTTTTTTTTTTTTTTTTTT NUMDFT      TELAPSE      261.48 TCPU      235.17
 CYC   1 ETOT(AU) -5.967857363816E+03 DETOT  5.23E+00 tst  0.00E+00 PX  1.00E+00
 TTTTTTTTTTTTTTTTTTTTTTTTTTTTTT DIIS        TELAPSE      263.54 TCPU      237.21
 DIIS TEST: 0.13759E+02 AT SCF   CYCLE   1 - MIX   30 %
 TTTTTTTTTTTTTTTTTTTTTTTTTTTTTT FDIK        TELAPSE      277.04 TCPU      248.35
 INSULATING STATE
 TOP OF VALENCE BANDS -    BAND    196; K    1; EIG -1.5687086E-01 AU
 BOTTOM OF VIRTUAL BANDS - BAND    197; K    6; EIG -1.1999229E-01 AU
 INDIRECT ENERGY BAND GAP:   1.0035 eV
 BOTTOM OF VIRTUAL BANDS - BAND    197; K    1; EIG -1.1819375E-01 AU
 TTTTTTTTTTTTTTTTTTTTTTTTTTTTTT PDIG        TELAPSE      277.56 TCPU      248.87
 TOTAL ATOMIC CHARGES:
   1.1865791   1.1865791   1.1865791   1.1865791   1.3188676   1.3188676
   1.3188676   1.3188676   1.1051665   1.1051665   1.1051665   1.1051665
   6.1080349   6.1080349   6.1080349   6.1080349   6.1542613   6.1542613
   6.1542613   6.1542613   6.2228877   6.2228877   6.2228877   6.2228877
   6.2209271   6.2209271   6.2209271   6.2209271   6.1946260   6.1946260
   6.1946260   6.1946260   5.8609662   5.8609662   5.8609662   5.8609662
   6.9715270   6.9715270   6.9715270   6.9715270   6.7937903   6.7937903
   6.7937903   6.7937903   6.9407562   6.9407562   6.9407562   6.9407562
   6.8298844   6.8298844   6.8298844   6.8298844   6.1721780   6.1721780
   6.1721780   6.1721780   8.9964162   8.9964162   8.9964162   8.9964162
  29.8843086  29.8082176
 TTTTTTTTTTTTTTTTTTTTTTTTTTTTTT MOQGAD      TELAPSE      277.61 TCPU      248.92
 TTTTTTTTTTTTTTTTTTTTTTTTTTTTTT SHELLXN     TELAPSE      371.07 TCPU      339.83
 TTTTTTTTTTTTTTTTTTTTTTTTTTTTTT MONMO3      TELAPSE      376.18 TCPU      344.92
 NUMERICALLY INTEGRATED DENSITY    392.0000003883
 TTTTTTTTTTTTTTTTTTTTTTTTTTTTTT NUMDFT      TELAPSE      383.38 TCPU      352.10
 CYC   2 ETOT(AU) -5.967088845634E+03 DETOT  7.69E-01 tst  1.09E-01 PX  7.96E-01
 TTTTTTTTTTTTTTTTTTTTTTTTTTTTTT DIIS        TELAPSE      383.75 TCPU      352.47
 DIIS TEST: 0.15129E+02 AT SCF   CYCLE   2 - DIIS ACTIVE - HISTORY:     2 CYCLES
 TTTTTTTTTTTTTTTTTTTTTTTTTTTTTT FDIK        TELAPSE      394.59 TCPU      361.08
 INSULATING STATE
 TOP OF VALENCE BANDS -    BAND    196; K    3; EIG -2.5161430E-01 AU
 TOP OF VALENCE BANDS -    BAND    196; K    1; EIG -2.5345833E-01 AU
 BOTTOM OF VIRTUAL BANDS - BAND    197; K    1; EIG -1.1432212E-01 AU
 INDIRECT ENERGY BAND GAP:   3.7359 eV
 TTTTTTTTTTTTTTTTTTTTTTTTTTTTTT PDIG        TELAPSE      395.11 TCPU      361.60
 TOTAL ATOMIC CHARGES:
   1.1587287   1.1587287   1.1587287   1.1587287   1.2518417   1.2518417
   1.2518417   1.2518417   1.0917035   1.0917035   1.0917035   1.0917035
   5.8791160   5.8791160   5.8791160   5.8791160   5.7065129   5.7065129
   5.7065129   5.7065129   6.0152402   6.0152402   6.0152402   6.0152402
   5.5729524   5.5729524   5.5729524   5.5729524   5.8839260   5.8839260
   5.8839260   5.8839260   5.9287763   5.9287763   5.9287763   5.9287763
   7.0472972   7.0472972   7.0472972   7.0472972   7.1603041   7.1603041
   7.1603041   7.1603041   7.0556363   7.0556363   7.0556363   7.0556363
   7.1386163   7.1386163   7.1386163   7.1386163   7.4579514   7.4579514
   7.4579514   7.4579514   9.1429957   9.1429957   9.1429957   9.1429957
  29.0188721  29.0147334
 TTTTTTTTTTTTTTTTTTTTTTTTTTTTTT MOQGAD      TELAPSE      395.16 TCPU      361.65
 TTTTTTTTTTTTTTTTTTTTTTTTTTTTTT SHELLXN     TELAPSE      488.48 TCPU      452.53
 TTTTTTTTTTTTTTTTTTTTTTTTTTTTTT MONMO3      TELAPSE      493.95 TCPU      457.99
 NUMERICALLY INTEGRATED DENSITY    392.0000010733
 TTTTTTTTTTTTTTTTTTTTTTTTTTTTTT NUMDFT      TELAPSE      501.03 TCPU      465.05
 CYC   3 ETOT(AU) -5.969711534854E+03 DETOT -2.62E+00 tst  5.72E-03 PX  7.22E-01
 TTTTTTTTTTTTTTTTTTTTTTTTTTTTTT DIIS        TELAPSE      501.18 TCPU      465.19
 DIIS TEST: 0.23650E+01 AT SCF   CYCLE   3 - DIIS ACTIVE - HISTORY:     3 CYCLES
 TTTTTTTTTTTTTTTTTTTTTTTTTTTTTT FDIK        TELAPSE      514.92 TCPU      476.69
 INSULATING STATE
 TOP OF VALENCE BANDS -    BAND    196; K    1; EIG -2.2312705E-01 AU
 BOTTOM OF VIRTUAL BANDS - BAND    197; K    4; EIG -1.1728151E-01 AU
 INDIRECT ENERGY BAND GAP:   2.8802 eV
 BOTTOM OF VIRTUAL BANDS - BAND    197; K    1; EIG -1.1543280E-01 AU
 TTTTTTTTTTTTTTTTTTTTTTTTTTTTTT PDIG        TELAPSE      515.45 TCPU      477.21
 TOTAL ATOMIC CHARGES:
   1.1268737   1.1268737   1.1268737   1.1268737   1.2578574   1.2578574
   1.2578574   1.2578574   1.0925096   1.0925096   1.0925096   1.0925096
   6.1491629   6.1491629   6.1491629   6.1491629   5.7573250   5.7573250
   5.7573250   5.7573250   6.2685893   6.2685893   6.2685893   6.2685893
   5.4347572   5.4347572   5.4347572   5.4347572   5.8837140   5.8837140
   5.8837140   5.8837140   6.0482577   6.0482577   6.0482577   6.0482577
   7.2216273   7.2216273   7.2216273   7.2216273   6.9910149   6.9910149
   6.9910149   6.9910149   7.2161783   7.2161783   7.2161783   7.2161783
   7.0405785   7.0405785   7.0405785   7.0405785   6.9481466   6.9481466
   6.9481466   6.9481466   9.1743242   9.1743242   9.1743242   9.1743242
  28.7664698  28.7898638
 TTTTTTTTTTTTTTTTTTTTTTTTTTTTTT MOQGAD      TELAPSE      515.50 TCPU      477.26
 TTTTTTTTTTTTTTTTTTTTTTTTTTTTTT SHELLXN     TELAPSE      609.65 TCPU      568.54
 TTTTTTTTTTTTTTTTTTTTTTTTTTTTTT MONMO3      TELAPSE      613.85 TCPU      572.72
 NUMERICALLY INTEGRATED DENSITY    391.9999998930
 TTTTTTTTTTTTTTTTTTTTTTTTTTTTTT NUMDFT      TELAPSE      621.01 TCPU      579.86
 CYC   4 ETOT(AU) -5.969867464771E+03 DETOT -1.56E-01 tst  2.40E-03 PX  1.48E-01
 TTTTTTTTTTTTTTTTTTTTTTTTTTTTTT DIIS        TELAPSE      621.28 TCPU      580.14
 DIIS TEST: 0.12639E+01 AT SCF   CYCLE   4 - DIIS ACTIVE - HISTORY:     4 CYCLES
 TTTTTTTTTTTTTTTTTTTTTTTTTTTTTT FDIK        TELAPSE      632.78 TCPU      589.73
 INSULATING STATE
 TOP OF VALENCE BANDS -    BAND    196; K    2; EIG -2.5006435E-01 AU
 TOP OF VALENCE BANDS -    BAND    196; K    1; EIG -2.5050084E-01 AU
 BOTTOM OF VIRTUAL BANDS - BAND    197; K    4; EIG -1.1482981E-01 AU
 INDIRECT ENERGY BAND GAP:   3.6799 eV
 BOTTOM OF VIRTUAL BANDS - BAND    197; K    1; EIG -1.1263737E-01 AU
 TTTTTTTTTTTTTTTTTTTTTTTTTTTTTT PDIG        TELAPSE      633.30 TCPU      590.26
 TOTAL ATOMIC CHARGES:
   1.1384275   1.1384275   1.1384275   1.1384275   1.2470661   1.2470661
   1.2470661   1.2470661   1.0868301   1.0868301   1.0868301   1.0868301
   6.0573933   6.0573933   6.0573933   6.0573933   5.7638759   5.7638759
   5.7638759   5.7638759   6.1476390   6.1476390   6.1476390   6.1476390
   5.5755844   5.5755844   5.5755844   5.5755844   5.9575663   5.9575663
   5.9575663   5.9575663   6.0044627   6.0044627   6.0044627   6.0044627
   7.1578411   7.1578411   7.1578411   7.1578411   7.0693320   7.0693320
   7.0693320   7.0693320   7.0921565   7.0921565   7.0921565   7.0921565
   7.0440859   7.0440859   7.0440859   7.0440859   7.0811664   7.0811664
   7.0811664   7.0811664   9.1464653   9.1464653   9.1464653   9.1464653
  28.8609479  28.8594814
 TTTTTTTTTTTTTTTTTTTTTTTTTTTTTT MOQGAD      TELAPSE      633.35 TCPU      590.30
 TTTTTTTTTTTTTTTTTTTTTTTTTTTTTT SHELLXN     TELAPSE      727.21 TCPU      681.58
 TTTTTTTTTTTTTTTTTTTTTTTTTTTTTT MONMO3      TELAPSE      732.19 TCPU      686.55
 NUMERICALLY INTEGRATED DENSITY    392.0000010675
 TTTTTTTTTTTTTTTTTTTTTTTTTTTTTT NUMDFT      TELAPSE      739.37 TCPU      693.70
 CYC   5 ETOT(AU) -5.970049472525E+03 DETOT -1.82E-01 tst  5.94E-04 PX  1.22E-01
 TTTTTTTTTTTTTTTTTTTTTTTTTTTTTT DIIS        TELAPSE      739.95 TCPU      694.27
 DIIS TEST: 0.54696E-01 AT SCF   CYCLE   5 - DIIS ACTIVE - HISTORY:     5 CYCLES
 TTTTTTTTTTTTTTTTTTTTTTTTTTTTTT FDIK        TELAPSE      751.08 TCPU      703.18
 INSULATING STATE
 TOP OF VALENCE BANDS -    BAND    196; K    6; EIG -2.4843023E-01 AU
 TOP OF VALENCE BANDS -    BAND    196; K    1; EIG -2.4860189E-01 AU
 BOTTOM OF VIRTUAL BANDS - BAND    197; K    4; EIG -1.1596328E-01 AU
 INDIRECT ENERGY BAND GAP:   3.6046 eV
 BOTTOM OF VIRTUAL BANDS - BAND    197; K    1; EIG -1.1312731E-01 AU
 TTTTTTTTTTTTTTTTTTTTTTTTTTTTTT PDIG        TELAPSE      751.60 TCPU      703.70
 TOTAL ATOMIC CHARGES:
   1.1397113   1.1397113   1.1397113   1.1397113   1.2481949   1.2481949
   1.2481949   1.2481949   1.0866392   1.0866392   1.0866392   1.0866392
   6.0594717   6.0594717   6.0594717   6.0594717   5.7638660   5.7638660
   5.7638660   5.7638660   6.1725091   6.1725091   6.1725091   6.1725091
   5.5809932   5.5809932   5.5809932   5.5809932   5.9159540   5.9159540
   5.9159540   5.9159540   5.9795266   5.9795266   5.9795266   5.9795266
   7.0981862   7.0981862   7.0981862   7.0981862   7.0199453   7.0199453
   7.0199453   7.0199453   7.1619358   7.1619358   7.1619358   7.1619358
   7.1021596   7.1021596   7.1021596   7.1021596   7.0921733   7.0921733
   7.0921733   7.0921733   9.1374676   9.1374676   9.1374676   9.1374676
  28.8749691  28.8900955
 TTTTTTTTTTTTTTTTTTTTTTTTTTTTTT MOQGAD      TELAPSE      751.65 TCPU      703.75
 TTTTTTTTTTTTTTTTTTTTTTTTTTTTTT SHELLXN     TELAPSE      845.33 TCPU      794.96
 TTTTTTTTTTTTTTTTTTTTTTTTTTTTTT MONMO3      TELAPSE      851.17 TCPU      800.77
 NUMERICALLY INTEGRATED DENSITY    392.0000008285
 TTTTTTTTTTTTTTTTTTTTTTTTTTTTTT NUMDFT      TELAPSE      858.30 TCPU      807.88
 CYC   6 ETOT(AU) -5.970046975018E+03 DETOT  2.50E-03 tst  1.11E-04 PX  2.17E-02
 TTTTTTTTTTTTTTTTTTTTTTTTTTTTTT DIIS        TELAPSE      860.04 TCPU      809.61
 DIIS TEST: 0.71208E-01 AT SCF   CYCLE   6 - DIIS ACTIVE - HISTORY:     6 CYCLES
 TTTTTTTTTTTTTTTTTTTTTTTTTTTTTT FDIK        TELAPSE      872.86 TCPU      817.35
 INSULATING STATE
 TOP OF VALENCE BANDS -    BAND    196; K    6; EIG -2.4760489E-01 AU
 TOP OF VALENCE BANDS -    BAND    196; K    1; EIG -2.4773166E-01 AU
 BOTTOM OF VIRTUAL BANDS - BAND    197; K    4; EIG -1.1591428E-01 AU
 INDIRECT ENERGY BAND GAP:   3.5835 eV
 BOTTOM OF VIRTUAL BANDS - BAND    197; K    1; EIG -1.1360005E-01 AU
 TTTTTTTTTTTTTTTTTTTTTTTTTTTTTT PDIG        TELAPSE      873.39 TCPU      817.87
 TOTAL ATOMIC CHARGES:
   1.1387887   1.1387887   1.1387887   1.1387887   1.2491607   1.2491607
   1.2491607   1.2491607   1.0853724   1.0853724   1.0853724   1.0853724
   6.0577662   6.0577662   6.0577662   6.0577662   5.7673528   5.7673528
   5.7673528   5.7673528   6.1629816   6.1629816   6.1629816   6.1629816
   5.5787546   5.5787546   5.5787546   5.5787546   5.9319611   5.9319611
   5.9319611   5.9319611   5.9794298   5.9794298   5.9794298   5.9794298
   7.1536096   7.1536096   7.1536096   7.1536096   7.0655017   7.0655017
   7.0655017   7.0655017   7.1107374   7.1107374   7.1107374   7.1107374
   7.0531646   7.0531646   7.0531646   7.0531646   7.0823656   7.0823656
   7.0823656   7.0823656   9.1392424   9.1392424   9.1392424   9.1392424
  28.8850171  28.8902256
 TTTTTTTTTTTTTTTTTTTTTTTTTTTTTT MOQGAD      TELAPSE      873.43 TCPU      817.92
 TTTTTTTTTTTTTTTTTTTTTTTTTTTTTT SHELLXN     TELAPSE      967.58 TCPU      909.05
 TTTTTTTTTTTTTTTTTTTTTTTTTTTTTT MONMO3      TELAPSE      971.71 TCPU      913.17
 NUMERICALLY INTEGRATED DENSITY    392.0000010156
 TTTTTTTTTTTTTTTTTTTTTTTTTTTTTT NUMDFT      TELAPSE      978.90 TCPU      920.34
 CYC   7 ETOT(AU) -5.970055649534E+03 DETOT -8.67E-03 tst  5.15E-05 PX  1.66E-02
 TTTTTTTTTTTTTTTTTTTTTTTTTTTTTT DIIS        TELAPSE      979.08 TCPU      920.51
 DIIS TEST: 0.92488E-02 AT SCF   CYCLE   7 - DIIS ACTIVE - HISTORY:     7 CYCLES
 TTTTTTTTTTTTTTTTTTTTTTTTTTTTTT FDIK        TELAPSE      991.21 TCPU      929.47
 INSULATING STATE
 TOP OF VALENCE BANDS -    BAND    196; K    6; EIG -2.4807924E-01 AU
 TOP OF VALENCE BANDS -    BAND    196; K    1; EIG -2.4823954E-01 AU
 BOTTOM OF VIRTUAL BANDS - BAND    197; K    4; EIG -1.1600867E-01 AU
 INDIRECT ENERGY BAND GAP:   3.5938 eV
 BOTTOM OF VIRTUAL BANDS - BAND    197; K    1; EIG -1.1339458E-01 AU
 TTTTTTTTTTTTTTTTTTTTTTTTTTTTTT PDIG        TELAPSE      991.73 TCPU      929.99
 TOTAL ATOMIC CHARGES:
   1.1387204   1.1387204   1.1387204   1.1387204   1.2463124   1.2463124
   1.2463124   1.2463124   1.0839064   1.0839064   1.0839064   1.0839064
   6.0521753   6.0521753   6.0521753   6.0521753   5.7660844   5.7660844
   5.7660844   5.7660844   6.1582279   6.1582279   6.1582279   6.1582279
   5.5840661   5.5840661   5.5840661   5.5840661   5.9429522   5.9429522
   5.9429522   5.9429522   5.9924484   5.9924484   5.9924484   5.9924484
   7.1349960   7.1349960   7.1349960   7.1349960   7.0472086   7.0472086
   7.0472086   7.0472086   7.1199477   7.1199477   7.1199477   7.1199477
   7.0688680   7.0688680   7.0688680   7.0688680   7.0765987   7.0765987
   7.0765987   7.0765987   9.1427368   9.1427368   9.1427368   9.1427368
  28.8863748  28.8926275
 TTTTTTTTTTTTTTTTTTTTTTTTTTTTTT MOQGAD      TELAPSE      991.77 TCPU      930.04
 TTTTTTTTTTTTTTTTTTTTTTTTTTTTTT SHELLXN     TELAPSE     1085.32 TCPU     1021.16
 TTTTTTTTTTTTTTTTTTTTTTTTTTTTTT MONMO3      TELAPSE     1090.21 TCPU     1026.02
 NUMERICALLY INTEGRATED DENSITY    392.0000009597
 TTTTTTTTTTTTTTTTTTTTTTTTTTTTTT NUMDFT      TELAPSE     1097.33 TCPU     1033.12
 CYC   8 ETOT(AU) -5.970056975964E+03 DETOT -1.33E-03 tst  8.12E-06 PX  6.63E-03
 TTTTTTTTTTTTTTTTTTTTTTTTTTTTTT DIIS        TELAPSE     1097.69 TCPU     1033.48
 DIIS TEST: 0.14214E-02 AT SCF   CYCLE   8 - DIIS ACTIVE - HISTORY:     8 CYCLES
 TTTTTTTTTTTTTTTTTTTTTTTTTTTTTT FDIK        TELAPSE     1108.86 TCPU     1041.99
 INSULATING STATE
 TOP OF VALENCE BANDS -    BAND    196; K    6; EIG -2.4861767E-01 AU
 TOP OF VALENCE BANDS -    BAND    196; K    1; EIG -2.4878979E-01 AU
 BOTTOM OF VIRTUAL BANDS - BAND    197; K    4; EIG -1.1615374E-01 AU
 INDIRECT ENERGY BAND GAP:   3.6045 eV
 BOTTOM OF VIRTUAL BANDS - BAND    197; K    1; EIG -1.1356310E-01 AU
 TTTTTTTTTTTTTTTTTTTTTTTTTTTTTT PDIG        TELAPSE     1109.39 TCPU     1042.51
 TOTAL ATOMIC CHARGES:
   1.1384382   1.1384382   1.1384382   1.1384382   1.2462258   1.2462258
   1.2462258   1.2462258   1.0849384   1.0849384   1.0849384   1.0849384
   6.0594668   6.0594668   6.0594668   6.0594668   5.7638383   5.7638383
   5.7638383   5.7638383   6.1626225   6.1626225   6.1626225   6.1626225
   5.5794835   5.5794835   5.5794835   5.5794835   5.9365688   5.9365688
   5.9365688   5.9365688   5.9835638   5.9835638   5.9835638   5.9835638
   7.1386244   7.1386244   7.1386244   7.1386244   7.0501519   7.0501519
   7.0501519   7.0501519   7.1235209   7.1235209   7.1235209   7.1235209
   7.0618892   7.0618892   7.0618892   7.0618892   7.0846129   7.0846129
   7.0846129   7.0846129   9.1404779   9.1404779   9.1404779   9.1404779
  28.8880993  28.8942075
 TTTTTTTTTTTTTTTTTTTTTTTTTTTTTT MOQGAD      TELAPSE     1109.43 TCPU     1042.56
 TTTTTTTTTTTTTTTTTTTTTTTTTTTTTT SHELLXN     TELAPSE     1201.48 TCPU     1132.14
 TTTTTTTTTTTTTTTTTTTTTTTTTTTTTT MONMO3      TELAPSE     1207.91 TCPU     1138.56
 NUMERICALLY INTEGRATED DENSITY    392.0000009756
 TTTTTTTTTTTTTTTTTTTTTTTTTTTTTT NUMDFT      TELAPSE     1214.97 TCPU     1145.60
 CYC   9 ETOT(AU) -5.970057134784E+03 DETOT -1.59E-04 tst  1.34E-06 PX  3.13E-03
 TTTTTTTTTTTTTTTTTTTTTTTTTTTTTT DIIS        TELAPSE     1215.53 TCPU     1146.16
 DIIS TEST: 0.34047E-03 AT SCF   CYCLE   9 - DIIS ACTIVE - HISTORY:     9 CYCLES
 TTTTTTTTTTTTTTTTTTTTTTTTTTTTTT FDIK        TELAPSE     1224.61 TCPU     1155.13
 INSULATING STATE
 TOP OF VALENCE BANDS -    BAND    196; K    6; EIG -2.4816579E-01 AU
 TOP OF VALENCE BANDS -    BAND    196; K    1; EIG -2.4831672E-01 AU
 BOTTOM OF VIRTUAL BANDS - BAND    197; K    4; EIG -1.1607700E-01 AU
 INDIRECT ENERGY BAND GAP:   3.5943 eV
 BOTTOM OF VIRTUAL BANDS - BAND    197; K    1; EIG -1.1351060E-01 AU
 TTTTTTTTTTTTTTTTTTTTTTTTTTTTTT PDIG        TELAPSE     1225.13 TCPU     1155.65
 TOTAL ATOMIC CHARGES:
   1.1386025   1.1386025   1.1386025   1.1386025   1.2467978   1.2467978
   1.2467978   1.2467978   1.0848353   1.0848353   1.0848353   1.0848353
   6.0560005   6.0560005   6.0560005   6.0560005   5.7650761   5.7650761
   5.7650761   5.7650761   6.1627087   6.1627087   6.1627087   6.1627087
   5.5830602   5.5830602   5.5830602   5.5830602   5.9357744   5.9357744
   5.9357744   5.9357744   5.9854301   5.9854301   5.9854301   5.9854301
   7.1374902   7.1374902   7.1374902   7.1374902   7.0514035   7.0514035
   7.0514035   7.0514035   7.1196799   7.1196799   7.1196799   7.1196799
   7.0670682   7.0670682   7.0670682   7.0670682   7.0805893   7.0805893
   7.0805893   7.0805893   9.1407632   9.1407632   9.1407632   9.1407632
  28.8863694  28.8925106
 TTTTTTTTTTTTTTTTTTTTTTTTTTTTTT MOQGAD      TELAPSE     1225.18 TCPU     1155.69
 TTTTTTTTTTTTTTTTTTTTTTTTTTTTTT SHELLXN     TELAPSE     1315.39 TCPU     1245.39
 TTTTTTTTTTTTTTTTTTTTTTTTTTTTTT MONMO3      TELAPSE     1321.41 TCPU     1251.39
 NUMERICALLY INTEGRATED DENSITY    392.0000009408
 TTTTTTTTTTTTTTTTTTTTTTTTTTTTTT NUMDFT      TELAPSE     1328.58 TCPU     1258.53
 CYC  10 ETOT(AU) -5.970057174284E+03 DETOT -3.95E-05 tst  2.51E-07 PX  1.45E-03
 TTTTTTTTTTTTTTTTTTTTTTTTTTTTTT DIIS        TELAPSE     1328.89 TCPU     1258.83
 DIIS TEST: 0.94768E-04 AT SCF   CYCLE  10 - DIIS ACTIVE - HISTORY:    10 CYCLES
 TTTTTTTTTTTTTTTTTTTTTTTTTTTTTT FDIK        TELAPSE     1338.27 TCPU     1267.93
 INSULATING STATE
 TOP OF VALENCE BANDS -    BAND    196; K    6; EIG -2.4830912E-01 AU
 TOP OF VALENCE BANDS -    BAND    196; K    1; EIG -2.4846765E-01 AU
 BOTTOM OF VIRTUAL BANDS - BAND    197; K    4; EIG -1.1613117E-01 AU
 INDIRECT ENERGY BAND GAP:   3.5967 eV
 BOTTOM OF VIRTUAL BANDS - BAND    197; K    1; EIG -1.1355749E-01 AU
 TTTTTTTTTTTTTTTTTTTTTTTTTTTTTT PDIG        TELAPSE     1338.79 TCPU     1268.45
 TOTAL ATOMIC CHARGES:
   1.1387027   1.1387027   1.1387027   1.1387027   1.2465746   1.2465746
   1.2465746   1.2465746   1.0846075   1.0846075   1.0846075   1.0846075
   6.0560390   6.0560390   6.0560390   6.0560390   5.7657250   5.7657250
   5.7657250   5.7657250   6.1614017   6.1614017   6.1614017   6.1614017
   5.5821306   5.5821306   5.5821306   5.5821306   5.9377341   5.9377341
   5.9377341   5.9377341   5.9852852   5.9852852   5.9852852   5.9852852
   7.1377818   7.1377818   7.1377818   7.1377818   7.0498275   7.0498275
   7.0498275   7.0498275   7.1217357   7.1217357   7.1217357   7.1217357
   7.0653898   7.0653898   7.0653898   7.0653898   7.0814328   7.0814328
   7.0814328   7.0814328   9.1408986   9.1408986   9.1408986   9.1408986
  28.8863832  28.8925501
 TTTTTTTTTTTTTTTTTTTTTTTTTTTTTT MOQGAD      TELAPSE     1338.84 TCPU     1268.50
 TTTTTTTTTTTTTTTTTTTTTTTTTTTTTT SHELLXN     TELAPSE     1431.35 TCPU     1358.45
 TTTTTTTTTTTTTTTTTTTTTTTTTTTTTT MONMO3      TELAPSE     1436.88 TCPU     1363.96
 NUMERICALLY INTEGRATED DENSITY    392.0000009672
 TTTTTTTTTTTTTTTTTTTTTTTTTTTTTT NUMDFT      TELAPSE     1443.95 TCPU     1371.00
 CYC  11 ETOT(AU) -5.970057187124E+03 DETOT -1.28E-05 tst  6.16E-08 PX  6.24E-04
 TTTTTTTTTTTTTTTTTTTTTTTTTTTTTT DIIS        TELAPSE     1444.11 TCPU     1371.16
 DIIS TEST: 0.15182E-04 AT SCF   CYCLE  11 - DIIS ACTIVE - HISTORY:    11 CYCLES
 TTTTTTTTTTTTTTTTTTTTTTTTTTTTTT FDIK        TELAPSE     1456.00 TCPU     1380.49
 INSULATING STATE
 TOP OF VALENCE BANDS -    BAND    196; K    6; EIG -2.4831741E-01 AU
 TOP OF VALENCE BANDS -    BAND    196; K    1; EIG -2.4847589E-01 AU
 BOTTOM OF VIRTUAL BANDS - BAND    197; K    4; EIG -1.1610582E-01 AU
 INDIRECT ENERGY BAND GAP:   3.5977 eV
 BOTTOM OF VIRTUAL BANDS - BAND    197; K    1; EIG -1.1352655E-01 AU
 TTTTTTTTTTTTTTTTTTTTTTTTTTTTTT PDIG        TELAPSE     1456.51 TCPU     1381.00
 TOTAL ATOMIC CHARGES:
   1.1385757   1.1385757   1.1385757   1.1385757   1.2465628   1.2465628
   1.2465628   1.2465628   1.0845844   1.0845844   1.0845844   1.0845844
   6.0566656   6.0566656   6.0566656   6.0566656   5.7650986   5.7650986
   5.7650986   5.7650986   6.1622620   6.1622620   6.1622620   6.1622620
   5.5817718   5.5817718   5.5817718   5.5817718   5.9368851   5.9368851
   5.9368851   5.9368851   5.9856617   5.9856617   5.9856617   5.9856617
   7.1374228   7.1374228   7.1374228   7.1374228   7.0506876   7.0506876
   7.0506876   7.0506876   7.1209035   7.1209035   7.1209035   7.1209035
   7.0654583   7.0654583   7.0654583   7.0654583   7.0816029   7.0816029
   7.0816029   7.0816029   9.1408375   9.1408375   9.1408375   9.1408375
  28.8869065  28.8931731
 TTTTTTTTTTTTTTTTTTTTTTTTTTTTTT MOQGAD      TELAPSE     1456.56 TCPU     1381.05
 TTTTTTTTTTTTTTTTTTTTTTTTTTTTTT SHELLXN     TELAPSE     1549.16 TCPU     1470.89
 TTTTTTTTTTTTTTTTTTTTTTTTTTTTTT MONMO3      TELAPSE     1554.83 TCPU     1476.54
 NUMERICALLY INTEGRATED DENSITY    392.0000009646
 TTTTTTTTTTTTTTTTTTTTTTTTTTTTTT NUMDFT      TELAPSE     1561.90 TCPU     1483.59
 CYC  12 ETOT(AU) -5.970057188447E+03 DETOT -1.32E-06 tst  1.22E-08 PX  2.54E-04
 TTTTTTTTTTTTTTTTTTTTTTTTTTTTTT DIIS        TELAPSE     1562.07 TCPU     1483.76
 DIIS TEST: 0.49362E-05 AT SCF   CYCLE  12 - DIIS ACTIVE - HISTORY:    12 CYCLES
 TTTTTTTTTTTTTTTTTTTTTTTTTTTTTT FDIK        TELAPSE     1571.61 TCPU     1493.21
 INSULATING STATE
 TOP OF VALENCE BANDS -    BAND    196; K    6; EIG -2.4830654E-01 AU
 TOP OF VALENCE BANDS -    BAND    196; K    1; EIG -2.4846498E-01 AU
 BOTTOM OF VIRTUAL BANDS - BAND    197; K    4; EIG -1.1610924E-01 AU
 INDIRECT ENERGY BAND GAP:   3.5973 eV
 BOTTOM OF VIRTUAL BANDS - BAND    197; K    1; EIG -1.1353290E-01 AU
 TTTTTTTTTTTTTTTTTTTTTTTTTTTTTT PDIG        TELAPSE     1572.12 TCPU     1493.72
 TOTAL ATOMIC CHARGES:
   1.1386268   1.1386268   1.1386268   1.1386268   1.2465679   1.2465679
   1.2465679   1.2465679   1.0846846   1.0846846   1.0846846   1.0846846
   6.0565810   6.0565810   6.0565810   6.0565810   5.7650985   5.7650985
   5.7650985   5.7650985   6.1619792   6.1619792   6.1619792   6.1619792
   5.5820688   5.5820688   5.5820688   5.5820688   5.9370363   5.9370363
   5.9370363   5.9370363   5.9853190   5.9853190   5.9853190   5.9853190
   7.1378263   7.1378263   7.1378263   7.1378263   7.0501534   7.0501534
   7.0501534   7.0501534   7.1211936   7.1211936   7.1211936   7.1211936
   7.0655840   7.0655840   7.0655840   7.0655840   7.0815070   7.0815070
   7.0815070   7.0815070   9.1408548   9.1408548   9.1408548   9.1408548
  28.8867426  28.8929324
 TTTTTTTTTTTTTTTTTTTTTTTTTTTTTT MOQGAD      TELAPSE     1572.17 TCPU     1493.77
 TTTTTTTTTTTTTTTTTTTTTTTTTTTTTT SHELLXN     TELAPSE     1665.02 TCPU     1583.74
 TTTTTTTTTTTTTTTTTTTTTTTTTTTTTT MONMO3      TELAPSE     1670.93 TCPU     1589.63
 NUMERICALLY INTEGRATED DENSITY    392.0000009648
 TTTTTTTTTTTTTTTTTTTTTTTTTTTTTT NUMDFT      TELAPSE     1678.12 TCPU     1596.80
 CYC  13 ETOT(AU) -5.970057189151E+03 DETOT -7.04E-07 tst  1.83E-09 PX  1.44E-04
 TTTTTTTTTTTTTTTTTTTTTTTTTTTTTT DIIS        TELAPSE     1678.49 TCPU     1597.17
[...]
 TTTTTTTTTTTTTTTTTTTTTTTTTTTTTT MOQGAD      TELAPSE   373360.35 TCPU   370459.21
 TTTTTTTTTTTTTTTTTTTTTTTTTTTTTT CP_MONMON   TELAPSE   373378.25 TCPU   370477.02
 DIIS TEST: 0.55497E+01 AT CPHF  CYCLE  13 - DIIS ACTIVE - HISTORY:    13 CYCLES
 CYCLE  13   ALPHA  424.039409  EPSILON    2.144409  DELTA    2.0344E-02
 TTTTTTTTTTTTTTTTTTTTTTTTTTTTTT MOQGAD      TELAPSE   374205.22 TCPU   371296.74
 TTTTTTTTTTTTTTTTTTTTTTTTTTTTTT CP_MONMON   TELAPSE   374223.28 TCPU   371314.74
 DIIS TEST: 0.18228E+01 AT CPHF  CYCLE  14 - DIIS ACTIVE - HISTORY:    14 CYCLES
 CYCLE  14   ALPHA  424.083282  EPSILON    2.144528  DELTA    4.3873E-02
 TTTTTTTTTTTTTTTTTTTTTTTTTTTTTT MOQGAD      TELAPSE   375051.33 TCPU   372131.61
 TTTTTTTTTTTTTTTTTTTTTTTTTTTTTT CP_MONMON   TELAPSE   375069.39 TCPU   372149.62
 DIIS TEST: 0.52821E-01 AT CPHF  CYCLE  15 - DIIS ACTIVE - HISTORY:    15 CYCLES
 CYCLE  15   ALPHA  424.085237  EPSILON    2.144533  DELTA    1.9549E-03
 TTTTTTTTTTTTTTTTTTTTTTTTTTTTTT MOQGAD      TELAPSE   375902.18 TCPU   372969.36
 TTTTTTTTTTTTTTTTTTTTTTTTTTTTTT CP_MONMON   TELAPSE   375920.27 TCPU   372987.39
 DIIS TEST: 0.14912E-01 AT CPHF  CYCLE  16 - DIIS ACTIVE - HISTORY:    16 CYCLES
 CYCLE  16   ALPHA  424.075323  EPSILON    2.144506  DELTA   -9.9138E-03
 TTTTTTTTTTTTTTTTTTTTTTTTTTTTTT MOQGAD      TELAPSE   376752.12 TCPU   373806.29
 TTTTTTTTTTTTTTTTTTTTTTTTTTTTTT CP_MONMON   TELAPSE   376770.18 TCPU   373824.28
 DIIS TEST: 0.79132E-02 AT CPHF  CYCLE  17 - DIIS ACTIVE - HISTORY:    17 CYCLES
 CYCLE  17   ALPHA  424.076743  EPSILON    2.144510  DELTA    1.4202E-03
 TTTTTTTTTTTTTTTTTTTTTTTTTTTTTT MOQGAD      TELAPSE   377598.36 TCPU   374640.28
 TTTTTTTTTTTTTTTTTTTTTTTTTTTTTT CP_MONMON   TELAPSE   377616.29 TCPU   374658.17
 DIIS TEST: 0.32018E-01 AT CPHF  CYCLE  18 - DIIS ACTIVE - HISTORY:    18 CYCLES
 CYCLE  18   ALPHA  424.079461  EPSILON    2.144517  DELTA    2.7180E-03
 TTTTTTTTTTTTTTTTTTTTTTTTTTTTTT MOQGAD      TELAPSE   378455.06 TCPU   375480.93
 TTTTTTTTTTTTTTTTTTTTTTTTTTTTTT CP_MONMON   TELAPSE   378472.94 TCPU   375498.74
 DIIS TEST: 0.36337E-01 AT CPHF  CYCLE  19 - DIIS ACTIVE - HISTORY:    19 CYCLES
 CYCLE  19   ALPHA  424.078597  EPSILON    2.144515  DELTA   -8.6435E-04
 TTTTTTTTTTTTTTTTTTTTTTTTTTTTTT CP_SC       TELAPSE   378509.67 TCPU   375526.84

 *******************************************************************************

 POLARIZABILITY (ALPHA), DIELECTRIC (EPSILON) AND FIRST-ORDER ELECTRIC
 SUSCEPTIBILITY (CHI(1)) TENSORS (INDEPENDENT COMPONENTS)

  FR.(eV) COMP.   ALPHA(Re,Im)           EPSILON(Re,Im)                CHI(1)
  1.435   XX     855.5656       0.0000       3.3090       0.0000       2.3090
  1.435   ZZ     424.0786       0.0000       2.1445       0.0000       1.1445

 DIELECTRIC TENSOR

 TENSOR IN PRINCIPAL AXES SYSTEM
 AA  3.309024E+00 BB  3.309024E+00 CC  2.144515E+00

 REFRACTIVE INDICES 
 AA  1.464416E+00 BB  1.819072E+00 CC  1.819072E+00

 OPTICALLY ANISOTROPIC - UNIAXIAL CRYSTAL

 BIREFRINGENCE =  0.3547 (NEGATIVE) - OBLATE OPTICAL ELLIPSOID

 EPSILON=N**2=1+CHI(1)=1+ALPHA*4*PI/V,   4*PI/V=   0.00270 BOHR**(-3)
 ALPHA IN BOHR**3; EPSILON AND CHI(1) ARE DIMENSIONLESS.
 *******************************************************************************

 DYNAMIC FIELD: RUN 10/ 10 - RADIATION WAVELENGTH: 1064.0000 NM

 *******************************************************************************

 ELECTRIC FIELD APPLIED ALONG CARTESIAN DIRECTION X

 *******************************************************************************
 THE NUMBER OF SYMMETRY OPERATORS HAS BEEN REDUCED FROM  4 TO  1

 NEW GRID IN RECIPROCAL SPACE
 *******************************************************************************
 POINTS IN THE IBZ                  14 SHRINKING FACTORS               3  3  3
 *******************************************************************************
 *** K POINTS COORDINATES (OBLIQUE COORDINATES IN UNITS OF SHRINK FAC. )
   1-R(  0  0  0)   2-C(  1  0  0)   3-C(  0  1  2)   4-C(  2  0  1)
   5-C(  0  2  0)   6-C(  1  1  0)   7-C(  1  1  1)   8-C(  1  0  1)
   9-C(  0  1  1)  10-C(  2  1  0)  11-C(  0  0  2)  12-C(  2  1  1)
  13-C(  2  1  2)  14-C(  2  2  1)

 GCALCO - MAX INDICES DIRECT LATTICE VECTOR    14    14    16
 NO.OF VECTORS CREATED 6999 STARS  485 RMAX   198.94668 BOHR
 TTTTTTTTTTTTTTTTTTTTTTTTTTTTTT gordsh1     TELAPSE   378509.69 TCPU   375526.85

 MATRIX SIZE: P(G) 1849588, F(G)  925838, P(G) IRR  928108, F(G) IRR  928108
 MAX G-VECTOR INDEX FOR 1- AND 2-ELECTRON INTEGRALS  63

 TTTTTTTTTTTTTTTTTTTTTTTTTTTTTT INPUT       TELAPSE   378510.00 TCPU   375527.16
 TTTTTTTTTTTTTTTTTTTTTTTTTTTTTT SYMM        TELAPSE   378510.00 TCPU   375527.16

 ***** NEW REFERENCE GEOMETRY *****
 TTTTTTTTTTTTTTTTTTTTTTTTTTTTTT INT_SCREEN  TELAPSE   378510.02 TCPU   375527.17
 INFORMATION **** EXCBUF **** EXCH. BIPO BUFFER: WORDS USED =           0

 DFT PARAMETERS

     ATOM       ELECTRONS   NET CHARGE   R(ANGSTROM)
   1   1  H       1.0000      0.0000     1.11000000
  13   6  C       6.0000      0.0000     0.77000000
  37   7  N       7.0000      0.0000     0.74000000
  57   9  F       9.0000      0.0000     0.72000000
  61  30  ZN     30.0000      0.0000     1.37000000

 SIZE OF GRID=    1831946
 TTTTTTTTTTTTTTTTTTTTTTTTTTTTTT MAKE_GRID2  TELAPSE   378512.56 TCPU   375529.70
 BECKE WEIGHT FUNCTION
 RADSAFE =     2.00
 TOLERANCES - DENSITY:10**- 6; POTENTIAL:10**- 9; GRID WGT:10**-14

 RADIAL INTEGRATION  - INTERVALS (POINTS,UPPER LIMIT):            1( 75,  4.0*R)

 ANGULAR INTEGRATION - INTERVALS (ACCURACY LEVEL [N. POINTS] UPPER LIMIT):
  1(  4[  86]   0.2)  2(  8[ 194]   0.5)  3( 12[ 350]   0.9)  4( 16[ 974]   3.5)
  5( 12[ 350]9999.0)
 TTTTTTTTTTTTTTTTTTTTTTTTTTTTTT INT_CALC    TELAPSE   378512.68 TCPU   375529.82
 CYCLE   0   ALPHA 1210.974062  EPSILON    4.268210  DELTA    1.2110E+03
 TTTTTTTTTTTTTTTTTTTTTTTTTTTTTT MOQGAD      TELAPSE   380092.23 TCPU   377103.70
 TTTTTTTTTTTTTTTTTTTTTTTTTTTTTT CP_MONMON   TELAPSE   380125.40 TCPU   377136.79
 DIIS TEST: 0.34406E+03 AT CPHF  CYCLE   1 - MIX    0 %
 CYCLE   1   ALPHA   40.494765  EPSILON    1.109288  DELTA   -1.1705E+03
 TTTTTTTTTTTTTTTTTTTTTTTTTTTTTT MOQGAD      TELAPSE   381716.35 TCPU   378713.23
 TTTTTTTTTTTTTTTTTTTTTTTTTTTTTT CP_MONMON   TELAPSE   381752.19 TCPU   378748.89
 DIIS TEST: 0.27760E+04 AT CPHF  CYCLE   2 - DIIS ACTIVE - HISTORY:     2 CYCLES
 CYCLE   2   ALPHA  782.636514  EPSILON    3.112201  DELTA    7.4214E+02
 TTTTTTTTTTTTTTTTTTTTTTTTTTTTTT MOQGAD      TELAPSE   383339.59 TCPU   380323.47
 TTTTTTTTTTTTTTTTTTTTTTTTTTTTTT CP_MONMON   TELAPSE   383373.02 TCPU   380356.79
 DIIS TEST: 0.69784E+02 AT CPHF  CYCLE   3 - DIIS ACTIVE - HISTORY:     3 CYCLES
 CYCLE   3   ALPHA  824.399311  EPSILON    3.224911  DELTA    4.1763E+01
 TTTTTTTTTTTTTTTTTTTTTTTTTTTTTT MOQGAD      TELAPSE   384958.39 TCPU   381930.00
 TTTTTTTTTTTTTTTTTTTTTTTTTTTTTT CP_MONMON   TELAPSE   384991.61 TCPU   381963.12
 DIIS TEST: 0.34169E+01 AT CPHF  CYCLE   4 - DIIS ACTIVE - HISTORY:     4 CYCLES
 CYCLE   4   ALPHA  836.279459  EPSILON    3.256974  DELTA    1.1880E+01
 TTTTTTTTTTTTTTTTTTTTTTTTTTTTTT MOQGAD      TELAPSE   386582.74 TCPU   383541.66
 TTTTTTTTTTTTTTTTTTTTTTTTTTTTTT CP_MONMON   TELAPSE   386615.98 TCPU   383574.78
 DIIS TEST: 0.11569E+01 AT CPHF  CYCLE   5 - DIIS ACTIVE - HISTORY:     5 CYCLES
 CYCLE   5   ALPHA  841.744895  EPSILON    3.271724  DELTA    5.4654E+00
 TTTTTTTTTTTTTTTTTTTTTTTTTTTTTT MOQGAD      TELAPSE   388209.42 TCPU   385151.38
 TTTTTTTTTTTTTTTTTTTTTTTTTTTTTT CP_MONMON   TELAPSE   388242.58 TCPU   385184.42
 DIIS TEST: 0.75499E-01 AT CPHF  CYCLE   6 - DIIS ACTIVE - HISTORY:     6 CYCLES
 CYCLE   6   ALPHA  843.044937  EPSILON    3.275233  DELTA    1.3000E+00
 TTTTTTTTTTTTTTTTTTTTTTTTTTTTTT MOQGAD      TELAPSE   389828.95 TCPU   386763.62
 TTTTTTTTTTTTTTTTTTTTTTTTTTTTTT CP_MONMON   TELAPSE   389862.26 TCPU   386796.78
 DIIS TEST: 0.95822E-02 AT CPHF  CYCLE   7 - DIIS ACTIVE - HISTORY:     7 CYCLES
 CYCLE   7   ALPHA  843.170529  EPSILON    3.275572  DELTA    1.2559E-01
 TTTTTTTTTTTTTTTTTTTTTTTTTTTTTT MOQGAD      TELAPSE   391446.51 TCPU   388368.60
 TTTTTTTTTTTTTTTTTTTTTTTTTTTTTT CP_MONMON   TELAPSE   391482.16 TCPU   388404.09
 DIIS TEST: 0.52738E-01 AT CPHF  CYCLE   8 - DIIS ACTIVE - HISTORY:     8 CYCLES
 CYCLE   8   ALPHA  843.187230  EPSILON    3.275617  DELTA    1.6701E-02
 TTTTTTTTTTTTTTTTTTTTTTTTTTTTTT MOQGAD      TELAPSE   393066.10 TCPU   389975.40
 TTTTTTTTTTTTTTTTTTTTTTTTTTTTTT CP_MONMON   TELAPSE   393099.31 TCPU   390008.48
 DIIS TEST: 0.35573E-02 AT CPHF  CYCLE   9 - DIIS ACTIVE - HISTORY:     9 CYCLES
 CYCLE   9   ALPHA  843.263614  EPSILON    3.275823  DELTA    7.6384E-02
 TTTTTTTTTTTTTTTTTTTTTTTTTTTTTT MOQGAD      TELAPSE   394691.27 TCPU   391583.97
 TTTTTTTTTTTTTTTTTTTTTTTTTTTTTT CP_MONMON   TELAPSE   394790.83 TCPU   391618.05
 DIIS TEST: 0.10455E-03 AT CPHF  CYCLE  10 - DIIS ACTIVE - HISTORY:    10 CYCLES
 CYCLE  10   ALPHA  843.241570  EPSILON    3.275763  DELTA   -2.2044E-02
 TTTTTTTTTTTTTTTTTTTTTTTTTTTTTT MOQGAD      TELAPSE   396384.07 TCPU   393194.99
 TTTTTTTTTTTTTTTTTTTTTTTTTTTTTT CP_MONMON   TELAPSE   396417.26 TCPU   393228.11
 DIIS TEST: 0.18859E-04 AT CPHF  CYCLE  11 - DIIS ACTIVE - HISTORY:    11 CYCLES
 CYCLE  11   ALPHA  843.228727  EPSILON    3.275729  DELTA   -1.2843E-02
 TTTTTTTTTTTTTTTTTTTTTTTTTTTTTT MOQGAD      TELAPSE   398006.60 TCPU   394803.32
 TTTTTTTTTTTTTTTTTTTTTTTTTTTTTT CP_MONMON   TELAPSE   398040.05 TCPU   394836.66
 DIIS TEST: 0.30057E-05 AT CPHF  CYCLE  12 - DIIS ACTIVE - HISTORY:    12 CYCLES
 CYCLE  12   ALPHA  843.221749  EPSILON    3.275710  DELTA   -6.9776E-03
 TTTTTTTTTTTTTTTTTTTTTTTTTTTTTT MOQGAD      TELAPSE   399634.84 TCPU   396421.25
 TTTTTTTTTTTTTTTTTTTTTTTTTTTTTT CP_MONMON   TELAPSE   399668.27 TCPU   396454.61
 DIIS TEST: 0.36846E-06 AT CPHF  CYCLE  13 - DIIS ACTIVE - HISTORY:    13 CYCLES
 CYCLE  13   ALPHA  843.220142  EPSILON    3.275706  DELTA   -1.6068E-03
 TTTTTTTTTTTTTTTTTTTTTTTTTTTTTT MOQGAD      TELAPSE   401301.82 TCPU   398061.35
 TTTTTTTTTTTTTTTTTTTTTTTTTTTTTT CP_MONMON   TELAPSE   401335.26 TCPU   398094.64
 DIIS TEST: 0.24563E-07 AT CPHF  CYCLE  14 - DIIS ACTIVE - HISTORY:    14 CYCLES
 CYCLE  14   ALPHA  843.219516  EPSILON    3.275704  DELTA   -6.2610E-04
 TTTTTTTTTTTTTTTTTTTTTTTTTTTTTT CP_SC       TELAPSE   401435.19 TCPU   398154.87

 *******************************************************************************

 ELECTRIC FIELD APPLIED ALONG CARTESIAN DIRECTION Z

 *******************************************************************************
 THE NUMBER OF SYMMETRY OPERATORS HAS BEEN REDUCED FROM  4 TO  2

 NEW GRID IN RECIPROCAL SPACE
 *******************************************************************************
 POINTS IN THE IBZ                  10 SHRINKING FACTORS               3  3  3
 *******************************************************************************
 *** K POINTS COORDINATES (OBLIQUE COORDINATES IN UNITS OF SHRINK FAC. )
   1-R(  0  0  0)   2-C(  1  0  0)   3-C(  2  0  1)   4-C(  1  1  0)
   5-C(  1  0  1)   6-C(  2  1  0)   7-C(  0  0  2)   8-C(  2  1  1)
   9-C(  2  1  2)  10-C(  2  2  1)

 GCALCO - MAX INDICES DIRECT LATTICE VECTOR    14    14    16
 NO.OF VECTORS CREATED 6999 STARS  485 RMAX   198.94668 BOHR
 TTTTTTTTTTTTTTTTTTTTTTTTTTTTTT gordsh1     TELAPSE   401435.20 TCPU   398154.88

 MATRIX SIZE: P(G) 1849588, F(G)  925838, P(G) IRR  466596, F(G) IRR  466596
 MAX G-VECTOR INDEX FOR 1- AND 2-ELECTRON INTEGRALS  63

 TTTTTTTTTTTTTTTTTTTTTTTTTTTTTT INPUT       TELAPSE   401435.29 TCPU   398154.97
 TTTTTTTTTTTTTTTTTTTTTTTTTTTTTT SYMM        TELAPSE   401435.29 TCPU   398154.97

 ***** NEW REFERENCE GEOMETRY *****
 TTTTTTTTTTTTTTTTTTTTTTTTTTTTTT INT_SCREEN  TELAPSE   401435.30 TCPU   398154.98
 INFORMATION **** EXCBUF **** EXCH. BIPO BUFFER: WORDS USED =           0

 DFT PARAMETERS

     ATOM       ELECTRONS   NET CHARGE   R(ANGSTROM)
   1   1  H       1.0000      0.0000     1.11000000
  13   6  C       6.0000      0.0000     0.77000000
  37   7  N       7.0000      0.0000     0.74000000
  57   9  F       9.0000      0.0000     0.72000000
  61  30  ZN     30.0000      0.0000     1.37000000

 SIZE OF GRID=     916088
 TTTTTTTTTTTTTTTTTTTTTTTTTTTTTT MAKE_GRID2  TELAPSE   401436.82 TCPU   398156.49
 BECKE WEIGHT FUNCTION
 RADSAFE =     2.00
 TOLERANCES - DENSITY:10**- 6; POTENTIAL:10**- 9; GRID WGT:10**-14

 RADIAL INTEGRATION  - INTERVALS (POINTS,UPPER LIMIT):            1( 75,  4.0*R)

 ANGULAR INTEGRATION - INTERVALS (ACCURACY LEVEL [N. POINTS] UPPER LIMIT):
  1(  4[  86]   0.2)  2(  8[ 194]   0.5)  3( 12[ 350]   0.9)  4( 16[ 974]   3.5)
  5( 12[ 350]9999.0)
 TTTTTTTTTTTTTTTTTTTTTTTTTTTTTT INT_CALC    TELAPSE   401436.89 TCPU   398156.56
 CYCLE   0   ALPHA  527.399220  EPSILON    2.423359  DELTA    5.2740E+02
 TTTTTTTTTTTTTTTTTTTTTTTTTTTTTT MOQGAD      TELAPSE   402278.57 TCPU   398995.63
 TTTTTTTTTTTTTTTTTTTTTTTTTTTTTT CP_MONMON   TELAPSE   402296.58 TCPU   399013.59
 DIIS TEST: 0.55627E+02 AT CPHF  CYCLE   1 - MIX    0 %
 CYCLE   1   ALPHA  294.108602  EPSILON    1.793748  DELTA   -2.3329E+02
 TTTTTTTTTTTTTTTTTTTTTTTTTTTTTT MOQGAD      TELAPSE   403126.43 TCPU   399831.53
 TTTTTTTTTTTTTTTTTTTTTTTTTTTTTT CP_MONMON   TELAPSE   403144.42 TCPU   399849.48
 DIIS TEST: 0.31794E+03 AT CPHF  CYCLE   2 - DIIS ACTIVE - HISTORY:     2 CYCLES
 CYCLE   2   ALPHA  394.475327  EPSILON    2.064621  DELTA    1.0037E+02
 TTTTTTTTTTTTTTTTTTTTTTTTTTTTTT MOQGAD      TELAPSE   403976.96 TCPU   400665.70
 TTTTTTTTTTTTTTTTTTTTTTTTTTTTTT CP_MONMON   TELAPSE   403994.96 TCPU   400683.65
 DIIS TEST: 0.34299E+03 AT CPHF  CYCLE   3 - DIIS ACTIVE - HISTORY:     3 CYCLES
 CYCLE   3   ALPHA  397.605484  EPSILON    2.073069  DELTA    3.1302E+00
 TTTTTTTTTTTTTTTTTTTTTTTTTTTTTT MOQGAD      TELAPSE   404845.58 TCPU   401517.70
 TTTTTTTTTTTTTTTTTTTTTTTTTTTTTT CP_MONMON   TELAPSE   404863.59 TCPU   401535.58
 DIIS TEST: 0.43165E+04 AT CPHF  CYCLE   4 - DIIS ACTIVE - HISTORY:     4 CYCLES
 CYCLE   4   ALPHA  410.934267  EPSILON    2.109041  DELTA    1.3329E+01
 TTTTTTTTTTTTTTTTTTTTTTTTTTTTTT MOQGAD      TELAPSE   405709.26 TCPU   402359.44
 TTTTTTTTTTTTTTTTTTTTTTTTTTTTTT CP_MONMON   TELAPSE   405727.37 TCPU   402377.49
 DIIS TEST: 0.37828E+03 AT CPHF  CYCLE   5 - DIIS ACTIVE - HISTORY:     5 CYCLES
 CYCLE   5   ALPHA  420.079202  EPSILON    2.133721  DELTA    9.1449E+00
 TTTTTTTTTTTTTTTTTTTTTTTTTTTTTT MOQGAD      TELAPSE   406571.59 TCPU   403195.85
 TTTTTTTTTTTTTTTTTTTTTTTTTTTTTT CP_MONMON   TELAPSE   406589.70 TCPU   403213.91
 DIIS TEST: 0.10224E+03 AT CPHF  CYCLE   6 - DIIS ACTIVE - HISTORY:     6 CYCLES
 CYCLE   6   ALPHA  420.507297  EPSILON    2.134877  DELTA    4.2810E-01
 TTTTTTTTTTTTTTTTTTTTTTTTTTTTTT MOQGAD      TELAPSE   407456.43 TCPU   404060.05
 TTTTTTTTTTTTTTTTTTTTTTTTTTTTTT CP_MONMON   TELAPSE   407474.40 TCPU   404077.96
 DIIS TEST: 0.24098E+02 AT CPHF  CYCLE   7 - DIIS ACTIVE - HISTORY:     7 CYCLES
 CYCLE   7   ALPHA  420.608902  EPSILON    2.135151  DELTA    1.0161E-01
 TTTTTTTTTTTTTTTTTTTTTTTTTTTTTT MOQGAD      TELAPSE   408305.74 TCPU   404895.28
 TTTTTTTTTTTTTTTTTTTTTTTTTTTTTT CP_MONMON   TELAPSE   408323.69 TCPU   404913.17
 DIIS TEST: 0.47271E+01 AT CPHF  CYCLE   8 - DIIS ACTIVE - HISTORY:     8 CYCLES
 CYCLE   8   ALPHA  420.747859  EPSILON    2.135526  DELTA    1.3896E-01
 TTTTTTTTTTTTTTTTTTTTTTTTTTTTTT MOQGAD      TELAPSE   409162.04 TCPU   405739.75
 TTTTTTTTTTTTTTTTTTTTTTTTTTTTTT CP_MONMON   TELAPSE   409180.19 TCPU   405757.81
 DIIS TEST: 0.52163E+01 AT CPHF  CYCLE   9 - DIIS ACTIVE - HISTORY:     9 CYCLES
 CYCLE   9   ALPHA  420.786840  EPSILON    2.135631  DELTA    3.8980E-02
 TTTTTTTTTTTTTTTTTTTTTTTTTTTTTT MOQGAD      TELAPSE   410006.38 TCPU   406573.68
 TTTTTTTTTTTTTTTTTTTTTTTTTTTTTT CP_MONMON   TELAPSE   410024.33 TCPU   406591.57
 DIIS TEST: 0.65025E+01 AT CPHF  CYCLE  10 - DIIS ACTIVE - HISTORY:    10 CYCLES
 CYCLE  10   ALPHA  420.783986  EPSILON    2.135623  DELTA   -2.8532E-03
 TTTTTTTTTTTTTTTTTTTTTTTTTTTTTT MOQGAD      TELAPSE   410855.04 TCPU   407408.92
 TTTTTTTTTTTTTTTTTTTTTTTTTTTTTT CP_MONMON   TELAPSE   410873.16 TCPU   407426.99
 DIIS TEST: 0.58505E+01 AT CPHF  CYCLE  11 - DIIS ACTIVE - HISTORY:    11 CYCLES
 CYCLE  11   ALPHA  420.771842  EPSILON    2.135591  DELTA   -1.2144E-02
 TTTTTTTTTTTTTTTTTTTTTTTTTTTTTT MOQGAD      TELAPSE   411695.98 TCPU   408241.89
 TTTTTTTTTTTTTTTTTTTTTTTTTTTTTT CP_MONMON   TELAPSE   411713.93 TCPU   408259.80
 DIIS TEST: 0.51711E+01 AT CPHF  CYCLE  12 - DIIS ACTIVE - HISTORY:    12 CYCLES
 CYCLE  12   ALPHA  420.768912  EPSILON    2.135583  DELTA   -2.9302E-03
 TTTTTTTTTTTTTTTTTTTTTTTTTTTTTT MOQGAD      TELAPSE   412562.38 TCPU   409093.83
 TTTTTTTTTTTTTTTTTTTTTTTTTTTTTT CP_MONMON   TELAPSE   412580.33 TCPU   409111.72
 DIIS TEST: 0.34633E+01 AT CPHF  CYCLE  13 - DIIS ACTIVE - HISTORY:    13 CYCLES
 CYCLE  13   ALPHA  420.783640  EPSILON    2.135622  DELTA    1.4728E-02
 TTTTTTTTTTTTTTTTTTTTTTTTTTTTTT MOQGAD      TELAPSE   413402.42 TCPU   409929.22
 TTTTTTTTTTTTTTTTTTTTTTTTTTTTTT CP_MONMON   TELAPSE   413420.38 TCPU   409947.12
 DIIS TEST: 0.11299E+01 AT CPHF  CYCLE  14 - DIIS ACTIVE - HISTORY:    14 CYCLES
 CYCLE  14   ALPHA  420.816250  EPSILON    2.135710  DELTA    3.2610E-02
 TTTTTTTTTTTTTTTTTTTTTTTTTTTTTT MOQGAD      TELAPSE   414292.88 TCPU   410796.73
 TTTTTTTTTTTTTTTTTTTTTTTTTTTTTT CP_MONMON   TELAPSE   414310.88 TCPU   410814.68
 DIIS TEST: 0.36558E-01 AT CPHF  CYCLE  15 - DIIS ACTIVE - HISTORY:    15 CYCLES
 CYCLE  15   ALPHA  420.816616  EPSILON    2.135711  DELTA    3.6582E-04
 TTTTTTTTTTTTTTTTTTTTTTTTTTTTTT CP_SC       TELAPSE   414364.24 TCPU   410849.28

 *******************************************************************************

 POLARIZABILITY (ALPHA), DIELECTRIC (EPSILON) AND FIRST-ORDER ELECTRIC
 SUSCEPTIBILITY (CHI(1)) TENSORS (INDEPENDENT COMPONENTS)

  FR.(eV) COMP.   ALPHA(Re,Im)           EPSILON(Re,Im)                CHI(1)
  1.165   XX     843.2195       0.0000       3.2757       0.0000       2.2757
  1.165   ZZ     420.8166       0.0000       2.1357       0.0000       1.1357

 DIELECTRIC TENSOR

 TENSOR IN PRINCIPAL AXES SYSTEM
 AA  3.275704E+00 BB  3.275704E+00 CC  2.135711E+00

 REFRACTIVE INDICES 
 AA  1.461407E+00 BB  1.809891E+00 CC  1.809891E+00

 OPTICALLY ANISOTROPIC - UNIAXIAL CRYSTAL

 BIREFRINGENCE =  0.3485 (NEGATIVE) - OBLATE OPTICAL ELLIPSOID

 EPSILON=N**2=1+CHI(1)=1+ALPHA*4*PI/V,   4*PI/V=   0.00270 BOHR**(-3)
 ALPHA IN BOHR**3; EPSILON AND CHI(1) ARE DIMENSIONLESS.
 *******************************************************************************


 GCALCO - MAX INDICES DIRECT LATTICE VECTOR    14    14    16
 NO.OF VECTORS CREATED 6999 STARS  485 RMAX   198.94668 BOHR

 CAPPA:IS1  3;IS2  3;IS3  3; K PTS MONK NET   6; SYMMOPS:K SPACE   8;G SPACE   4

 TTTTTTTTTTTTTTTTTTTTTTTTTTTTTT END         TELAPSE   414364.30 TCPU   410849.28
 EEEEEEEEEE TERMINATION  DATE 02 12 2023 TIME 04:17:17.6
NODE    0 CPU TIME =    410849.283
NODE    1 CPU TIME =    411876.777
NODE    2 CPU TIME =    411905.170
NODE    3 CPU TIME =    411856.689
NODE    4 CPU TIME =    411511.081
NODE    5 CPU TIME =    411920.579
NODE    6 CPU TIME =    411988.712
NODE    7 CPU TIME =    411738.111
NODE    8 CPU TIME =    411698.954
NODE    9 CPU TIME =    411757.904
NODE   10 CPU TIME =    411560.071
NODE   11 CPU TIME =    411499.941
NODE   12 CPU TIME =    411129.753
NODE   13 CPU TIME =    411659.747
NODE   14 CPU TIME =    411192.803
NODE   15 CPU TIME =    411235.014
NODE   16 CPU TIME =    410797.921
NODE   17 CPU TIME =    411369.926
NODE   18 CPU TIME =    411434.866
NODE   19 CPU TIME =    411251.411
NODE   20 CPU TIME =    410746.819
NODE   21 CPU TIME =    411185.307
NODE   22 CPU TIME =    411116.089
NODE   23 CPU TIME =    410858.863
    TOTAL CPU TIME =   9874141.792
trying normal rsh (/usr/bin/rsh)
exec: No such file or directory
trying normal rsh (/usr/bin/rsh)
exec: No such file or directory
trying normal rsh (/usr/bin/rsh)
exec: No such file or directory
trying normal rsh (/usr/bin/rsh)
exec: No such file or directory
