Loading crystal17/1.0.2/intel/19.0
  Loading requirement: intel/19.0 ompi/4.0.1/intel/19.0
          64 PROCESSORS WORKING

         
 *******************************************************************************
 *                                                                             *
 *                               CRYSTAL17                                     *
 *                      public : 1.0.2 - March 1st, 2018                       *
 *                       HTTP://WWW.CRYSTAL.UNITO.IT                           *
 *                                                                             *
 *                              MAIN AUTHORS                                   *
 *                                                                             *
 *  R. DOVESI(1,11), V.R. SAUNDERS(2), C. ROETTI(1,11), R. ORLANDO(1,11),      *
 *  C.M. ZICOVICH-WILSON(1,3), F. PASCALE(4), B. CIVALLERI(1,11),              *
 *  K. DOLL(5), N.M. HARRISON(2,6), I.J. BUSH(7), Ph. D'ARCO(8),               *
 *  M. LLUNELL(9), M. CAUSA'(10), Y. NOEL(8), L. MASCHIO(1,11), A. ERBA(1,11)  *
 *  M. RE'RAT(14), S. CASASSA(1,11)                                            *
 *                                                                             *
 *        CONTRIBUTIONS TO THE CODE HAVE ALSO BEEN GIVEN BY                    *
 *                                                                             *
 *  M. FERRABONE(1,11), M. DE LA PIERRE(1,11), M. FERRERO(1,11),               *
 *  J. BAIMA(1,11), E. ALBANESE(1,11), M.F. PEINTINGER(12), R. BAST(13),       *
 *  B. KIRTMAN(15), V. LACIVITA(1,11), R. DEMICHELIS(1,16)                     *
 *  G. BRANDEBURG(17), S. SALUSTRO(1,11), G. SANSONE(1,11)                     *
 *  M.T. RUGGIERO(18)                                                          *
 *                                                                             *
 * (1) THEORETICAL CHEMISTRY GROUP - UNIVERSITA' DI TORINO - TORINO (ITALY)    *
 * (2) COMPUTATIONAL SCIENCE & ENGINEERING DEPARTMENT - STFC DARESBURY (UK)    *
 * (3) UNIVERSIDAD AUTONOMA DEL ESTADO DE MORELOS - CUERNAVACA (MEXICO)        *
 * (4) UNIVERSITE' DE LORRAINE - NANCY (FRANCE)                                *
 * (5) UNIVERSITAET STUTTGART- STUTTGART (GERMANY)                             *
 * (6) IMPERIAL COLLEGE - LONDON (UK)                                          *
 * (7) OXFORD E-RESEARCH CENTRE - OXFORD (UK)                                  *
 * (8) UPMC - SORBONNE UNIVERSITES - PARIS (FRANCE)                            *
 * (9) UNIVERSIDAD DE BARCELONA - BARCELONA (SPAIN)                            *
 *(10) UNIVERSITA' DI NAPOLI "FEDERICO II" - NAPOLI (ITALY)                    *
 *(11) NIS - NANOSTRUCTURED INTERFACES AND SURFACES - TORINO (ITALY)           *
 *(12) MPI FUER CHEMISCHE ENERGIEKONVERSION - MUELHEIM AN DER RUHR (GERMANY)   *
 *(13) UNIVERSITY OF TROMSO - TROMSO (NORWAY)                                  *
 *(14) UNIVERSITE' DE PAU ET DES PAYS DE L'ADOUR - PAU (FRANCE)                *
 *(15) UNIVERSITY OF CALIFORNIA SANTA BARBARA - SANTA BARBARA (USA)            *
 *(16) CURTIN UNIVERSITY - PERTH (AUSTRALIA)                                   *
 *(17) UNIVERSITY COLLEGE LONDON - LONDON (UK)                                 *
 *(18) CAMBRIDGE UNIVERSITY - CAMBRIDGE (UK)                                   *
 *                                                                             *
 *******************************************************************************
 EEEEEEEEEE STARTING  DATE 17 01 2024 TIME 15:37:59.6
 Zi\home\sanoj\Downloads\tmp_p\newconn.mol                                       

 CRYSTAL CALCULATION
 (INPUT ACCORDING TO THE INTERNATIONAL TABLES FOR X-RAY CRYSTALLOGRAPHY)
 CRYSTAL FAMILY                       :  TETRAGONAL  
 CRYSTAL CLASS  (GROTH - 1921)        :  TETRAGONAL DISPHENOIDAL              

 SPACE GROUP (NONCENTROSYMMETRIC)     :  I -4            

 LATTICE PARAMETERS  (ANGSTROMS AND DEGREES) - CONVENTIONAL CELL
        A           B           C        ALPHA        BETA       GAMMA
     9.96367     9.96367    14.08685    90.00000    90.00000    90.00000


 NUMBER OF IRREDUCIBLE ATOMS IN THE CONVENTIONAL CELL:   17

 INPUT COORDINATES

 ATOM AT. N.              COORDINATES
   1   1     1.281900000000E-01  5.213700000000E-01  3.283100000000E-01
   2   1     3.591400000000E-01  4.489400000000E-01  3.840300000000E-01
   3   6     2.687000000000E-01  8.258000000000E-01  3.827700000000E-01
   4   6     2.518300000000E-01 -2.932000000000E-02  3.759700000000E-01
   5   6     1.753000000000E-01  7.314700000000E-01  3.507500000000E-01
   6   6     3.285400000000E-01  5.543500000000E-01  3.839800000000E-01
   7   6     3.881600000000E-01  7.701900000000E-01  4.177700000000E-01
   8   6     7.980900000000E-01  4.054300000000E-01  3.524100000000E-01
   9   7     3.356600000000E-01  4.996000000000E-02  3.255500000000E-01
  10   7     2.937800000000E-01  1.802500000000E-01  3.397200000000E-01
  11   7     1.592100000000E-01  4.770000000000E-02  4.198400000000E-01
  12   7     1.884100000000E-01  1.791800000000E-01  3.962600000000E-01
  13   7     4.207600000000E-01  6.424500000000E-01  4.168300000000E-01
  14   9     5.875000000000E-02  7.773300000000E-01  3.153200000000E-01
  15   9     4.773000000000E-01  8.560300000000E-01  4.569800000000E-01
  16  30     0.000000000000E+00  5.000000000000E-01  7.500000000000E-01
  17  30     0.000000000000E+00  0.000000000000E+00  5.000000000000E-01

 *******************************************************************************

 << INFORMATION >>: FROM NOW ON, ALL COORDINATES REFER TO THE PRIMITIVE CELL

 *******************************************************************************

 LATTICE PARAMETERS  (ANGSTROMS AND DEGREES) - PRIMITIVE CELL
       A          B          C        ALPHA      BETA     GAMMA        VOLUME
    9.96229    9.96229    9.96229   119.99084 119.99084  90.01586    699.234022

 COORDINATES OF THE EQUIVALENT ATOMS (FRACTIONAL UNITS)

 N. ATOM EQUIV AT. N.          X                  Y                  Z

   1   1   1    1 H    -1.50320000000E-01  4.56500000000E-01 -3.50440000000E-01
   2   1   2    1 H    -1.93060000000E-01  2.00120000000E-01  3.50440000000E-01
   3   1   3    1 H    -4.56500000000E-01  1.93060000000E-01  3.93180000000E-01
   4   1   4    1 H    -2.00120000000E-01  1.50320000000E-01 -3.93180000000E-01

   5   2   1    1 H    -1.67030000000E-01 -2.56830000000E-01 -1.91920000000E-01
   6   2   2    1 H    -6.49100000000E-02  2.48900000000E-02  1.91920000000E-01
   7   2   3    1 H     2.56830000000E-01  6.49100000000E-02  8.98000000000E-02
   8   2   4    1 H    -2.48900000000E-02  1.67030000000E-01 -8.98000000000E-02

   9   3   1    6 C     2.08570000000E-01 -3.48530000000E-01  9.45000000000E-02
  10   3   2    6 C    -4.43030000000E-01  1.14070000000E-01 -9.45000000000E-02
  11   3   3    6 C     3.48530000000E-01  4.43030000000E-01 -4.42900000000E-01
  12   3   4    6 C    -1.14070000000E-01 -2.08570000000E-01  4.42900000000E-01

  13   4   1    6 C     3.46650000000E-01 -3.72200000000E-01  2.22510000000E-01
  14   4   2    6 C     4.05290000000E-01  1.24140000000E-01 -2.22510000000E-01
  15   4   3    6 C     3.72200000000E-01 -4.05290000000E-01 -2.81150000000E-01
  16   4   4    6 C    -1.24140000000E-01 -3.46650000000E-01  2.81150000000E-01

  17   5   1    6 C     8.22200000000E-02 -4.73950000000E-01 -9.32300000000E-02
  18   5   2    6 C    -3.80720000000E-01  1.75450000000E-01  9.32300000000E-02
  19   5   3    6 C     4.73950000000E-01  3.80720000000E-01 -4.43830000000E-01
  20   5   4    6 C    -1.75450000000E-01 -8.22200000000E-02  4.43830000000E-01

  21   6   1    6 C    -6.16700000000E-02 -2.87480000000E-01 -1.17110000000E-01
  22   6   2    6 C    -1.70370000000E-01  5.54400000000E-02  1.17110000000E-01
  23   6   3    6 C     2.87480000000E-01  1.70370000000E-01  2.25810000000E-01
  24   6   4    6 C    -5.54400000000E-02  6.16700000000E-02 -2.25810000000E-01

  25   7   1    6 C     1.87960000000E-01 -1.94070000000E-01  1.58350000000E-01
  26   7   2    6 C    -3.52420000000E-01  2.96100000000E-02 -1.58350000000E-01
  27   7   3    6 C     1.94070000000E-01  3.52420000000E-01  3.82030000000E-01
  28   7   4    6 C    -2.96100000000E-02 -1.87960000000E-01 -3.82030000000E-01

  29   8   1    6 C    -2.42160000000E-01  1.50500000000E-01  2.03520000000E-01
  30   8   2    6 C    -5.30200000000E-02 -4.45680000000E-01 -2.03520000000E-01
  31   8   3    6 C    -1.50500000000E-01  5.30200000000E-02 -3.92660000000E-01
  32   8   4    6 C     4.45680000000E-01  2.42160000000E-01  3.92660000000E-01

  33   9   1    7 N     3.75510000000E-01 -3.38790000000E-01  3.85620000000E-01
  34   9   2    7 N     2.75590000000E-01 -1.01100000000E-02 -3.85620000000E-01
  35   9   3    7 N     3.38790000000E-01 -2.75590000000E-01 -2.85700000000E-01
  36   9   4    7 N     1.01100000000E-02 -3.75510000000E-01  2.85700000000E-01

  37  10   1    7 N    -4.80030000000E-01 -3.66500000000E-01  4.74030000000E-01
  38  10   2    7 N     1.59470000000E-01  4.59400000000E-02 -4.74030000000E-01
  39  10   3    7 N     3.66500000000E-01 -1.59470000000E-01 -1.13530000000E-01
  40  10   4    7 N    -4.59400000000E-02  4.80030000000E-01  1.13530000000E-01

  41  11   1    7 N     4.67540000000E-01 -4.20950000000E-01  2.06910000000E-01
  42  11   2    7 N     3.72140000000E-01  2.60630000000E-01 -2.06910000000E-01
  43  11   3    7 N     4.20950000000E-01 -3.72140000000E-01 -1.11510000000E-01
  44  11   4    7 N    -2.60630000000E-01 -4.67540000000E-01  1.11510000000E-01

  45  12   1    7 N    -4.24560000000E-01 -4.15330000000E-01  3.67590000000E-01
  46  12   2    7 N     2.17080000000E-01  2.07850000000E-01 -3.67590000000E-01
  47  12   3    7 N     4.15330000000E-01 -2.17080000000E-01 -9.23000000000E-03
  48  12   4    7 N    -2.07850000000E-01  4.24560000000E-01  9.23000000000E-03

  49  13   1    7 N     5.92800000000E-02 -1.62410000000E-01  6.32100000000E-02
  50  13   2    7 N    -2.25620000000E-01 -3.93000000000E-03 -6.32100000000E-02
  51  13   3    7 N     1.62410000000E-01  2.25620000000E-01  2.21690000000E-01
  52  13   4    7 N     3.93000000000E-03 -5.92800000000E-02 -2.21690000000E-01

  53  14   1    9 F     9.26500000000E-02  3.74070000000E-01 -1.63920000000E-01
  54  14   2    9 F    -4.62010000000E-01  2.56570000000E-01  1.63920000000E-01
  55  14   3    9 F    -3.74070000000E-01  4.62010000000E-01 -2.81420000000E-01
  56  14   4    9 F    -2.56570000000E-01 -9.26500000000E-02  2.81420000000E-01

  57  15   1    9 F     3.13010000000E-01 -6.57200000000E-02  3.33330000000E-01
  58  15   2    9 F    -3.99050000000E-01 -2.03200000000E-02 -3.33330000000E-01
  59  15   3    9 F     6.57200000000E-02  3.99050000000E-01  3.78730000000E-01
  60  15   4    9 F     2.03200000000E-02 -3.13010000000E-01 -3.78730000000E-01

  61  16   1   30 ZN    2.50000000000E-01 -2.50000000000E-01 -5.00000000000E-01

  62  17   1   30 ZN   -5.00000000000E-01 -5.00000000000E-01  0.00000000000E+00

 NUMBER OF SYMMETRY OPERATORS         :    4
 *******************************************************************************
 * GEOMETRY EDITING - INPUT COORDINATES ARE GIVEN IN ANGSTROM         
 *******************************************************************************

 GEOMETRY NOW FULLY CONSISTENT WITH THE GROUP

 GCALCO - MAX INDICES DIRECT LATTICE VECTOR    14    14    16
 NO.OF VECTORS CREATED 6999 STARS  479 RMAX   199.25928 BOHR

 GEOMETRY FOR WAVE FUNCTION - DIMENSIONALITY OF THE SYSTEM    3
 (NON PERIODIC DIRECTION: LATTICE PARAMETER FORMALLY SET TO 500)
 *******************************************************************************
 LATTICE PARAMETERS (ANGSTROMS AND DEGREES) - BOHR = 0.5291772083 ANGSTROM
 PRIMITIVE CELL - CENTRING CODE 6/0 VOLUME=   699.234022 - DENSITY  2.033 g/cm^3
         A              B              C           ALPHA      BETA       GAMMA 
     9.96228941     9.96228941     9.96228941   119.990843 119.990843  90.015861
 *******************************************************************************
 ATOMS IN THE ASYMMETRIC UNIT   17 - ATOMS IN THE UNIT CELL:   62
     ATOM                 X/A                 Y/B                 Z/C    
 *******************************************************************************
      1 T   1 H    -1.503200000000E-01  4.565000000000E-01 -3.504400000000E-01
      2 F   1 H    -1.930600000000E-01  2.001200000000E-01  3.504400000000E-01
      3 F   1 H    -4.565000000000E-01  1.930600000000E-01  3.931800000000E-01
      4 F   1 H    -2.001200000000E-01  1.503200000000E-01 -3.931800000000E-01
      5 T   1 H    -1.670300000000E-01 -2.568300000000E-01 -1.919200000000E-01
      6 F   1 H    -6.491000000000E-02  2.489000000000E-02  1.919200000000E-01
      7 F   1 H     2.568300000000E-01  6.491000000000E-02  8.980000000000E-02
      8 F   1 H    -2.489000000000E-02  1.670300000000E-01 -8.980000000000E-02
      9 T   6 C     2.085700000000E-01 -3.485300000000E-01  9.450000000000E-02
     10 F   6 C    -4.430300000000E-01  1.140700000000E-01 -9.450000000000E-02
     11 F   6 C     3.485300000000E-01  4.430300000000E-01 -4.429000000000E-01
     12 F   6 C    -1.140700000000E-01 -2.085700000000E-01  4.429000000000E-01
     13 T   6 C     3.466500000000E-01 -3.722000000000E-01  2.225100000000E-01
     14 F   6 C     4.052900000000E-01  1.241400000000E-01 -2.225100000000E-01
     15 F   6 C     3.722000000000E-01 -4.052900000000E-01 -2.811500000000E-01
     16 F   6 C    -1.241400000000E-01 -3.466500000000E-01  2.811500000000E-01
     17 T   6 C     8.222000000000E-02 -4.739500000000E-01 -9.323000000000E-02
     18 F   6 C    -3.807200000000E-01  1.754500000000E-01  9.323000000000E-02
     19 F   6 C     4.739500000000E-01  3.807200000000E-01 -4.438300000000E-01
     20 F   6 C    -1.754500000000E-01 -8.222000000000E-02  4.438300000000E-01
     21 T   6 C    -6.167000000000E-02 -2.874800000000E-01 -1.171100000000E-01
     22 F   6 C    -1.703700000000E-01  5.544000000000E-02  1.171100000000E-01
     23 F   6 C     2.874800000000E-01  1.703700000000E-01  2.258100000000E-01
     24 F   6 C    -5.544000000000E-02  6.167000000000E-02 -2.258100000000E-01
     25 T   6 C     1.879600000000E-01 -1.940700000000E-01  1.583500000000E-01
     26 F   6 C    -3.524200000000E-01  2.961000000000E-02 -1.583500000000E-01
     27 F   6 C     1.940700000000E-01  3.524200000000E-01  3.820300000000E-01
     28 F   6 C    -2.961000000000E-02 -1.879600000000E-01 -3.820300000000E-01
     29 T   6 C    -2.421600000000E-01  1.505000000000E-01  2.035200000000E-01
     30 F   6 C    -5.302000000000E-02 -4.456800000000E-01 -2.035200000000E-01
     31 F   6 C    -1.505000000000E-01  5.302000000000E-02 -3.926600000000E-01
     32 F   6 C     4.456800000000E-01  2.421600000000E-01  3.926600000000E-01
     33 T   7 N     3.755100000000E-01 -3.387900000000E-01  3.856200000000E-01
     34 F   7 N     2.755900000000E-01 -1.011000000000E-02 -3.856200000000E-01
     35 F   7 N     3.387900000000E-01 -2.755900000000E-01 -2.857000000000E-01
     36 F   7 N     1.011000000000E-02 -3.755100000000E-01  2.857000000000E-01
     37 T   7 N    -4.800300000000E-01 -3.665000000000E-01  4.740300000000E-01
     38 F   7 N     1.594700000000E-01  4.594000000000E-02 -4.740300000000E-01
     39 F   7 N     3.665000000000E-01 -1.594700000000E-01 -1.135300000000E-01
     40 F   7 N    -4.594000000000E-02  4.800300000000E-01  1.135300000000E-01
     41 T   7 N     4.675400000000E-01 -4.209500000000E-01  2.069100000000E-01
     42 F   7 N     3.721400000000E-01  2.606300000000E-01 -2.069100000000E-01
     43 F   7 N     4.209500000000E-01 -3.721400000000E-01 -1.115100000000E-01
     44 F   7 N    -2.606300000000E-01 -4.675400000000E-01  1.115100000000E-01
     45 T   7 N    -4.245600000000E-01 -4.153300000000E-01  3.675900000000E-01
     46 F   7 N     2.170800000000E-01  2.078500000000E-01 -3.675900000000E-01
     47 F   7 N     4.153300000000E-01 -2.170800000000E-01 -9.230000000000E-03
     48 F   7 N    -2.078500000000E-01  4.245600000000E-01  9.230000000000E-03
     49 T   7 N     5.928000000000E-02 -1.624100000000E-01  6.321000000000E-02
     50 F   7 N    -2.256200000000E-01 -3.930000000000E-03 -6.321000000000E-02
     51 F   7 N     1.624100000000E-01  2.256200000000E-01  2.216900000000E-01
     52 F   7 N     3.930000000000E-03 -5.928000000000E-02 -2.216900000000E-01
     53 T   9 F     9.265000000000E-02  3.740700000000E-01 -1.639200000000E-01
     54 F   9 F    -4.620100000000E-01  2.565700000000E-01  1.639200000000E-01
     55 F   9 F    -3.740700000000E-01  4.620100000000E-01 -2.814200000000E-01
     56 F   9 F    -2.565700000000E-01 -9.265000000000E-02  2.814200000000E-01
     57 T   9 F     3.130100000000E-01 -6.572000000000E-02  3.333300000000E-01
     58 F   9 F    -3.990500000000E-01 -2.032000000000E-02 -3.333300000000E-01
     59 F   9 F     6.572000000000E-02  3.990500000000E-01  3.787300000000E-01
     60 F   9 F     2.032000000000E-02 -3.130100000000E-01 -3.787300000000E-01
     61 T  30 ZN    2.500000000000E-01 -2.500000000000E-01 -5.000000000000E-01
     62 T  30 ZN   -5.000000000000E-01 -5.000000000000E-01  0.000000000000E+00

 TRANSFORMATION MATRIX PRIMITIVE-CRYSTALLOGRAPHIC CELL
  0.0000  1.0000  1.0000  1.0000  0.0000  1.0000  1.0000  1.0000  0.0000

 *******************************************************************************
 CRYSTALLOGRAPHIC CELL (VOLUME=       1398.46804390)
         A              B              C           ALPHA      BETA       GAMMA 
     9.96366823     9.96366823    14.08685457    90.000000  90.000000  90.000000

 COORDINATES IN THE CRYSTALLOGRAPHIC CELL
     ATOM                 X/A                 Y/B                 Z/C    
 *******************************************************************************
      1 T   1 H    -3.718100000000E-01  2.137000000000E-02 -1.716900000000E-01
      2 F   1 H     3.718100000000E-01 -2.137000000000E-02 -1.716900000000E-01
      3 F   1 H     2.137000000000E-02  3.718100000000E-01  1.716900000000E-01
      4 F   1 H    -2.137000000000E-02 -3.718100000000E-01  1.716900000000E-01
      5 T   1 H    -1.408600000000E-01 -5.106000000000E-02 -1.159700000000E-01
      6 F   1 H     1.408600000000E-01  5.106000000000E-02 -1.159700000000E-01
      7 F   1 H    -5.106000000000E-02  1.408600000000E-01  1.159700000000E-01
      8 F   1 H     5.106000000000E-02 -1.408600000000E-01  1.159700000000E-01
      9 T   6 C    -2.313000000000E-01  3.258000000000E-01 -1.172300000000E-01
     10 F   6 C     2.313000000000E-01 -3.258000000000E-01 -1.172300000000E-01
     11 F   6 C     3.258000000000E-01  2.313000000000E-01  1.172300000000E-01
     12 F   6 C    -3.258000000000E-01 -2.313000000000E-01  1.172300000000E-01
     13 T   6 C    -2.481700000000E-01  4.706800000000E-01 -1.240300000000E-01
     14 F   6 C     2.481700000000E-01 -4.706800000000E-01 -1.240300000000E-01
     15 F   6 C     4.706800000000E-01  2.481700000000E-01  1.240300000000E-01
     16 F   6 C    -4.706800000000E-01 -2.481700000000E-01  1.240300000000E-01
     17 T   6 C    -3.247000000000E-01  2.314700000000E-01 -1.492500000000E-01
     18 F   6 C     3.247000000000E-01 -2.314700000000E-01 -1.492500000000E-01
     19 F   6 C     2.314700000000E-01  3.247000000000E-01  1.492500000000E-01
     20 F   6 C    -2.314700000000E-01 -3.247000000000E-01  1.492500000000E-01
     21 T   6 C    -1.714600000000E-01  5.435000000000E-02 -1.160200000000E-01
     22 F   6 C     1.714600000000E-01 -5.435000000000E-02 -1.160200000000E-01
     23 F   6 C     5.435000000000E-02  1.714600000000E-01  1.160200000000E-01
     24 F   6 C    -5.435000000000E-02 -1.714600000000E-01  1.160200000000E-01
     25 T   6 C    -1.118400000000E-01  2.701900000000E-01 -8.223000000000E-02
     26 F   6 C     1.118400000000E-01 -2.701900000000E-01 -8.223000000000E-02
     27 F   6 C     2.701900000000E-01  1.118400000000E-01  8.223000000000E-02
     28 F   6 C    -2.701900000000E-01 -1.118400000000E-01  8.223000000000E-02
     29 T   6 C     2.980900000000E-01 -9.457000000000E-02 -1.475900000000E-01
     30 F   6 C    -2.980900000000E-01  9.457000000000E-02 -1.475900000000E-01
     31 F   6 C    -9.457000000000E-02 -2.980900000000E-01  1.475900000000E-01
     32 F   6 C     9.457000000000E-02  2.980900000000E-01  1.475900000000E-01
     33 T   7 N    -1.643400000000E-01 -4.500400000000E-01 -1.744500000000E-01
     34 F   7 N     1.643400000000E-01  4.500400000000E-01 -1.744500000000E-01
     35 F   7 N    -4.500400000000E-01  1.643400000000E-01  1.744500000000E-01
     36 F   7 N     4.500400000000E-01 -1.643400000000E-01  1.744500000000E-01
     37 T   7 N    -2.062200000000E-01 -3.197500000000E-01 -1.602800000000E-01
     38 F   7 N     2.062200000000E-01  3.197500000000E-01 -1.602800000000E-01
     39 F   7 N    -3.197500000000E-01  2.062200000000E-01  1.602800000000E-01
     40 F   7 N     3.197500000000E-01 -2.062200000000E-01  1.602800000000E-01
     41 T   7 N    -3.407900000000E-01 -4.523000000000E-01 -8.016000000000E-02
     42 F   7 N     3.407900000000E-01  4.523000000000E-01 -8.016000000000E-02
     43 F   7 N    -4.523000000000E-01  3.407900000000E-01  8.016000000000E-02
     44 F   7 N     4.523000000000E-01 -3.407900000000E-01  8.016000000000E-02
     45 T   7 N    -3.115900000000E-01 -3.208200000000E-01 -1.037400000000E-01
     46 F   7 N     3.115900000000E-01  3.208200000000E-01 -1.037400000000E-01
     47 F   7 N    -3.208200000000E-01  3.115900000000E-01  1.037400000000E-01
     48 F   7 N     3.208200000000E-01 -3.115900000000E-01  1.037400000000E-01
     49 T   7 N    -7.924000000000E-02  1.424500000000E-01 -8.317000000000E-02
     50 F   7 N     7.924000000000E-02 -1.424500000000E-01 -8.317000000000E-02
     51 F   7 N     1.424500000000E-01  7.924000000000E-02  8.317000000000E-02
     52 F   7 N    -1.424500000000E-01 -7.924000000000E-02  8.317000000000E-02
     53 T   9 F     5.875000000000E-02 -2.226700000000E-01  3.153200000000E-01
     54 F   9 F    -5.875000000000E-02  2.226700000000E-01  3.153200000000E-01
     55 F   9 F    -2.226700000000E-01 -5.875000000000E-02 -3.153200000000E-01
     56 F   9 F     2.226700000000E-01  5.875000000000E-02 -3.153200000000E-01
     57 T   9 F    -2.270000000000E-02  3.560300000000E-01 -4.302000000000E-02
     58 F   9 F     2.270000000000E-02 -3.560300000000E-01 -4.302000000000E-02
     59 F   9 F     3.560300000000E-01  2.270000000000E-02  4.302000000000E-02
     60 F   9 F    -3.560300000000E-01 -2.270000000000E-02  4.302000000000E-02
     61 T  30 ZN   -5.000000000000E-01 -9.434352204757E-17  2.500000000000E-01
     62 T  30 ZN    0.000000000000E+00  0.000000000000E+00 -5.000000000000E-01

 T = ATOM BELONGING TO THE ASYMMETRIC UNIT

 ****    4 SYMMOPS - TRANSLATORS IN FRACTIONAL UNITS
 **** MATRICES AND TRANSLATORS IN THE CRYSTALLOGRAPHIC REFERENCE FRAME
   V INV                    ROTATION MATRICES                   TRANSLATORS
   1   1  1.00  0.00  0.00  0.00  1.00  0.00  0.00  0.00  1.00  0.00  0.00  0.00
   2   2 -0.00  1.00 -1.00  1.00  0.00 -1.00  0.00  0.00 -1.00  0.00  0.00  0.00
   3   4  0.00 -1.00 -0.00 -0.00 -1.00  1.00  1.00 -1.00  0.00  0.00  0.00  0.00
   4   3 -1.00  0.00  1.00 -1.00 -0.00  0.00 -1.00  1.00  0.00  0.00  0.00  0.00

 DIRECT LATTICE VECTORS CARTESIAN COMPONENTS (ANGSTROM)
          X                    Y                    Z
  -0.498183411440E+01   0.498183411440E+01   0.704342728415E+01
   0.498183411440E+01  -0.498183411440E+01   0.704342728415E+01
   0.498183411440E+01   0.498183411440E+01  -0.704342728415E+01


 CARTESIAN COORDINATES - PRIMITIVE CELL
 *******************************************************************************
 *      ATOM          X(ANGSTROM)         Y(ANGSTROM)         Z(ANGSTROM)
 *******************************************************************************
    1     1 H    -3.704591484150E+00  2.129235900495E-01 -2.418572060831E+00
    2     1 H     3.704591484150E+00 -2.129235900495E-01 -2.418572060831E+00
    3     1 H     2.129235900495E-01  3.704591484150E+00  2.418572060831E+00
    4     1 H    -2.129235900495E-01 -3.704591484150E+00  2.418572060831E+00
    5     1 H    -1.403482306709E+00 -5.087448997625E-01 -1.633652524286E+00
    6     1 H     1.403482306709E+00  5.087448997625E-01 -1.633652524286E+00
    7     1 H    -5.087448997625E-01  1.403482306709E+00  1.633652524286E+00
    8     1 H     5.087448997625E-01 -1.403482306709E+00  1.633652524286E+00
    9     6 C    -2.304596461321E+00  3.246163108943E+00 -1.651401961042E+00
   10     6 C     2.304596461321E+00 -3.246163108943E+00 -1.651401961042E+00
   11     6 C     3.246163108943E+00  2.304596461321E+00  1.651401961042E+00
   12     6 C    -3.246163108943E+00 -2.304596461321E+00  1.651401961042E+00
   13     6 C    -2.472683544341E+00  4.689699361932E+00 -1.747192572106E+00
   14     6 C     2.472683544341E+00 -4.689699361932E+00 -1.747192572106E+00
   15     6 C     4.689699361932E+00  2.472683544341E+00  1.747192572106E+00
   16     6 C    -4.689699361932E+00 -2.472683544341E+00  1.747192572106E+00
   17     6 C    -3.235203073891E+00  2.306290284920E+00 -2.102463044319E+00
   18     6 C     3.235203073891E+00 -2.306290284920E+00 -2.102463044319E+00
   19     6 C     2.306290284920E+00  3.235203073891E+00  2.102463044319E+00
   20     6 C    -2.306290284920E+00 -3.235203073891E+00  2.102463044319E+00
   21     6 C    -1.708370554510E+00  5.415253682353E-01 -1.634356867014E+00
   22     6 C     1.708370554510E+00 -5.415253682353E-01 -1.634356867014E+00
   23     6 C     5.415253682353E-01  1.708370554510E+00  1.634356867014E+00
   24     6 C    -5.415253682353E-01 -1.708370554510E+00  1.634356867014E+00
   25     6 C    -1.114336654709E+00  2.692083518739E+00 -1.158362051151E+00
   26     6 C     1.114336654709E+00 -2.692083518739E+00 -1.158362051151E+00
   27     6 C     2.692083518739E+00  1.114336654709E+00  1.158362051151E+00
   28     6 C    -2.692083518739E+00 -1.114336654709E+00  1.158362051151E+00
   29     6 C     2.970069862323E+00 -9.422641043976E-01 -2.079078865735E+00
   30     6 C    -2.970069862323E+00  9.422641043976E-01 -2.079078865735E+00
   31     6 C    -9.422641043976E-01 -2.970069862323E+00  2.079078865735E+00
   32     6 C     9.422641043976E-01  2.970069862323E+00  2.079078865735E+00
   33     7 N    -1.637429236721E+00 -4.484049249689E+00 -2.457451779440E+00
   34     7 N     1.637429236721E+00  4.484049249689E+00 -2.457451779440E+00
   35     7 N    -4.484049249689E+00  1.637429236721E+00  2.457451779440E+00
   36     7 N     4.484049249689E+00 -1.637429236721E+00  2.457451779440E+00
   37     7 N    -2.054707662143E+00 -3.185882916159E+00 -2.257841050207E+00
   38     7 N     2.054707662143E+00  3.185882916159E+00 -2.257841050207E+00
   39     7 N    -3.185882916159E+00  2.054707662143E+00  2.257841050207E+00
   40     7 N     3.185882916159E+00 -2.054707662143E+00  2.257841050207E+00
   41     7 N    -3.395518495693E+00 -4.506567139886E+00 -1.129202262195E+00
   42     7 N     3.395518495693E+00  4.506567139886E+00 -1.129202262195E+00
   43     7 N    -4.506567139886E+00  3.395518495693E+00  1.129202262195E+00
   44     7 N     4.506567139886E+00 -3.395518495693E+00  1.129202262195E+00
   45     7 N    -3.104579383412E+00 -3.196544041164E+00 -1.461370292915E+00
   46     7 N     3.104579383412E+00  3.196544041164E+00 -1.461370292915E+00
   47     7 N    -3.196544041164E+00  3.104579383412E+00  1.461370292915E+00
   48     7 N     3.196544041164E+00 -3.104579383412E+00  1.461370292915E+00
   49     7 N    -7.895210704501E-01  1.419324539193E+00 -1.171603694446E+00
   50     7 N     7.895210704501E-01 -1.419324539193E+00 -1.171603694446E+00
   51     7 N     1.419324539193E+00  7.895210704501E-01  1.171603694446E+00
   52     7 N    -1.419324539193E+00 -7.895210704501E-01  1.171603694446E+00
   53     9 F     5.853655084420E-01 -2.218610004507E+00  4.441866982476E+00
   54     9 F    -5.853655084420E-01  2.218610004507E+00  4.441866982476E+00
   55     9 F    -2.218610004507E+00 -5.853655084420E-01 -4.441866982476E+00
   56     9 F     2.218610004507E+00  5.853655084420E-01 -4.441866982476E+00
   57     9 F    -2.261752687938E-01  3.547364799500E+00 -6.060164835283E-01
   58     9 F     2.261752687938E-01 -3.547364799500E+00 -6.060164835283E-01
   59     9 F     3.547364799500E+00  2.261752687938E-01  6.060164835283E-01
   60     9 F    -3.547364799500E+00 -2.261752687938E-01  6.060164835283E-01
   61    30 ZN    4.981834114400E+00 -9.400075532184E-16 -1.056514092623E+01
   62    30 ZN    0.000000000000E+00  0.000000000000E+00  7.043427284150E+00

 *******************************************************************************
 STARTING BASIS SET HANDLING 
 *******************************************************************************

 Loading internal basis set: POB-DZVPP           

 Please cite in your publication:
 Peintinger, M. F., Oliveira, D. V. and Bredow, T. (2013), Generally applicable 
 solid-state Gaussian basis sets, in preparation                                
                                                                                
                    

 *******************************************************************************
 LOCAL ATOMIC FUNCTIONS BASIS SET
 *******************************************************************************
   ATOM   X(AU)   Y(AU)   Z(AU)  N. TYPE  EXPONENT  S COEF   P COEF   D/F/G COEF
 *******************************************************************************
   1 H   -7.001   0.402  -4.570
                                  1 S  
                                         2.263E+01 1.441E-02 0.000E+00 0.000E+00
                                         3.236E+00 1.072E-01 0.000E+00 0.000E+00
                                         7.304E-01 3.846E-01 0.000E+00 0.000E+00
                                  2 S  
                                         1.417E-01 1.000E+00 0.000E+00 0.000E+00
                           3-     5 P  
                                         3.944E-01 0.000E+00 1.000E+00 0.000E+00
                           6-     8 P  
                                         1.006E-01 0.000E+00 1.000E+00 0.000E+00
   2 H    7.001  -0.402  -4.570
   3 H    0.402   7.001   4.570
   4 H   -0.402  -7.001   4.570
   5 H   -2.652  -0.961  -3.087
   6 H    2.652   0.961  -3.087
   7 H   -0.961   2.652   3.087
   8 H    0.961  -2.652   3.087
   9 C   -4.355   6.134  -3.121
                                 65 S  
                                         1.238E+03 5.457E-03 0.000E+00 0.000E+00
                                         1.863E+02 4.064E-02 0.000E+00 0.000E+00
                                         4.225E+01 1.803E-01 0.000E+00 0.000E+00
                                         1.168E+01 4.632E-01 0.000E+00 0.000E+00
                                         3.593E+00 4.409E-01 0.000E+00 0.000E+00
                                 66 S  
                                         5.281E+00 1.000E+00 0.000E+00 0.000E+00
                                 67 S  
                                         4.447E-01 1.000E+00 0.000E+00 0.000E+00
                          68-    70 P  
                                         9.468E+00 0.000E+00 3.839E-02 0.000E+00
                                         2.010E+00 0.000E+00 2.112E-01 0.000E+00
                                         5.477E-01 0.000E+00 5.133E-01 0.000E+00
                          71-    73 P  
                                         1.604E-01 0.000E+00 1.000E+00 0.000E+00
                          74-    78 D  
                                         6.070E-01 0.000E+00 0.000E+00 1.000E+00
                          79-    83 D  
                                         2.939E-01 0.000E+00 0.000E+00 1.000E+00
  10 C    4.355  -6.134  -3.121
  11 C    6.134   4.355   3.121
  12 C   -6.134  -4.355   3.121
  13 C   -4.673   8.862  -3.302
  14 C    4.673  -8.862  -3.302
  15 C    8.862   4.673   3.302
  16 C   -8.862  -4.673   3.302
  17 C   -6.114   4.358  -3.973
  18 C    6.114  -4.358  -3.973
  19 C    4.358   6.114   3.973
  20 C   -4.358  -6.114   3.973
  21 C   -3.228   1.023  -3.088
  22 C    3.228  -1.023  -3.088
  23 C    1.023   3.228   3.088
  24 C   -1.023  -3.228   3.088
  25 C   -2.106   5.087  -2.189
  26 C    2.106  -5.087  -2.189
  27 C    5.087   2.106   2.189
  28 C   -5.087  -2.106   2.189
  29 C    5.613  -1.781  -3.929
  30 C   -5.613   1.781  -3.929
  31 C   -1.781  -5.613   3.929
  32 C    1.781   5.613   3.929
  33 N   -3.094  -8.474  -4.644
                                521 S  
                                         1.713E+03-5.393E-03 0.000E+00 0.000E+00
                                         2.576E+02-4.022E-02 0.000E+00 0.000E+00
                                         5.846E+01-1.793E-01 0.000E+00 0.000E+00
                                         1.620E+01-4.638E-01 0.000E+00 0.000E+00
                                         5.005E+00-4.417E-01 0.000E+00 0.000E+00
                                522 S  
                                         6.217E-01 1.000E+00 0.000E+00 0.000E+00
                                523 S  
                                         2.921E-01 1.000E+00 0.000E+00 0.000E+00
                         524-   526 P  
                                         1.357E+01 0.000E+00-4.007E-02 0.000E+00
                                         2.926E+00 0.000E+00-2.181E-01 0.000E+00
                                         7.993E-01 0.000E+00-5.129E-01 0.000E+00
                         527-   529 P  
                                         2.244E-01 0.000E+00 1.000E+00 0.000E+00
                         530-   534 D  
                                         3.118E-01 0.000E+00 0.000E+00 1.000E+00
  34 N    3.094   8.474  -4.644
  35 N   -8.474   3.094   4.644
  36 N    8.474  -3.094   4.644
  37 N   -3.883  -6.020  -4.267
  38 N    3.883   6.020  -4.267
  39 N   -6.020   3.883   4.267
  40 N    6.020  -3.883   4.267
  41 N   -6.417  -8.516  -2.134
  42 N    6.417   8.516  -2.134
  43 N   -8.516   6.417   2.134
  44 N    8.516  -6.417   2.134
  45 N   -5.867  -6.041  -2.762
  46 N    5.867   6.041  -2.762
  47 N   -6.041   5.867   2.762
  48 N    6.041  -5.867   2.762
  49 N   -1.492   2.682  -2.214
  50 N    1.492  -2.682  -2.214
  51 N    2.682   1.492   2.214
  52 N   -2.682  -1.492   2.214
  53 F    1.106  -4.193   8.394
                                801 S  
                                         2.895E+03-5.341E-03 0.000E+00 0.000E+00
                                         4.354E+02-3.990E-02 0.000E+00 0.000E+00
                                         9.884E+01-1.791E-01 0.000E+00 0.000E+00
                                         2.749E+01-4.676E-01 0.000E+00 0.000E+00
                                         8.541E+00-4.465E-01 0.000E+00 0.000E+00
                                802 S  
                                         1.123E+00 1.000E+00 0.000E+00 0.000E+00
                                803 S  
                                         3.743E-01 1.000E+00 0.000E+00 0.000E+00
                         804-   806 P  
                                         2.270E+01 0.000E+00-4.521E-02 0.000E+00
                                         4.987E+00 0.000E+00-2.375E-01 0.000E+00
                                         1.349E+00 0.000E+00-5.129E-01 0.000E+00
                         807-   809 P  
                                         3.474E-01 0.000E+00 1.000E+00 0.000E+00
                         810-   814 D  
                                         9.203E-01 0.000E+00 0.000E+00 1.000E+00
                         815-   819 D  
                                         3.977E-01 0.000E+00 0.000E+00 1.000E+00
  54 F   -1.106   4.193   8.394
  55 F   -4.193  -1.106  -8.394
  56 F    4.193   1.106  -8.394
  57 F   -0.427   6.704  -1.145
  58 F    0.427  -6.704  -1.145
  59 F    6.704   0.427   1.145
  60 F   -6.704  -0.427   1.145
  61 ZN   9.414  -0.000 -19.965
                                953 S  
                                         8.200E+04 1.421E-03 0.000E+00 0.000E+00
                                         1.231E+04 1.089E-02 0.000E+00 0.000E+00
                                         2.801E+03 5.406E-02 0.000E+00 0.000E+00
                                         7.910E+02 1.885E-01 0.000E+00 0.000E+00
                                         2.576E+02 3.835E-01 0.000E+00 0.000E+00
                                         8.881E+01 2.972E-01 0.000E+00 0.000E+00
                                954 S  
                                         1.719E+02-1.105E-01 0.000E+00 0.000E+00
                                         2.030E+01 6.461E-01 0.000E+00 0.000E+00
                                         8.346E+00 4.422E-01 0.000E+00 0.000E+00
                                955 S  
                                         1.485E+01-2.271E-01 0.000E+00 0.000E+00
                                         2.450E+00 7.243E-01 0.000E+00 0.000E+00
                                         9.985E-01 4.484E-01 0.000E+00 0.000E+00
                                956 S  
                                         1.493E+00 1.000E+00 0.000E+00 0.000E+00
                                957 S  
                                         1.830E-01 1.000E+00 0.000E+00 0.000E+00
                         958-   960 P  
                                         1.072E+03 0.000E+00 9.277E-03 0.000E+00
                                         2.527E+02 0.000E+00 6.954E-02 0.000E+00
                                         8.010E+01 0.000E+00 2.716E-01 0.000E+00
                                         2.890E+01 0.000E+00 5.340E-01 0.000E+00
                                         1.077E+01 0.000E+00 3.450E-01 0.000E+00
                         961-   963 P  
                                         5.645E+00 0.000E+00 3.413E-01 0.000E+00
                                         2.168E+00 0.000E+00 5.639E-01 0.000E+00
                                         8.054E-01 0.000E+00 2.368E-01 0.000E+00
                         964-   966 P  
                                         2.721E-01 0.000E+00 1.000E+00 0.000E+00
                         967-   971 D  
                                         5.609E+01 0.000E+00 0.000E+00 2.959E-02
                                         1.575E+01 0.000E+00 0.000E+00 1.587E-01
                                         5.312E+00 0.000E+00 0.000E+00 3.798E-01
                                         1.774E+00 0.000E+00 0.000E+00 4.690E-01
                         972-   976 D  
                                         5.073E-01 0.000E+00 0.000E+00 1.000E+00
                         977-   983 F  
                                         2.814E+00 0.000E+00 0.000E+00 1.000E+00
                         984-   990 F  
                                         1.300E+00 0.000E+00 0.000E+00 1.000E+00
  62 ZN   0.000   0.000  13.310

 *******************************************************************************
 FINISHED BASIS SET HANDLING 
 *******************************************************************************

 INFORMATION **** SET_MPP **** PCRYSTAL CALCULATION
 INFORMATION **** READM2 **** NEW DEFAULT: FOCK/KS MATRIX MIXING SET TO 30 %
 INFORMATION **** READM2 **** NEW DEFAULT: FULL DIRECT SCF MODE
 INFORMATION **** READM2 **** NEW DEFAULT: COULOMB BIPOLAR BUFFER SET TO 32 Mb
 INFORMATION **** READM2 **** NEW DEFAULT: EXCHANGE BIPOLAR BUFFER SET TO 32 Mb

 *******************************************************************************
 NEW DEFAULT: DFT INTEGRATION GRID INCREASED TO XLGRID
 NEW DEFAULT: DIIS ACCELERATOR ACTIVE
 USE KEYWORD NODIIS TO TURN IT OFF
 *******************************************************************************

 INFORMATION **** DFTD3_INPUT **** PERFORM DISPERSION CORRECTION DFT-D3(BJ) IN THE BECKE-JOHNSON DAMPING SCHEME

 PLEASE CITE:
 (1) DFT-D3 Reference
  S. Grimme, J. Antony, S. Ehrlich, and H. Krieg, J. Chem. Phys. 132 (2010), 154104
 (2) BJ-Damping Reference
  S. Grimme, S. Ehrlich, and L. Goerigk, J. Comput. Chem. 32 (2011), 1456-1465
 (3) General DFT-D Review
  S. Grimme, A. Hansen, J. G. Brandenburg, and C. Bannwarth,
  Chem. Rev. 116 (2016), 5105-5154

 INFORMATION **** TOLINTEG **** COULOMB AND EXCHANGE SERIES TOLERANCES MODIFIED
 INFORMATION **** BIPOSIZE **** COULOMB BIPOLAR BUFFER SET TO   100000000
 INFORMATION **** MAXCYCLE **** MAX NUMBER OF SCF CYCLES SET TO          50
 *******************************************************************************
 N. OF ATOMS PER CELL        62  COULOMB OVERLAP TOL         (T1) 10**  -12
 NUMBER OF SHELLS           400  COULOMB PENETRATION TOL     (T2) 10**  -12
 NUMBER OF AO              1028  EXCHANGE OVERLAP TOL        (T3) 10**   20
 N. OF ELECTRONS PER CELL   424  EXCHANGE PSEUDO OVP (F(G))  (T4) 10**   20
 CORE ELECTRONS PER CELL    140  EXCHANGE PSEUDO OVP (P(G))  (T5) 10**   20
 N. OF SYMMETRY OPERATORS     4  POLE ORDER IN MONO ZONE                  4
 *******************************************************************************
 TYPE OF CALCULATION :  RESTRICTED CLOSED SHELL
 KOHN-SHAM HAMILTONIAN

 (EXCHANGE)[CORRELATION] FUNCTIONAL:(PERDEW-BURKE-ERNZERHOF)[PERDEW-BURKE-ERNZERHOF]


 CAPPA:IS1  3;IS2  3;IS3  3; K PTS MONK NET   6; SYMMOPS:K SPACE   8;G SPACE   4

 *******************************************************************************
 MAX NUMBER OF SCF CYCLES      50  CONVERGENCE ON DELTAP        10**-16
 WEIGHT OF F(I) IN F(I+1)      30% CONVERGENCE ON ENERGY        10**- 6
 SHRINK. FACT.(MONKH.)    3  3  3  NUMBER OF K POINTS IN THE IBZ      6
 SHRINKING FACTOR(GILAT NET)    3  NUMBER OF K POINTS(GILAT NET)      6
 *******************************************************************************
 *** K POINTS COORDINATES (OBLIQUE COORDINATES IN UNITS OF IS =  3)
   1-R(  0  0  0)   2-C(  1  0  0)   3-C(  1  1  0)   4-C(  2  1  0)
   5-C(  2  1  1)   6-C(  2  2  1)

 DIRECT LATTICE VECTORS COMPON. (A.U.)     RECIP. LATTICE VECTORS COMPON. (A.U.) 
        X            Y            Z              X            Y            Z
   -9.4143021    9.4143021   13.3101486      0.0000000    0.3337043    0.2360299
    9.4143021   -9.4143021   13.3101486      0.3337043    0.0000000    0.2360299
    9.4143021    9.4143021  -13.3101486      0.3337043    0.3337043    0.0000000

 DISK SPACE FOR EIGENVECTORS (FTN 10)    11624624 REALS

 SYMMETRY ADAPTION OF THE BLOCH FUNCTIONS ENABLED
 TTTTTTTTTTTTTTTTTTTTTTTTTTTTTT gordsh1     TELAPSE        5.81 TCPU        0.08

 MATRIX SIZE: P(G) 1814164, F(G)  907788, P(G) IRR  229413, F(G) IRR  229413
 MAX G-VECTOR INDEX FOR 1- AND 2-ELECTRON INTEGRALS  63

 TTTTTTTTTTTTTTTTTTTTTTTTTTTTTT INPUT       TELAPSE        5.87 TCPU        0.13

 NEIGHBORS OF THE NON-EQUIVALENT ATOMS

 N = NUMBER OF NEIGHBORS AT DISTANCE R
    ATOM  N     R/ANG      R/AU   NEIGHBORS (ATOM LABELS AND CELL INDICES)
   1 H    1     1.0894     2.0586   30 C    0 0 0
   1 H    1     2.1685     4.0979   17 C    0 0 0
   1 H    1     2.1698     4.1003   21 C    0 0 0
   1 H    1     2.5361     4.7926    5 H    0 0 0
   1 H    1     2.5897     4.8939    2 H    0-1-1
   1 H    1     2.6342     4.9780   55 F    0 0 0

   5 H    1     1.0936     2.0667   21 C    0 0 0
   5 H    1     2.0755     3.9222   49 N    0 0 0
   5 H    1     2.1813     4.1220   30 C    0 0 0
   5 H    1     2.4191     4.5714   50 N    0 0 0
   5 H    1     2.5361     4.7926    1 H    0 0 0
   5 H    1     2.8193     5.3277   52 N    0 0 0

   9 C    1     1.3974     2.6408   17 C    0 0 0
   9 C    1     1.4024     2.6502   25 C    0 0 0
   9 C    1     1.4564     2.7523   13 C    0 0 0
   9 C    1     2.3459     4.4332   57 F    0 0 0
   9 C    1     2.3478     4.4366   53 F    0-1 0
   9 C    1     2.4214     4.5757   49 N    0 0 0

  13 C    1     1.3500     2.5511   41 N    1 0 1
  13 C    1     1.3513     2.5536   33 N    1 0 1
  13 C    1     1.4564     2.7523    9 C    0 0 0
  13 C    1     2.1899     4.1383   37 N    1 0 1
  13 C    1     2.1901     4.1388   45 N    1 0 1
  13 C    1     2.4864     4.6987   25 C    0 0 0

  17 C    1     1.3440     2.5399   53 F    0-1 0
  17 C    1     1.3898     2.6263   30 C    0 0 0
  17 C    1     1.3974     2.6408    9 C    0 0 0
  17 C    1     2.1685     4.0979    1 H    0 0 0
  17 C    1     2.3533     4.4472   25 C    0 0 0
  17 C    1     2.3801     4.4977   21 C    0 0 0

  21 C    1     1.0936     2.0667    5 H    0 0 0
  21 C    1     1.3524     2.5556   49 N    0 0 0
  21 C    1     1.3965     2.6390   30 C    0 0 0
  21 C    1     2.1698     4.1003    1 H    0 0 0
  21 C    1     2.2813     4.3110   25 C    0 0 0
  21 C    1     2.3801     4.4977   17 C    0 0 0

  25 C    1     1.3136     2.4824   49 N    0 0 0
  25 C    1     1.3511     2.5532   57 F    0 0 0
  25 C    1     1.4024     2.6502    9 C    0 0 0
  25 C    1     2.2813     4.3110   21 C    0 0 0
  25 C    1     2.3533     4.4472   17 C    0 0 0
  25 C    1     2.4864     4.6987   13 C    0 0 0

  29 C    1     1.0894     2.0586    2 H    0 0 0
  29 C    1     1.3898     2.6263   18 C    0 0 0
  29 C    1     1.3965     2.6390   22 C    0 0 0
  29 C    1     2.1813     4.1220    6 H    0 0 0
  29 C    1     2.3714     4.4813   54 F   -1 0 0
  29 C    1     2.4095     4.5534   50 N    0 0 0

  33 N    1     1.3513     2.5536   13 C   -1 0-1
  33 N    1     1.3781     2.6043   37 N    0 0 0
  33 N    1     2.0153     3.8085   61 ZN   0 0-1
  33 N    1     2.1914     4.1412   45 N    0 0 0
  33 N    1     2.2035     4.1641   41 N    0 0 0
  33 N    1     2.4664     4.6608    9 C   -1 0-1

  37 N    1     1.3178     2.4904   45 N    0 0 0
  37 N    1     1.3781     2.6043   33 N    0 0 0
  37 N    1     2.1899     4.1383   13 C   -1 0-1
  37 N    1     2.1945     4.1470   41 N    0 0 0
  37 N    1     2.8250     5.3385    5 H    0 0 0
  37 N    1     2.8393     5.3655   58 F    0 0 0

  41 N    1     1.3500     2.5511   13 C   -1 0-1
  41 N    1     1.3824     2.6124   45 N    0 0 0
  41 N    1     2.0043     3.7877   62 ZN  -1-1-1
  41 N    1     2.1945     4.1470   37 N    0 0 0
  41 N    1     2.2035     4.1641   33 N    0 0 0
  41 N    1     2.5201     4.7624    9 C   -1 0-1

  45 N    1     1.3178     2.4904   37 N    0 0 0
  45 N    1     1.3824     2.6124   41 N    0 0 0
  45 N    1     2.1901     4.1388   13 C   -1 0-1
  45 N    1     2.1914     4.1412   33 N    0 0 0
  45 N    1     2.7481     5.1932   54 F   -1-1-1
  45 N    1     2.9744     5.6208   62 ZN  -1-1-1

  49 N    1     1.3136     2.4824   25 C    0 0 0
  49 N    1     1.3524     2.5556   21 C    0 0 0
  49 N    1     2.0755     3.9222    5 H    0 0 0
  49 N    1     2.2728     4.2950   57 F    0 0 0
  49 N    1     2.4095     4.5534   30 C    0 0 0
  49 N    1     2.4191     4.5714    6 H    0 0 0

  53 F    1     1.3440     2.5399   17 C    0 1 0
  53 F    1     2.3478     4.4366    9 C    0 1 0
  53 F    1     2.3714     4.4813   30 C    0 1 0
  53 F    1     2.6342     4.9780    4 H    0 0 0
  53 F    1     2.6488     5.0055    1 H    0 1 0
  53 F    1     2.7481     5.1932   46 N    0 0-1

  57 F    1     1.3511     2.5532   25 C    0 0 0
  57 F    1     2.2728     4.2950   49 N    0 0 0
  57 F    1     2.3459     4.4332    9 C    0 0 0
  57 F    1     2.7666     5.2281   13 C    0 0 0
  57 F    1     2.7889     5.2703   34 N    0 0 0
  57 F    1     2.8393     5.3655   38 N    0 0 0

  61 ZN   4     2.0153     3.8085   33 N    0 0 1   34 N   -1 0 0   35 N   -1 0 1
                                    36 N   -1-1 0
  61 ZN   4     3.0074     5.6832   37 N    0 0 1   38 N   -1 0 0   39 N   -1 0 1
                                    40 N   -1-1 0
  61 ZN   4     3.0575     5.7779   13 C   -1 0 0   14 C    0 0 1   15 C   -1-1 0
                                    16 C   -1 0 1
  61 ZN   4     3.2573     6.1554   57 F   -1 0 0   58 F    0 0 1   59 F   -1-1 0
                                    60 F   -1 0 1
  61 ZN   4     3.4383     6.4974    9 C   -1 0 0   10 C    0 0 1   11 C   -1-1 0
                                    12 C   -1 0 1
  61 ZN   4     3.4742     6.5653   25 C   -1 0 0   26 C    0 0 1   27 C   -1-1 0
                                    28 C   -1 0 1

  62 ZN   4     2.0043     3.7877   41 N    1 1 1   42 N    0 0-1   43 N    0 1 0
                                    44 N    1 0 0
  62 ZN   4     2.9744     5.6208   45 N    1 1 1   46 N    0 0-1   47 N    0 1 0
                                    48 N    1 0 0
  62 ZN   4     3.0715     5.8042   13 C    0 1 0   14 C    1 0 0   15 C    0 0-1
                                    16 C    1 1 1
  62 ZN   4     3.4689     6.5552   53 F    0 0 0   54 F    0 0 0   55 F    1 1 0
                                    56 F    1 1 0
  62 ZN   4     3.5927     6.7892    9 C    0 1 0   10 C    1 0 0   11 C    0 0-1
                                    12 C    1 1 1
  62 ZN   4     3.8249     7.2280   17 C    0 1 0   18 C    1 0 0   19 C    0 0-1
                                    20 C    1 1 1


 SYMMETRY ALLOWED INTERNAL DEGREE(S) OF FREEDOM:  45
 TTTTTTTTTTTTTTTTTTTTTTTTTTTTTT SYMM        TELAPSE        5.90 TCPU        0.16
 TTTTTTTTTTTTTTTTTTTTTTTTTTTTTT INT_SCREEN  TELAPSE        5.91 TCPU        0.17
 INFORMATION **** EXCBUF **** EXCH. BIPO BUFFER: WORDS USED =           0

 DFT PARAMETERS

     ATOM       ELECTRONS   NET CHARGE   R(ANGSTROM)
   1   1  H       1.0000      0.0000     1.11000000
   9   6  C       6.0000      0.0000     0.77000000
  33   7  N       7.0000      0.0000     0.74000000
  53   9  F       9.0000      0.0000     0.72000000
  61  30  ZN     30.0000      0.0000     1.37000000

 SIZE OF GRID=     476908
 TTTTTTTTTTTTTTTTTTTTTTTTTTTTTT MAKE_GRID2  TELAPSE        6.62 TCPU        0.87
 BECKE WEIGHT FUNCTION
 RADSAFE =     2.00
 TOLERANCES - DENSITY:10**- 6; POTENTIAL:10**- 9; GRID WGT:10**-14

 RADIAL INTEGRATION  - INTERVALS (POINTS,UPPER LIMIT):            1( 75,  4.0*R)

 ANGULAR INTEGRATION - INTERVALS (ACCURACY LEVEL [N. POINTS] UPPER LIMIT):
  1(  4[  86]   0.2)  2(  8[ 194]   0.5)  3( 12[ 350]   0.9)  4( 16[ 974]   3.5)
  5( 12[ 350]9999.0)
 TTTTTTTTTTTTTTTTTTTTTTTTTTTTTT INT_CALC    TELAPSE        6.66 TCPU        0.91
 EEEEEEEEEE INT_CALC TERMINATION  DATE 17 01 2024 TIME 15:38:06.2

 *******************************************************************************
 Zi\home\sanoj\Downloads\tmp_p\newconn.mol                                       
 CRYSTAL - SCF - TYPE OF CALCULATION :  RESTRICTED CLOSED SHELL
 *******************************************************************************

 CAPPA:IS1  3;IS2  3;IS3  3; K PTS MONK NET   6; SYMMOPS:K SPACE   8;G SPACE   4

 TTTTTTTTTTTTTTTTTTTTTTTTTTTTTT SDIK        TELAPSE        6.84 TCPU        1.09

 AAAAAAAAAAAAAAAAAAAAAAAAAAAAAAAAAAAAAAAAAAAAAAAAAAAAAAAAAAAAAAAAAAAAAAAAAAAAAAA
         ATOMIC WAVEFUNCTION(S)


 NUCLEAR CHARGE  1.0  SYMMETRY SPECIES            S
 N. ELECTRONS    1.0  NUMBER OF PRIMITIVE GTOS    4
                      NUMBER OF CONTRACTED GTOS   2
                      NUMBER OF CLOSED SHELLS     0
                      OPEN SHELL OCCUPATION       1

  ZNUC SCFIT  TOTAL HF ENERGY   KINETIC ENERGY   VIRIAL THEOREM ACCURACY
   1.0   1   -4.946643675E-01  4.917913167E-01 -2.005842012E+00  9.4E-17

 NUCLEAR CHARGE  6.0  SYMMETRY SPECIES            S    P
 N. ELECTRONS    6.0  NUMBER OF PRIMITIVE GTOS    7    4
                      NUMBER OF CONTRACTED GTOS   3    2
                      NUMBER OF CLOSED SHELLS     2    0
                      OPEN SHELL OCCUPATION       0    2

  ZNUC SCFIT  TOTAL HF ENERGY   KINETIC ENERGY   VIRIAL THEOREM ACCURACY
   6.0   6   -3.750912652E+01  3.905246519E+01 -1.960480378E+00  3.7E-06

 NUCLEAR CHARGE  7.0  SYMMETRY SPECIES            S    P
 N. ELECTRONS    7.0  NUMBER OF PRIMITIVE GTOS    7    4
                      NUMBER OF CONTRACTED GTOS   3    2
                      NUMBER OF CLOSED SHELLS     2    0
                      OPEN SHELL OCCUPATION       0    3

  ZNUC SCFIT  TOTAL HF ENERGY   KINETIC ENERGY   VIRIAL THEOREM ACCURACY
   7.0   9   -5.432196661E+01  5.425066284E+01 -2.001314339E+00  1.2E-06

 NUCLEAR CHARGE  9.0  SYMMETRY SPECIES            S    P
 N. ELECTRONS    9.0  NUMBER OF PRIMITIVE GTOS    7    4
                      NUMBER OF CONTRACTED GTOS   3    2
                      NUMBER OF CLOSED SHELLS     2    0
                      OPEN SHELL OCCUPATION       0    5

  ZNUC SCFIT  TOTAL HF ENERGY   KINETIC ENERGY   VIRIAL THEOREM ACCURACY
   9.0  14   -9.927886620E+01  9.927374065E+01 -2.000051630E+00  4.0E-06

 NUCLEAR CHARGE 30.0  SYMMETRY SPECIES            S    P    D
 N. ELECTRONS   30.0  NUMBER OF PRIMITIVE GTOS   14    9    5
                      NUMBER OF CONTRACTED GTOS   5    3    2
                      NUMBER OF CLOSED SHELLS     4    2    1
                      OPEN SHELL OCCUPATION       0    0    0

  ZNUC SCFIT  TOTAL HF ENERGY   KINETIC ENERGY   VIRIAL THEOREM ACCURACY
  30.0  10   -1.777404290E+03  1.777325716E+03 -2.000044209E+00  2.5E-06

 AAAAAAAAAAAAAAAAAAAAAAAAAAAAAAAAAAAAAAAAAAAAAAAAAAAAAAAAAAAAAAAAAAAAAAAAAAAAAAA

 TOTAL ATOMIC CHARGES:
   1.0000000   1.0000000   1.0000000   1.0000000   1.0000000   1.0000000
   1.0000000   1.0000000   6.0000000   6.0000000   6.0000000   6.0000000
   6.0000000   6.0000000   6.0000000   6.0000000   6.0000000   6.0000000
   6.0000000   6.0000000   6.0000000   6.0000000   6.0000000   6.0000000
   6.0000000   6.0000000   6.0000000   6.0000000   6.0000000   6.0000000
   6.0000000   6.0000000   7.0000000   7.0000000   7.0000000   7.0000000
   7.0000000   7.0000000   7.0000000   7.0000000   7.0000000   7.0000000
   7.0000000   7.0000000   7.0000000   7.0000000   7.0000000   7.0000000
   7.0000000   7.0000000   7.0000000   7.0000000   9.0000000   9.0000000
   9.0000000   9.0000000   9.0000000   9.0000000   9.0000000   9.0000000
  30.0000000  30.0000000
 TTTTTTTTTTTTTTTTTTTTTTTTTTTTTT MOQGAD      TELAPSE        7.58 TCPU        1.83
 TTTTTTTTTTTTTTTTTTTTTTTTTTTTTT SHELLXN     TELAPSE       44.64 TCPU       22.22
 TTTTTTTTTTTTTTTTTTTTTTTTTTTTTT MONMO3      TELAPSE       48.17 TCPU       25.73
 NUMERICALLY INTEGRATED DENSITY    423.9999915552
 TTTTTTTTTTTTTTTTTTTTTTTTTTTTTT NUMDFT      TELAPSE       48.76 TCPU       26.33
 CYC   0 ETOT(AU) -6.370000410412E+03 DETOT -6.37E+03 tst  0.00E+00 PX  1.00E+00
 TTTTTTTTTTTTTTTTTTTTTTTTTTTTTT DIIS        TELAPSE       48.82 TCPU       26.38
 TTTTTTTTTTTTTTTTTTTTTTTTTTTTTT FDIK        TELAPSE       70.91 TCPU       40.46
 INSULATING STATE
 TOP OF VALENCE BANDS -    BAND    212; K    4; EIG -1.2988279E-01 AU
 TOP OF VALENCE BANDS -    BAND    212; K    1; EIG -1.3020453E-01 AU
 BOTTOM OF VIRTUAL BANDS - BAND    213; K    1; EIG -9.2004398E-02 AU
 INDIRECT ENERGY BAND GAP:   1.0307 eV
 TTTTTTTTTTTTTTTTTTTTTTTTTTTTTT PDIG        TELAPSE       71.39 TCPU       40.94
 TOTAL ATOMIC CHARGES:
   1.1204910   1.1204910   1.1204910   1.1204910   1.3015560   1.3015560
   1.3015560   1.3015560   6.2997425   6.2997425   6.2997425   6.2997425
   5.5648393   5.5648393   5.5648393   5.5648393   5.3509852   5.3509852
   5.3509852   5.3509852   5.7190345   5.7190345   5.7190345   5.7190345
   5.0922047   5.0922047   5.0922047   5.0922047   6.2158060   6.2158060
   6.2158060   6.2158060   7.4097466   7.4097466   7.4097466   7.4097466
   7.2130245   7.2130245   7.2130245   7.2130245   7.4179669   7.4179669
   7.4179669   7.4179669   7.1970395   7.1970395   7.1970395   7.1970395
   7.5796038   7.5796038   7.5796038   7.5796038   9.2647343   9.2647343
   9.2647343   9.2647343   9.2940415   9.2940415   9.2940415   9.2940415
  27.8901748  27.9465600
 TTTTTTTTTTTTTTTTTTTTTTTTTTTTTT MOQGAD      TELAPSE       71.42 TCPU       40.95
 TTTTTTTTTTTTTTTTTTTTTTTTTTTTTT SHELLXN     TELAPSE      100.24 TCPU       65.33
 TTTTTTTTTTTTTTTTTTTTTTTTTTTTTT MONMO3      TELAPSE      104.29 TCPU       69.37
 NUMERICALLY INTEGRATED DENSITY    423.9999548833
 TTTTTTTTTTTTTTTTTTTTTTTTTTTTTT NUMDFT      TELAPSE      106.20 TCPU       71.26
 CYC   1 ETOT(AU) -6.364191046072E+03 DETOT  5.81E+00 tst  0.00E+00 PX  1.00E+00
 TTTTTTTTTTTTTTTTTTTTTTTTTTTTTT DIIS        TELAPSE      106.30 TCPU       71.37
 DIIS TEST: 0.12888E+02 AT SCF   CYCLE   1 - MIX   30 %
 TTTTTTTTTTTTTTTTTTTTTTTTTTTTTT FDIK        TELAPSE      114.04 TCPU       77.31
 INSULATING STATE
 TOP OF VALENCE BANDS -    BAND    212; K    4; EIG -1.3982464E-01 AU
 TOP OF VALENCE BANDS -    BAND    212; K    1; EIG -1.4000361E-01 AU
 BOTTOM OF VIRTUAL BANDS - BAND    213; K    1; EIG -1.2077571E-01 AU
 INDIRECT ENERGY BAND GAP:   0.5183 eV
 TTTTTTTTTTTTTTTTTTTTTTTTTTTTTT PDIG        TELAPSE      114.51 TCPU       77.79
 TOTAL ATOMIC CHARGES:
   1.0837812   1.0837812   1.0837812   1.0837812   1.2568866   1.2568866
   1.2568866   1.2568866   6.3387101   6.3387101   6.3387101   6.3387101
   6.4028652   6.4028652   6.4028652   6.4028652   6.3267351   6.3267351
   6.3267351   6.3267351   5.9504878   5.9504878   5.9504878   5.9504878
   6.4148603   6.4148603   6.4148603   6.4148603   5.7779645   5.7779645
   5.7779645   5.7779645   6.9683310   6.9683310   6.9683310   6.9683310
   6.8258915   6.8258915   6.8258915   6.8258915   6.9867281   6.9867281
   6.9867281   6.9867281   6.8091620   6.8091620   6.8091620   6.8091620
   5.9251175   5.9251175   5.9251175   5.9251175   9.0067155   9.0067155
   9.0067155   9.0067155   9.0525158   9.0525158   9.0525158   9.0525158
  29.7982102  29.6947805
 TTTTTTTTTTTTTTTTTTTTTTTTTTTTTT MOQGAD      TELAPSE      114.53 TCPU       77.80
 TTTTTTTTTTTTTTTTTTTTTTTTTTTTTT SHELLXN     TELAPSE      141.21 TCPU      102.20
 TTTTTTTTTTTTTTTTTTTTTTTTTTTTTT MONMO3      TELAPSE      146.25 TCPU      107.21
 NUMERICALLY INTEGRATED DENSITY    423.9999407044
 TTTTTTTTTTTTTTTTTTTTTTTTTTTTTT NUMDFT      TELAPSE      148.05 TCPU      109.00
 CYC   2 ETOT(AU) -6.362140562609E+03 DETOT  2.05E+00 tst  7.02E-02 PX  7.15E-01
 TTTTTTTTTTTTTTTTTTTTTTTTTTTTTT DIIS        TELAPSE      148.19 TCPU      109.14
 DIIS TEST: 0.28265E+02 AT SCF   CYCLE   2 - DIIS ACTIVE - HISTORY:     2 CYCLES
 TTTTTTTTTTTTTTTTTTTTTTTTTTTTTT FDIK        TELAPSE      156.06 TCPU      114.76
 INSULATING STATE
 TOP OF VALENCE BANDS -    BAND    212; K    3; EIG -2.4395588E-01 AU
 TOP OF VALENCE BANDS -    BAND    212; K    1; EIG -2.4758056E-01 AU
 BOTTOM OF VIRTUAL BANDS - BAND    213; K    1; EIG -1.1850584E-01 AU
 INDIRECT ENERGY BAND GAP:   3.4137 eV
 TTTTTTTTTTTTTTTTTTTTTTTTTTTTTT PDIG        TELAPSE      156.54 TCPU      115.23
 TOTAL ATOMIC CHARGES:
   1.0527376   1.0527376   1.0527376   1.0527376   1.2040709   1.2040709
   1.2040709   1.2040709   5.8222205   5.8222205   5.8222205   5.8222205
   5.9081741   5.9081741   5.9081741   5.9081741   5.7536590   5.7536590
   5.7536590   5.7536590   6.1862059   6.1862059   6.1862059   6.1862059
   5.7194344   5.7194344   5.7194344   5.7194344   5.9309791   5.9309791
   5.9309791   5.9309791   6.9390527   6.9390527   6.9390527   6.9390527
   7.1787339   7.1787339   7.1787339   7.1787339   6.9773761   6.9773761
   6.9773761   6.9773761   7.1400816   7.1400816   7.1400816   7.1400816
   7.3770189   7.3770189   7.3770189   7.3770189   9.1108868   9.1108868
   9.1108868   9.1108868   9.0662355   9.0662355   9.0662355   9.0662355
  29.2773037  29.2552275
 TTTTTTTTTTTTTTTTTTTTTTTTTTTTTT MOQGAD      TELAPSE      156.56 TCPU      115.25
 TTTTTTTTTTTTTTTTTTTTTTTTTTTTTT SHELLXN     TELAPSE      185.17 TCPU      139.54
 TTTTTTTTTTTTTTTTTTTTTTTTTTTTTT MONMO3      TELAPSE      188.88 TCPU      143.24
 NUMERICALLY INTEGRATED DENSITY    423.9999589167
 TTTTTTTTTTTTTTTTTTTTTTTTTTTTTT NUMDFT      TELAPSE      190.68 TCPU      145.03
 CYC   3 ETOT(AU) -6.365626202256E+03 DETOT -3.49E+00 tst  2.05E-02 PX  4.82E-01
 TTTTTTTTTTTTTTTTTTTTTTTTTTTTTT DIIS        TELAPSE      190.80 TCPU      145.15
 DIIS TEST: 0.47741E+01 AT SCF   CYCLE   3 - DIIS ACTIVE - HISTORY:     3 CYCLES
 TTTTTTTTTTTTTTTTTTTTTTTTTTTTTT FDIK        TELAPSE      199.83 TCPU      150.13
 INSULATING STATE
 TOP OF VALENCE BANDS -    BAND    212; K    1; EIG -2.2575046E-01 AU
 BOTTOM OF VIRTUAL BANDS - BAND    213; K    1; EIG -1.1186868E-01 AU
 DIRECT ENERGY BAND GAP:   3.0989 eV
 TTTTTTTTTTTTTTTTTTTTTTTTTTTTTT PDIG        TELAPSE      200.30 TCPU      150.60
 TOTAL ATOMIC CHARGES:
   1.0730939   1.0730939   1.0730939   1.0730939   1.2447829   1.2447829
   1.2447829   1.2447829   6.2901428   6.2901428   6.2901428   6.2901428
   5.8723214   5.8723214   5.8723214   5.8723214   5.7592114   5.7592114
   5.7592114   5.7592114   5.7630296   5.7630296   5.7630296   5.7630296
   5.5780207   5.5780207   5.5780207   5.5780207   6.1392342   6.1392342
   6.1392342   6.1392342   7.1949515   7.1949515   7.1949515   7.1949515
   7.0333082   7.0333082   7.0333082   7.0333082   7.2418533   7.2418533
   7.2418533   7.2418533   7.0586198   7.0586198   7.0586198   7.0586198
   6.9616276   6.9616276   6.9616276   6.9616276   9.1707463   9.1707463
   9.1707463   9.1707463   9.1953554   9.1953554   9.1953554   9.1953554
  28.8394785  28.8553252
 TTTTTTTTTTTTTTTTTTTTTTTTTTTTTT MOQGAD      TELAPSE      200.32 TCPU      150.62
 TTTTTTTTTTTTTTTTTTTTTTTTTTTTTT SHELLXN     TELAPSE      226.92 TCPU      174.91
 TTTTTTTTTTTTTTTTTTTTTTTTTTTTTT MONMO3      TELAPSE      231.22 TCPU      179.19
 NUMERICALLY INTEGRATED DENSITY    423.9999531576
 TTTTTTTTTTTTTTTTTTTTTTTTTTTTTT NUMDFT      TELAPSE      233.01 TCPU      180.97
 CYC   4 ETOT(AU) -6.366220165775E+03 DETOT -5.94E-01 tst  4.69E-03 PX  2.36E-01
 TTTTTTTTTTTTTTTTTTTTTTTTTTTTTT DIIS        TELAPSE      233.17 TCPU      181.12
 DIIS TEST: 0.90347E+00 AT SCF   CYCLE   4 - DIIS ACTIVE - HISTORY:     4 CYCLES
 TTTTTTTTTTTTTTTTTTTTTTTTTTTTTT FDIK        TELAPSE      240.64 TCPU      186.43
 INSULATING STATE
 TOP OF VALENCE BANDS -    BAND    212; K    4; EIG -2.5022306E-01 AU
 TOP OF VALENCE BANDS -    BAND    212; K    1; EIG -2.5023891E-01 AU
 BOTTOM OF VIRTUAL BANDS - BAND    213; K    1; EIG -1.1643551E-01 AU
 INDIRECT ENERGY BAND GAP:   3.6405 eV
 TTTTTTTTTTTTTTTTTTTTTTTTTTTTTT PDIG        TELAPSE      241.12 TCPU      186.91
 TOTAL ATOMIC CHARGES:
   1.0741742   1.0741742   1.0741742   1.0741742   1.2377328   1.2377328
   1.2377328   1.2377328   6.2375663   6.2375663   6.2375663   6.2375663
   5.9088305   5.9088305   5.9088305   5.9088305   5.7246511   5.7246511
   5.7246511   5.7246511   5.9064207   5.9064207   5.9064207   5.9064207
   5.6762432   5.6762432   5.6762432   5.6762432   6.0081583   6.0081583
   6.0081583   6.0081583   7.1651026   7.1651026   7.1651026   7.1651026
   7.1262719   7.1262719   7.1262719   7.1262719   7.1053130   7.1053130
   7.1053130   7.1053130   7.0427827   7.0427827   7.0427827   7.0427827
   7.0534564   7.0534564   7.0534564   7.0534564   9.1372076   9.1372076
   9.1372076   9.1372076   9.1597916   9.1597916   9.1597916   9.1597916
  28.8798296  28.8653589
 TTTTTTTTTTTTTTTTTTTTTTTTTTTTTT MOQGAD      TELAPSE      241.14 TCPU      186.93
 TTTTTTTTTTTTTTTTTTTTTTTTTTTTTT SHELLXN     TELAPSE      267.77 TCPU      211.23
 TTTTTTTTTTTTTTTTTTTTTTTTTTTTTT MONMO3      TELAPSE      272.07 TCPU      215.51
 NUMERICALLY INTEGRATED DENSITY    423.9999543642
 TTTTTTTTTTTTTTTTTTTTTTTTTTTTTT NUMDFT      TELAPSE      273.91 TCPU      217.35
 CYC   5 ETOT(AU) -6.366330619677E+03 DETOT -1.10E-01 tst  5.13E-04 PX  1.00E-01
 TTTTTTTTTTTTTTTTTTTTTTTTTTTTTT DIIS        TELAPSE      274.04 TCPU      217.47
 DIIS TEST: 0.16142E+00 AT SCF   CYCLE   5 - DIIS ACTIVE - HISTORY:     5 CYCLES
 TTTTTTTTTTTTTTTTTTTTTTTTTTTTTT FDIK        TELAPSE      283.19 TCPU      222.70
 INSULATING STATE
 TOP OF VALENCE BANDS -    BAND    212; K    1; EIG -2.4701177E-01 AU
 BOTTOM OF VIRTUAL BANDS - BAND    213; K    1; EIG -1.1403406E-01 AU
 DIRECT ENERGY BAND GAP:   3.6185 eV
 TTTTTTTTTTTTTTTTTTTTTTTTTTTTTT PDIG        TELAPSE      283.66 TCPU      223.17
 TOTAL ATOMIC CHARGES:
   1.0717370   1.0717370   1.0717370   1.0717370   1.2371116   1.2371116
   1.2371116   1.2371116   6.1749939   6.1749939   6.1749939   6.1749939
   5.8959408   5.8959408   5.8959408   5.8959408   5.7735997   5.7735997
   5.7735997   5.7735997   5.8992911   5.8992911   5.8992911   5.8992911
   5.6377927   5.6377927   5.6377927   5.6377927   6.0581973   6.0581973
   6.0581973   6.0581973   7.0971343   7.0971343   7.0971343   7.0971343
   7.0526992   7.0526992   7.0526992   7.0526992   7.1899182   7.1899182
   7.1899182   7.1899182   7.1084253   7.1084253   7.1084253   7.1084253
   7.0523725   7.0523725   7.0523725   7.0523725   9.1485406   9.1485406
   9.1485406   9.1485406   9.1545824   9.1545824   9.1545824   9.1545824
  28.8929399  28.8977131
 TTTTTTTTTTTTTTTTTTTTTTTTTTTTTT MOQGAD      TELAPSE      283.68 TCPU      223.19
 TTTTTTTTTTTTTTTTTTTTTTTTTTTTTT SHELLXN     TELAPSE      310.16 TCPU      247.45
 TTTTTTTTTTTTTTTTTTTTTTTTTTTTTT MONMO3      TELAPSE      314.60 TCPU      251.88
 NUMERICALLY INTEGRATED DENSITY    423.9999543962
 TTTTTTTTTTTTTTTTTTTTTTTTTTTTTT NUMDFT      TELAPSE      316.44 TCPU      253.70
 CYC   6 ETOT(AU) -6.366343380461E+03 DETOT -1.28E-02 tst  1.49E-04 PX  2.25E-02
 TTTTTTTTTTTTTTTTTTTTTTTTTTTTTT DIIS        TELAPSE      316.63 TCPU      253.89
 DIIS TEST: 0.64669E-01 AT SCF   CYCLE   6 - DIIS ACTIVE - HISTORY:     6 CYCLES
 TTTTTTTTTTTTTTTTTTTTTTTTTTTTTT FDIK        TELAPSE      323.32 TCPU      258.40
 INSULATING STATE
 TOP OF VALENCE BANDS -    BAND    212; K    4; EIG -2.4732133E-01 AU
 TOP OF VALENCE BANDS -    BAND    212; K    1; EIG -2.4741832E-01 AU
 BOTTOM OF VIRTUAL BANDS - BAND    213; K    1; EIG -1.1428333E-01 AU
 INDIRECT ENERGY BAND GAP:   3.6201 eV
 TTTTTTTTTTTTTTTTTTTTTTTTTTTTTT PDIG        TELAPSE      323.79 TCPU      258.87
 TOTAL ATOMIC CHARGES:
   1.0707066   1.0707066   1.0707066   1.0707066   1.2364387   1.2364387
   1.2364387   1.2364387   6.1668225   6.1668225   6.1668225   6.1668225
   5.8958296   5.8958296   5.8958296   5.8958296   5.7694346   5.7694346
   5.7694346   5.7694346   5.8857207   5.8857207   5.8857207   5.8857207
   5.6411788   5.6411788   5.6411788   5.6411788   6.0606695   6.0606695
   6.0606695   6.0606695   7.1549931   7.1549931   7.1549931   7.1549931
   7.0920754   7.0920754   7.0920754   7.0920754   7.1468414   7.1468414
   7.1468414   7.1468414   7.0588399   7.0588399   7.0588399   7.0588399
   7.0671278   7.0671278   7.0671278   7.0671278   9.1456858   9.1456858
   9.1456858   9.1456858   9.1573515   9.1573515   9.1573515   9.1573515
  28.8999033  28.9012332
 TTTTTTTTTTTTTTTTTTTTTTTTTTTTTT MOQGAD      TELAPSE      323.81 TCPU      258.89
 TTTTTTTTTTTTTTTTTTTTTTTTTTTTTT SHELLXN     TELAPSE      350.32 TCPU      283.15
 TTTTTTTTTTTTTTTTTTTTTTTTTTTTTT MONMO3      TELAPSE      354.65 TCPU      287.46
 NUMERICALLY INTEGRATED DENSITY    423.9999538696
 TTTTTTTTTTTTTTTTTTTTTTTTTTTTTT NUMDFT      TELAPSE      356.44 TCPU      289.25
 CYC   7 ETOT(AU) -6.366350843450E+03 DETOT -7.46E-03 tst  6.29E-05 PX  1.49E-02
 TTTTTTTTTTTTTTTTTTTTTTTTTTTTTT DIIS        TELAPSE      356.58 TCPU      289.38
 DIIS TEST: 0.11687E-01 AT SCF   CYCLE   7 - DIIS ACTIVE - HISTORY:     7 CYCLES
 TTTTTTTTTTTTTTTTTTTTTTTTTTTTTT FDIK        TELAPSE      361.49 TCPU      292.38
 INSULATING STATE
 TOP OF VALENCE BANDS -    BAND    212; K    4; EIG -2.4789173E-01 AU
 TOP OF VALENCE BANDS -    BAND    212; K    1; EIG -2.4795818E-01 AU
 BOTTOM OF VIRTUAL BANDS - BAND    213; K    1; EIG -1.1432596E-01 AU
 INDIRECT ENERGY BAND GAP:   3.6345 eV
 TTTTTTTTTTTTTTTTTTTTTTTTTTTTTT PDIG        TELAPSE      361.97 TCPU      292.85
 TOTAL ATOMIC CHARGES:
   1.0710555   1.0710555   1.0710555   1.0710555   1.2355607   1.2355607
   1.2355607   1.2355607   6.1844606   6.1844606   6.1844606   6.1844606
   5.8978587   5.8978587   5.8978587   5.8978587   5.7553670   5.7553670
   5.7553670   5.7553670   5.8945570   5.8945570   5.8945570   5.8945570
   5.6466701   5.6466701   5.6466701   5.6466701   6.0463296   6.0463296
   6.0463296   6.0463296   7.1271687   7.1271687   7.1271687   7.1271687
   7.0822891   7.0822891   7.0822891   7.0822891   7.1560290   7.1560290
   7.1560290   7.1560290   7.0830638   7.0830638   7.0830638   7.0830638
   7.0676517   7.0676517   7.0676517   7.0676517   9.1445557   9.1445557
   9.1445557   9.1445557   9.1574484   9.1574484   9.1574484   9.1574484
  28.9001646  28.8995727
 TTTTTTTTTTTTTTTTTTTTTTTTTTTTTT MOQGAD      TELAPSE      361.99 TCPU      292.87
 TTTTTTTTTTTTTTTTTTTTTTTTTTTTTT SHELLXN     TELAPSE      388.64 TCPU      317.14
 TTTTTTTTTTTTTTTTTTTTTTTTTTTTTT MONMO3      TELAPSE      392.90 TCPU      321.39
 NUMERICALLY INTEGRATED DENSITY    423.9999541831
 TTTTTTTTTTTTTTTTTTTTTTTTTTTTTT NUMDFT      TELAPSE      394.75 TCPU      323.22
 CYC   8 ETOT(AU) -6.366352438444E+03 DETOT -1.59E-03 tst  8.64E-06 PX  7.45E-03
 TTTTTTTTTTTTTTTTTTTTTTTTTTTTTT DIIS        TELAPSE      394.87 TCPU      323.35
 DIIS TEST: 0.18588E-02 AT SCF   CYCLE   8 - DIIS ACTIVE - HISTORY:     8 CYCLES
 TTTTTTTTTTTTTTTTTTTTTTTTTTTTTT FDIK        TELAPSE      400.49 TCPU      328.29
 INSULATING STATE
 TOP OF VALENCE BANDS -    BAND    212; K    4; EIG -2.4781657E-01 AU
 TOP OF VALENCE BANDS -    BAND    212; K    1; EIG -2.4785374E-01 AU
 BOTTOM OF VIRTUAL BANDS - BAND    213; K    1; EIG -1.1462821E-01 AU
 INDIRECT ENERGY BAND GAP:   3.6242 eV
 TTTTTTTTTTTTTTTTTTTTTTTTTTTTTT PDIG        TELAPSE      400.97 TCPU      328.76
 TOTAL ATOMIC CHARGES:
   1.0702029   1.0702029   1.0702029   1.0702029   1.2350120   1.2350120
   1.2350120   1.2350120   6.1825060   6.1825060   6.1825060   6.1825060
   5.8907340   5.8907340   5.8907340   5.8907340   5.7582029   5.7582029
   5.7582029   5.7582029   5.8989561   5.8989561   5.8989561   5.8989561
   5.6400774   5.6400774   5.6400774   5.6400774   6.0533599   6.0533599
   6.0533599   6.0533599   7.1350807   7.1350807   7.1350807   7.1350807
   7.0875781   7.0875781   7.0875781   7.0875781   7.1557924   7.1557924
   7.1557924   7.1557924   7.0751501   7.0751501   7.0751501   7.0751501
   7.0633109   7.0633109   7.0633109   7.0633109   9.1458993   9.1458993
   9.1458993   9.1458993   9.1579287   9.1579287   9.1579287   9.1579287
  28.9003837  28.9004504
 TTTTTTTTTTTTTTTTTTTTTTTTTTTTTT MOQGAD      TELAPSE      400.99 TCPU      328.78
 TTTTTTTTTTTTTTTTTTTTTTTTTTTTTT SHELLXN     TELAPSE      427.53 TCPU      353.07
 TTTTTTTTTTTTTTTTTTTTTTTTTTTTTT MONMO3      TELAPSE      431.90 TCPU      357.42
 NUMERICALLY INTEGRATED DENSITY    423.9999542040
 TTTTTTTTTTTTTTTTTTTTTTTTTTTTTT NUMDFT      TELAPSE      433.69 TCPU      359.21
 CYC   9 ETOT(AU) -6.366352674775E+03 DETOT -2.36E-04 tst  1.59E-06 PX  2.75E-03
 TTTTTTTTTTTTTTTTTTTTTTTTTTTTTT DIIS        TELAPSE      433.83 TCPU      359.35
 DIIS TEST: 0.44865E-03 AT SCF   CYCLE   9 - DIIS ACTIVE - HISTORY:     9 CYCLES
 TTTTTTTTTTTTTTTTTTTTTTTTTTTTTT FDIK        TELAPSE      440.88 TCPU      364.15
 INSULATING STATE
 TOP OF VALENCE BANDS -    BAND    212; K    4; EIG -2.4817844E-01 AU
 TOP OF VALENCE BANDS -    BAND    212; K    1; EIG -2.4826722E-01 AU
 BOTTOM OF VIRTUAL BANDS - BAND    213; K    1; EIG -1.1453851E-01 AU
 INDIRECT ENERGY BAND GAP:   3.6365 eV
 TTTTTTTTTTTTTTTTTTTTTTTTTTTTTT PDIG        TELAPSE      441.35 TCPU      364.62
 TOTAL ATOMIC CHARGES:
   1.0705864   1.0705864   1.0705864   1.0705864   1.2354967   1.2354967
   1.2354967   1.2354967   6.1796465   6.1796465   6.1796465   6.1796465
   5.8952231   5.8952231   5.8952231   5.8952231   5.7596670   5.7596670
   5.7596670   5.7596670   5.8929626   5.8929626   5.8929626   5.8929626
   5.6428110   5.6428110   5.6428110   5.6428110   6.0518092   6.0518092
   6.0518092   6.0518092   7.1349500   7.1349500   7.1349500   7.1349500
   7.0830854   7.0830854   7.0830854   7.0830854   7.1557090   7.1557090
   7.1557090   7.1557090   7.0768748   7.0768748   7.0768748   7.0768748
   7.0686597   7.0686597   7.0686597   7.0686597   9.1453070   9.1453070
   9.1453070   9.1453070   9.1574241   9.1574241   9.1574241   9.1574241
  28.8997325  28.8994173
 TTTTTTTTTTTTTTTTTTTTTTTTTTTTTT MOQGAD      TELAPSE      441.37 TCPU      364.64
 TTTTTTTTTTTTTTTTTTTTTTTTTTTTTT SHELLXN     TELAPSE      467.08 TCPU      388.93
 TTTTTTTTTTTTTTTTTTTTTTTTTTTTTT MONMO3      TELAPSE      471.49 TCPU      393.33
 NUMERICALLY INTEGRATED DENSITY    423.9999541551
 TTTTTTTTTTTTTTTTTTTTTTTTTTTTTT NUMDFT      TELAPSE      473.34 TCPU      395.16
 CYC  10 ETOT(AU) -6.366352732053E+03 DETOT -5.73E-05 tst  1.95E-07 PX  1.52E-03
 TTTTTTTTTTTTTTTTTTTTTTTTTTTTTT DIIS        TELAPSE      473.61 TCPU      395.43
 DIIS TEST: 0.74362E-04 AT SCF   CYCLE  10 - DIIS ACTIVE - HISTORY:    10 CYCLES
 TTTTTTTTTTTTTTTTTTTTTTTTTTTTTT FDIK        TELAPSE      480.77 TCPU      400.45
 INSULATING STATE
 TOP OF VALENCE BANDS -    BAND    212; K    4; EIG -2.4793193E-01 AU
 TOP OF VALENCE BANDS -    BAND    212; K    1; EIG -2.4799719E-01 AU
 BOTTOM OF VIRTUAL BANDS - BAND    213; K    1; EIG -1.1448559E-01 AU
 INDIRECT ENERGY BAND GAP:   3.6313 eV
 TTTTTTTTTTTTTTTTTTTTTTTTTTTTTT PDIG        TELAPSE      481.25 TCPU      400.92
 TOTAL ATOMIC CHARGES:
   1.0705878   1.0705878   1.0705878   1.0705878   1.2354957   1.2354957
   1.2354957   1.2354957   6.1791606   6.1791606   6.1791606   6.1791606
   5.8951651   5.8951651   5.8951651   5.8951651   5.7595714   5.7595714
   5.7595714   5.7595714   5.8947770   5.8947770   5.8947770   5.8947770
   5.6431993   5.6431993   5.6431993   5.6431993   6.0520406   6.0520406
   6.0520406   6.0520406   7.1331429   7.1331429   7.1331429   7.1331429
   7.0861418   7.0861418   7.0861418   7.0861418   7.1546788   7.1546788
   7.1546788   7.1546788   7.0771014   7.0771014   7.0771014   7.0771014
   7.0661924   7.0661924   7.0661924   7.0661924   9.1453383   9.1453383
   9.1453383   9.1453383   9.1576314   9.1576314   9.1576314   9.1576314
  28.8997139  28.8993883
 TTTTTTTTTTTTTTTTTTTTTTTTTTTTTT MOQGAD      TELAPSE      481.27 TCPU      400.94
 TTTTTTTTTTTTTTTTTTTTTTTTTTTTTT SHELLXN     TELAPSE      507.83 TCPU      425.22
 TTTTTTTTTTTTTTTTTTTTTTTTTTTTTT MONMO3      TELAPSE      512.17 TCPU      429.55
 NUMERICALLY INTEGRATED DENSITY    423.9999541916
 TTTTTTTTTTTTTTTTTTTTTTTTTTTTTT NUMDFT      TELAPSE      514.00 TCPU      431.38
 CYC  11 ETOT(AU) -6.366352740092E+03 DETOT -8.04E-06 tst  7.43E-08 PX  7.43E-04
 TTTTTTTTTTTTTTTTTTTTTTTTTTTTTT DIIS        TELAPSE      514.14 TCPU      431.51
 DIIS TEST: 0.22842E-04 AT SCF   CYCLE  11 - DIIS ACTIVE - HISTORY:    11 CYCLES
 TTTTTTTTTTTTTTTTTTTTTTTTTTTTTT FDIK        TELAPSE      521.16 TCPU      436.28
 INSULATING STATE
 TOP OF VALENCE BANDS -    BAND    212; K    4; EIG -2.4798431E-01 AU
 TOP OF VALENCE BANDS -    BAND    212; K    1; EIG -2.4805386E-01 AU
 BOTTOM OF VIRTUAL BANDS - BAND    213; K    1; EIG -1.1451596E-01 AU
 INDIRECT ENERGY BAND GAP:   3.6319 eV
 TTTTTTTTTTTTTTTTTTTTTTTTTTTTTT PDIG        TELAPSE      521.63 TCPU      436.75
 TOTAL ATOMIC CHARGES:
   1.0705044   1.0705044   1.0705044   1.0705044   1.2354106   1.2354106
   1.2354106   1.2354106   6.1802358   6.1802358   6.1802358   6.1802358
   5.8943394   5.8943394   5.8943394   5.8943394   5.7589260   5.7589260
   5.7589260   5.7589260   5.8950666   5.8950666   5.8950666   5.8950666
   5.6424722   5.6424722   5.6424722   5.6424722   6.0518659   6.0518659
   6.0518659   6.0518659   7.1343776   7.1343776   7.1343776   7.1343776
   7.0847408   7.0847408   7.0847408   7.0847408   7.1557276   7.1557276
   7.1557276   7.1557276   7.0767179   7.0767179   7.0767179   7.0767179
   7.0667689   7.0667689   7.0667689   7.0667689   9.1453908   9.1453908
   9.1453908   9.1453908   9.1575634   9.1575634   9.1575634   9.1575634
  28.8998761  28.8996923
 TTTTTTTTTTTTTTTTTTTTTTTTTTTTTT MOQGAD      TELAPSE      521.65 TCPU      436.77
 TTTTTTTTTTTTTTTTTTTTTTTTTTTTTT SHELLXN     TELAPSE      548.25 TCPU      461.07
 TTTTTTTTTTTTTTTTTTTTTTTTTTTTTT MONMO3      TELAPSE      552.64 TCPU      465.44
 NUMERICALLY INTEGRATED DENSITY    423.9999541678
 TTTTTTTTTTTTTTTTTTTTTTTTTTTTTT NUMDFT      TELAPSE      554.48 TCPU      467.27
 CYC  12 ETOT(AU) -6.366352743639E+03 DETOT -3.55E-06 tst  2.60E-08 PX  3.31E-04
 TTTTTTTTTTTTTTTTTTTTTTTTTTTTTT DIIS        TELAPSE      554.76 TCPU      467.55
 DIIS TEST: 0.36788E-05 AT SCF   CYCLE  12 - DIIS ACTIVE - HISTORY:    12 CYCLES
 TTTTTTTTTTTTTTTTTTTTTTTTTTTTTT FDIK        TELAPSE      559.73 TCPU      472.34
 INSULATING STATE
 TOP OF VALENCE BANDS -    BAND    212; K    4; EIG -2.4800361E-01 AU
 TOP OF VALENCE BANDS -    BAND    212; K    1; EIG -2.4807367E-01 AU
 BOTTOM OF VIRTUAL BANDS - BAND    213; K    1; EIG -1.1451290E-01 AU
 INDIRECT ENERGY BAND GAP:   3.6325 eV
 TTTTTTTTTTTTTTTTTTTTTTTTTTTTTT PDIG        TELAPSE      560.20 TCPU      472.82
 TOTAL ATOMIC CHARGES:
   1.0705026   1.0705026   1.0705026   1.0705026   1.2354122   1.2354122
   1.2354122   1.2354122   6.1802300   6.1802300   6.1802300   6.1802300
   5.8944752   5.8944752   5.8944752   5.8944752   5.7591505   5.7591505
   5.7591505   5.7591505   5.8946758   5.8946758   5.8946758   5.8946758
   5.6425489   5.6425489   5.6425489   5.6425489   6.0519943   6.0519943
   6.0519943   6.0519943   7.1340246   7.1340246   7.1340246   7.1340246
   7.0850221   7.0850221   7.0850221   7.0850221   7.1552497   7.1552497
   7.1552497   7.1552497   7.0769785   7.0769785   7.0769785   7.0769785
   7.0668456   7.0668456   7.0668456   7.0668456   9.1454056   9.1454056
   9.1454056   9.1454056   9.1575986   9.1575986   9.1575986   9.1575986
  28.8998758  28.8996670
 TTTTTTTTTTTTTTTTTTTTTTTTTTTTTT MOQGAD      TELAPSE      560.22 TCPU      472.83
 TTTTTTTTTTTTTTTTTTTTTTTTTTTTTT SHELLXN     TELAPSE      586.85 TCPU      497.08
 TTTTTTTTTTTTTTTTTTTTTTTTTTTTTT MONMO3      TELAPSE      591.19 TCPU      501.41
 NUMERICALLY INTEGRATED DENSITY    423.9999541720
 TTTTTTTTTTTTTTTTTTTTTTTTTTTTTT NUMDFT      TELAPSE      593.03 TCPU      503.23
 CYC  13 ETOT(AU) -6.366352744189E+03 DETOT -5.50E-07 tst  2.92E-09 PX  1.12E-04
 TTTTTTTTTTTTTTTTTTTTTTTTTTTTTT DIIS        TELAPSE      593.24 TCPU      503.45
 DIIS TEST: 0.61883E-06 AT SCF   CYCLE  13 - DIIS ACTIVE - HISTORY:    13 CYCLES
 TTTTTTTTTTTTTTTTTTTTTTTTTTTTTT FDIK        TELAPSE      600.03 TCPU      508.13
 INSULATING STATE
 TOP OF VALENCE BANDS -    BAND    212; K    4; EIG -2.4799558E-01 AU
 TOP OF VALENCE BANDS -    BAND    212; K    1; EIG -2.4806548E-01 AU
 BOTTOM OF VIRTUAL BANDS - BAND    213; K    1; EIG -1.1451442E-01 AU
 INDIRECT ENERGY BAND GAP:   3.6322 eV
 TTTTTTTTTTTTTTTTTTTTTTTTTTTTTT PDIG        TELAPSE      600.50 TCPU      508.61
 TOTAL ATOMIC CHARGES:
   1.0705213   1.0705213   1.0705213   1.0705213   1.2354202   1.2354202
   1.2354202   1.2354202   6.1800267   6.1800267   6.1800267   6.1800267
   5.8945516   5.8945516   5.8945516   5.8945516   5.7591403   5.7591403
   5.7591403   5.7591403   5.8948373   5.8948373   5.8948373   5.8948373
   5.6426803   5.6426803   5.6426803   5.6426803   6.0519301   6.0519301
   6.0519301   6.0519301   7.1340595   7.1340595   7.1340595   7.1340595
   7.0850265   7.0850265   7.0850265   7.0850265   7.1554483   7.1554483
   7.1554483   7.1554483   7.0767926   7.0767926   7.0767926   7.0767926
   7.0667354   7.0667354   7.0667354   7.0667354   9.1453870   9.1453870
   9.1453870   9.1453870   9.1575992   9.1575992   9.1575992   9.1575992
  28.8998092  28.8995659
 TTTTTTTTTTTTTTTTTTTTTTTTTTTTTT MOQGAD      TELAPSE      600.52 TCPU      508.62
 TTTTTTTTTTTTTTTTTTTTTTTTTTTTTT SHELLXN     TELAPSE      624.95 TCPU      532.92
 +++ ENERGIES IN A.U. +++
 ::: EXT EL-POLE                                  -1.0621722314120E+04
 ::: EXT EL-SPHEROPOLE                             6.7976324939361E+01
 ::: BIELET ZONE E-E                               1.2813961378326E+04
 ::: TOTAL E-E                                     2.2602153891452E+03
 ::: TOTAL E-N + N-E                              -1.3717965255128E+04
 ::: TOTAL N-N                                    -7.5181742441119E+02
 ::: KINETIC ENERGY                                6.3364982668977E+03
[...]
  5( 12[ 350]9999.0)
 TTTTTTTTTTTTTTTTTTTTTTTTTTTTTT INT_CALC    TELAPSE    78097.57 TCPU    77358.26
 CYCLE   0   ALPHA  622.581115  EPSILON    2.658008  DELTA    6.2258E+02
 TTTTTTTTTTTTTTTTTTTTTTTTTTTTTT MOQGAD      TELAPSE    78299.38 TCPU    77558.94
 TTTTTTTTTTTTTTTTTTTTTTTTTTTTTT CP_MONMON   TELAPSE    78304.10 TCPU    77563.65
 DIIS TEST: 0.13043E+03 AT CPHF  CYCLE   1 - MIX    0 %
 CYCLE   1   ALPHA  179.045629  EPSILON    1.476820  DELTA   -4.4354E+02
 TTTTTTTTTTTTTTTTTTTTTTTTTTTTTT MOQGAD      TELAPSE    78507.88 TCPU    77766.00
 TTTTTTTTTTTTTTTTTTTTTTTTTTTTTT CP_MONMON   TELAPSE    78512.60 TCPU    77770.71
 DIIS TEST: 0.10172E+04 AT CPHF  CYCLE   2 - DIIS ACTIVE - HISTORY:     2 CYCLES
 CYCLE   2   ALPHA  436.442687  EPSILON    2.162299  DELTA    2.5740E+02
 TTTTTTTTTTTTTTTTTTTTTTTTTTTTTT MOQGAD      TELAPSE    78716.36 TCPU    77972.96
 TTTTTTTTTTTTTTTTTTTTTTTTTTTTTT CP_MONMON   TELAPSE    78721.08 TCPU    77977.66
 DIIS TEST: 0.16748E+02 AT CPHF  CYCLE   3 - DIIS ACTIVE - HISTORY:     3 CYCLES
 CYCLE   3   ALPHA  460.344151  EPSILON    2.225952  DELTA    2.3901E+01
 TTTTTTTTTTTTTTTTTTTTTTTTTTTTTT MOQGAD      TELAPSE    78924.89 TCPU    78180.01
 TTTTTTTTTTTTTTTTTTTTTTTTTTTTTT CP_MONMON   TELAPSE    78929.60 TCPU    78184.71
 DIIS TEST: 0.11040E+02 AT CPHF  CYCLE   4 - DIIS ACTIVE - HISTORY:     4 CYCLES
 CYCLE   4   ALPHA  461.840126  EPSILON    2.229936  DELTA    1.4960E+00
 TTTTTTTTTTTTTTTTTTTTTTTTTTTTTT MOQGAD      TELAPSE    79135.35 TCPU    78387.92
 TTTTTTTTTTTTTTTTTTTTTTTTTTTTTT CP_MONMON   TELAPSE    79140.07 TCPU    78392.63
 DIIS TEST: 0.48043E+02 AT CPHF  CYCLE   5 - DIIS ACTIVE - HISTORY:     5 CYCLES
 CYCLE   5   ALPHA  463.132178  EPSILON    2.233376  DELTA    1.2921E+00
 TTTTTTTTTTTTTTTTTTTTTTTTTTTTTT MOQGAD      TELAPSE    79344.04 TCPU    78595.00
 TTTTTTTTTTTTTTTTTTTTTTTTTTTTTT CP_MONMON   TELAPSE    79348.76 TCPU    78599.70
 DIIS TEST: 0.23541E+00 AT CPHF  CYCLE   6 - DIIS ACTIVE - HISTORY:     6 CYCLES
 CYCLE   6   ALPHA  464.371998  EPSILON    2.236678  DELTA    1.2398E+00
 TTTTTTTTTTTTTTTTTTTTTTTTTTTTTT MOQGAD      TELAPSE    79552.46 TCPU    78801.83
 TTTTTTTTTTTTTTTTTTTTTTTTTTTTTT CP_MONMON   TELAPSE    79557.18 TCPU    78806.53
 DIIS TEST: 0.28761E-01 AT CPHF  CYCLE   7 - DIIS ACTIVE - HISTORY:     7 CYCLES
 CYCLE   7   ALPHA  464.786816  EPSILON    2.237783  DELTA    4.1482E-01
 TTTTTTTTTTTTTTTTTTTTTTTTTTTTTT MOQGAD      TELAPSE    79760.94 TCPU    79008.76
 TTTTTTTTTTTTTTTTTTTTTTTTTTTTTT CP_MONMON   TELAPSE    79765.66 TCPU    79013.46
 DIIS TEST: 0.25472E-02 AT CPHF  CYCLE   8 - DIIS ACTIVE - HISTORY:     8 CYCLES
 CYCLE   8   ALPHA  464.795320  EPSILON    2.237806  DELTA    8.5036E-03
 TTTTTTTTTTTTTTTTTTTTTTTTTTTTTT MOQGAD      TELAPSE    79969.42 TCPU    79215.75
 TTTTTTTTTTTTTTTTTTTTTTTTTTTTTT CP_MONMON   TELAPSE    79974.13 TCPU    79220.44
 DIIS TEST: 0.11244E-02 AT CPHF  CYCLE   9 - DIIS ACTIVE - HISTORY:     9 CYCLES
 CYCLE   9   ALPHA  464.797711  EPSILON    2.237812  DELTA    2.3912E-03
 TTTTTTTTTTTTTTTTTTTTTTTTTTTTTT MOQGAD      TELAPSE    80179.84 TCPU    79422.77
 TTTTTTTTTTTTTTTTTTTTTTTTTTTTTT CP_MONMON   TELAPSE    80184.56 TCPU    79427.47
 DIIS TEST: 0.22991E-03 AT CPHF  CYCLE  10 - DIIS ACTIVE - HISTORY:    10 CYCLES
 CYCLE  10   ALPHA  464.790392  EPSILON    2.237793  DELTA   -7.3191E-03
 TTTTTTTTTTTTTTTTTTTTTTTTTTTTTT MOQGAD      TELAPSE    80388.76 TCPU    79630.20
 TTTTTTTTTTTTTTTTTTTTTTTTTTTTTT CP_MONMON   TELAPSE    80393.48 TCPU    79634.91
 DIIS TEST: 0.60855E-04 AT CPHF  CYCLE  11 - DIIS ACTIVE - HISTORY:    11 CYCLES
 CYCLE  11   ALPHA  464.782709  EPSILON    2.237772  DELTA   -7.6832E-03
 TTTTTTTTTTTTTTTTTTTTTTTTTTTTTT MOQGAD      TELAPSE    80597.44 TCPU    79837.37
 TTTTTTTTTTTTTTTTTTTTTTTTTTTTTT CP_MONMON   TELAPSE    80602.16 TCPU    79842.07
 DIIS TEST: 0.37856E-04 AT CPHF  CYCLE  12 - DIIS ACTIVE - HISTORY:    12 CYCLES
 CYCLE  12   ALPHA  464.786018  EPSILON    2.237781  DELTA    3.3094E-03
 TTTTTTTTTTTTTTTTTTTTTTTTTTTTTT MOQGAD      TELAPSE    80805.95 TCPU    80044.33
 TTTTTTTTTTTTTTTTTTTTTTTTTTTTTT CP_MONMON   TELAPSE    80810.67 TCPU    80049.03
 DIIS TEST: 0.61171E-04 AT CPHF  CYCLE  13 - DIIS ACTIVE - HISTORY:    13 CYCLES
 CYCLE  13   ALPHA  464.786461  EPSILON    2.237782  DELTA    4.4331E-04
 TTTTTTTTTTTTTTTTTTTTTTTTTTTTTT CP_SC       TELAPSE    80823.76 TCPU    80061.03

 *******************************************************************************

 POLARIZABILITY (ALPHA), DIELECTRIC (EPSILON) AND FIRST-ORDER ELECTRIC
 SUSCEPTIBILITY (CHI(1)) TENSORS (INDEPENDENT COMPONENTS)

  FR.(eV) COMP.   ALPHA(Re,Im)           EPSILON(Re,Im)                CHI(1)
  1.435   XX     784.9036       0.0000       3.0903       0.0000       2.0903
  1.435   ZZ     464.7865       0.0000       2.2378       0.0000       1.2378

 DIELECTRIC TENSOR

 TENSOR IN PRINCIPAL AXES SYSTEM
 AA  3.090292E+00 BB  3.090292E+00 CC  2.237782E+00

 REFRACTIVE INDICES 
 AA  1.495922E+00 BB  1.757923E+00 CC  1.757923E+00

 OPTICALLY ANISOTROPIC - UNIAXIAL CRYSTAL

 BIREFRINGENCE =  0.2620 (NEGATIVE) - OBLATE OPTICAL ELLIPSOID

 EPSILON=N**2=1+CHI(1)=1+ALPHA*4*PI/V,   4*PI/V=   0.00266 BOHR**(-3)
 ALPHA IN BOHR**3; EPSILON AND CHI(1) ARE DIMENSIONLESS.
 *******************************************************************************

 DYNAMIC FIELD: RUN 10/ 10 - RADIATION WAVELENGTH: 1064.0000 NM

 *******************************************************************************

 ELECTRIC FIELD APPLIED ALONG CARTESIAN DIRECTION X

 *******************************************************************************
 THE NUMBER OF SYMMETRY OPERATORS HAS BEEN REDUCED FROM  4 TO  1

 NEW GRID IN RECIPROCAL SPACE
 *******************************************************************************
 POINTS IN THE IBZ                  14 SHRINKING FACTORS               3  3  3
 *******************************************************************************
 *** K POINTS COORDINATES (OBLIQUE COORDINATES IN UNITS OF SHRINK FAC. )
   1-R(  0  0  0)   2-C(  1  0  0)   3-C(  0  1  2)   4-C(  2  0  1)
   5-C(  0  2  0)   6-C(  1  1  0)   7-C(  1  1  1)   8-C(  1  0  1)
   9-C(  0  1  1)  10-C(  2  1  0)  11-C(  0  0  2)  12-C(  2  1  1)
  13-C(  2  1  2)  14-C(  2  2  1)

 GCALCO - MAX INDICES DIRECT LATTICE VECTOR    14    14    16
 NO.OF VECTORS CREATED 6999 STARS  479 RMAX   199.25928 BOHR
 TTTTTTTTTTTTTTTTTTTTTTTTTTTTTT gordsh1     TELAPSE    80823.78 TCPU    80061.03

 MATRIX SIZE: P(G) 1814164, F(G)  907788, P(G) IRR  909418, F(G) IRR  909418
 MAX G-VECTOR INDEX FOR 1- AND 2-ELECTRON INTEGRALS  63

 TTTTTTTTTTTTTTTTTTTTTTTTTTTTTT INPUT       TELAPSE    80823.86 TCPU    80061.12
 TTTTTTTTTTTTTTTTTTTTTTTTTTTTTT SYMM        TELAPSE    80823.86 TCPU    80061.12

 ***** NEW REFERENCE GEOMETRY *****
 TTTTTTTTTTTTTTTTTTTTTTTTTTTTTT INT_SCREEN  TELAPSE    80823.87 TCPU    80061.13
 INFORMATION **** EXCBUF **** EXCH. BIPO BUFFER: WORDS USED =           0

 DFT PARAMETERS

     ATOM       ELECTRONS   NET CHARGE   R(ANGSTROM)
   1   1  H       1.0000      0.0000     1.11000000
   9   6  C       6.0000      0.0000     0.77000000
  33   7  N       7.0000      0.0000     0.74000000
  53   9  F       9.0000      0.0000     0.72000000
  61  30  ZN     30.0000      0.0000     1.37000000

 SIZE OF GRID=    1907402
 TTTTTTTTTTTTTTTTTTTTTTTTTTTTTT MAKE_GRID2  TELAPSE    80825.13 TCPU    80062.38
 BECKE WEIGHT FUNCTION
 RADSAFE =     2.00
 TOLERANCES - DENSITY:10**- 6; POTENTIAL:10**- 9; GRID WGT:10**-14

 RADIAL INTEGRATION  - INTERVALS (POINTS,UPPER LIMIT):            1( 75,  4.0*R)

 ANGULAR INTEGRATION - INTERVALS (ACCURACY LEVEL [N. POINTS] UPPER LIMIT):
  1(  4[  86]   0.2)  2(  8[ 194]   0.5)  3( 12[ 350]   0.9)  4( 16[ 974]   3.5)
  5( 12[ 350]9999.0)
 TTTTTTTTTTTTTTTTTTTTTTTTTTTTTT INT_CALC    TELAPSE    80825.18 TCPU    80062.43
 CYCLE   0   ALPHA 1104.627552  EPSILON    3.941756  DELTA    1.1046E+03
 TTTTTTTTTTTTTTTTTTTTTTTTTTTTTT MOQGAD      TELAPSE    81222.53 TCPU    80457.68
 TTTTTTTTTTTTTTTTTTTTTTTTTTTTTT CP_MONMON   TELAPSE    81231.20 TCPU    80466.32
 DIIS TEST: 0.30694E+03 AT CPHF  CYCLE   1 - MIX    0 %
 CYCLE   1   ALPHA   68.304442  EPSILON    1.181903  DELTA   -1.0363E+03
 TTTTTTTTTTTTTTTTTTTTTTTTTTTTTT MOQGAD      TELAPSE    81629.48 TCPU    80861.42
 TTTTTTTTTTTTTTTTTTTTTTTTTTTTTT CP_MONMON   TELAPSE    81638.13 TCPU    80870.04
 DIIS TEST: 0.23270E+04 AT CPHF  CYCLE   2 - DIIS ACTIVE - HISTORY:     2 CYCLES
 CYCLE   2   ALPHA  729.206170  EPSILON    2.941963  DELTA    6.6090E+02
 TTTTTTTTTTTTTTTTTTTTTTTTTTTTTT MOQGAD      TELAPSE    82035.99 TCPU    81264.46
 TTTTTTTTTTTTTTTTTTTTTTTTTTTTTT CP_MONMON   TELAPSE    82044.64 TCPU    81273.07
 DIIS TEST: 0.40189E+02 AT CPHF  CYCLE   3 - DIIS ACTIVE - HISTORY:     3 CYCLES
 CYCLE   3   ALPHA  760.303477  EPSILON    3.024779  DELTA    3.1097E+01
 TTTTTTTTTTTTTTTTTTTTTTTTTTTTTT MOQGAD      TELAPSE    82444.92 TCPU    81668.34
 TTTTTTTTTTTTTTTTTTTTTTTTTTTTTT CP_MONMON   TELAPSE    82453.58 TCPU    81676.97
 DIIS TEST: 0.30648E+01 AT CPHF  CYCLE   4 - DIIS ACTIVE - HISTORY:     4 CYCLES
 CYCLE   4   ALPHA  770.298399  EPSILON    3.051397  DELTA    9.9949E+00
 TTTTTTTTTTTTTTTTTTTTTTTTTTTTTT MOQGAD      TELAPSE    82851.57 TCPU    82071.76
 TTTTTTTTTTTTTTTTTTTTTTTTTTTTTT CP_MONMON   TELAPSE    82860.23 TCPU    82080.40
 DIIS TEST: 0.11449E+01 AT CPHF  CYCLE   5 - DIIS ACTIVE - HISTORY:     5 CYCLES
 CYCLE   5   ALPHA  774.009465  EPSILON    3.061280  DELTA    3.7111E+00
 TTTTTTTTTTTTTTTTTTTTTTTTTTTTTT MOQGAD      TELAPSE    83260.53 TCPU    82475.45
 TTTTTTTTTTTTTTTTTTTTTTTTTTTTTT CP_MONMON   TELAPSE    83269.19 TCPU    82484.06
 DIIS TEST: 0.56176E-01 AT CPHF  CYCLE   6 - DIIS ACTIVE - HISTORY:     6 CYCLES
 CYCLE   6   ALPHA  775.281914  EPSILON    3.064669  DELTA    1.2724E+00
 TTTTTTTTTTTTTTTTTTTTTTTTTTTTTT MOQGAD      TELAPSE    83668.18 TCPU    82879.96
 TTTTTTTTTTTTTTTTTTTTTTTTTTTTTT CP_MONMON   TELAPSE    83676.83 TCPU    82888.58
 DIIS TEST: 0.10366E-01 AT CPHF  CYCLE   7 - DIIS ACTIVE - HISTORY:     7 CYCLES
 CYCLE   7   ALPHA  775.425778  EPSILON    3.065052  DELTA    1.4386E-01
 TTTTTTTTTTTTTTTTTTTTTTTTTTTTTT MOQGAD      TELAPSE    84076.50 TCPU    83283.25
 TTTTTTTTTTTTTTTTTTTTTTTTTTTTTT CP_MONMON   TELAPSE    84085.16 TCPU    83291.87
 DIIS TEST: 0.48664E-03 AT CPHF  CYCLE   8 - DIIS ACTIVE - HISTORY:     8 CYCLES
 CYCLE   8   ALPHA  775.451117  EPSILON    3.065119  DELTA    2.5339E-02
 TTTTTTTTTTTTTTTTTTTTTTTTTTTTTT MOQGAD      TELAPSE    84485.23 TCPU    83686.76
 TTTTTTTTTTTTTTTTTTTTTTTTTTTTTT CP_MONMON   TELAPSE    84493.89 TCPU    83695.38
 DIIS TEST: 0.12947E-03 AT CPHF  CYCLE   9 - DIIS ACTIVE - HISTORY:     9 CYCLES
 CYCLE   9   ALPHA  775.437711  EPSILON    3.065084  DELTA   -1.3406E-02
 TTTTTTTTTTTTTTTTTTTTTTTTTTTTTT MOQGAD      TELAPSE    84892.31 TCPU    84090.71
 TTTTTTTTTTTTTTTTTTTTTTTTTTTTTT CP_MONMON   TELAPSE    84900.96 TCPU    84099.33
 DIIS TEST: 0.69378E-05 AT CPHF  CYCLE  10 - DIIS ACTIVE - HISTORY:    10 CYCLES
 CYCLE  10   ALPHA  775.425862  EPSILON    3.065052  DELTA   -1.1849E-02
 TTTTTTTTTTTTTTTTTTTTTTTTTTTTTT MOQGAD      TELAPSE    85298.67 TCPU    84493.91
 TTTTTTTTTTTTTTTTTTTTTTTTTTTTTT CP_MONMON   TELAPSE    85307.32 TCPU    84502.53
 DIIS TEST: 0.21904E-05 AT CPHF  CYCLE  11 - DIIS ACTIVE - HISTORY:    11 CYCLES
 CYCLE  11   ALPHA  775.421780  EPSILON    3.065041  DELTA   -4.0828E-03
 TTTTTTTTTTTTTTTTTTTTTTTTTTTTTT MOQGAD      TELAPSE    85705.74 TCPU    84897.85
 TTTTTTTTTTTTTTTTTTTTTTTTTTTTTT CP_MONMON   TELAPSE    85714.38 TCPU    84906.47
 DIIS TEST: 0.14123E-05 AT CPHF  CYCLE  12 - DIIS ACTIVE - HISTORY:    12 CYCLES
 CYCLE  12   ALPHA  775.421680  EPSILON    3.065041  DELTA   -9.9837E-05
 TTTTTTTTTTTTTTTTTTTTTTTTTTTTTT CP_SC       TELAPSE    85726.58 TCPU    84917.21

 *******************************************************************************

 ELECTRIC FIELD APPLIED ALONG CARTESIAN DIRECTION Z

 *******************************************************************************
 THE NUMBER OF SYMMETRY OPERATORS HAS BEEN REDUCED FROM  4 TO  2

 NEW GRID IN RECIPROCAL SPACE
 *******************************************************************************
 POINTS IN THE IBZ                  10 SHRINKING FACTORS               3  3  3
 *******************************************************************************
 *** K POINTS COORDINATES (OBLIQUE COORDINATES IN UNITS OF SHRINK FAC. )
   1-R(  0  0  0)   2-C(  1  0  0)   3-C(  2  0  1)   4-C(  1  1  0)
   5-C(  1  0  1)   6-C(  2  1  0)   7-C(  0  0  2)   8-C(  2  1  1)
   9-C(  2  1  2)  10-C(  2  2  1)

 GCALCO - MAX INDICES DIRECT LATTICE VECTOR    14    14    16
 NO.OF VECTORS CREATED 6999 STARS  479 RMAX   199.25928 BOHR
 TTTTTTTTTTTTTTTTTTTTTTTTTTTTTT gordsh1     TELAPSE    85726.58 TCPU    84917.21

 MATRIX SIZE: P(G) 1814164, F(G)  907788, P(G) IRR  457202, F(G) IRR  457202
 MAX G-VECTOR INDEX FOR 1- AND 2-ELECTRON INTEGRALS  63

 TTTTTTTTTTTTTTTTTTTTTTTTTTTTTT INPUT       TELAPSE    85726.61 TCPU    84917.24
 TTTTTTTTTTTTTTTTTTTTTTTTTTTTTT SYMM        TELAPSE    85726.61 TCPU    84917.24

 ***** NEW REFERENCE GEOMETRY *****
 TTTTTTTTTTTTTTTTTTTTTTTTTTTTTT INT_SCREEN  TELAPSE    85726.62 TCPU    84917.24
 INFORMATION **** EXCBUF **** EXCH. BIPO BUFFER: WORDS USED =           0

 DFT PARAMETERS

     ATOM       ELECTRONS   NET CHARGE   R(ANGSTROM)
   1   1  H       1.0000      0.0000     1.11000000
   9   6  C       6.0000      0.0000     0.77000000
  33   7  N       7.0000      0.0000     0.74000000
  53   9  F       9.0000      0.0000     0.72000000
  61  30  ZN     30.0000      0.0000     1.37000000

 SIZE OF GRID=     953816
 TTTTTTTTTTTTTTTTTTTTTTTTTTTTTT MAKE_GRID2  TELAPSE    85727.45 TCPU    84918.07
 BECKE WEIGHT FUNCTION
 RADSAFE =     2.00
 TOLERANCES - DENSITY:10**- 6; POTENTIAL:10**- 9; GRID WGT:10**-14

 RADIAL INTEGRATION  - INTERVALS (POINTS,UPPER LIMIT):            1( 75,  4.0*R)

 ANGULAR INTEGRATION - INTERVALS (ACCURACY LEVEL [N. POINTS] UPPER LIMIT):
  1(  4[  86]   0.2)  2(  8[ 194]   0.5)  3( 12[ 350]   0.9)  4( 16[ 974]   3.5)
  5( 12[ 350]9999.0)
 TTTTTTTTTTTTTTTTTTTTTTTTTTTTTT INT_CALC    TELAPSE    85727.49 TCPU    84918.11
 CYCLE   0   ALPHA  615.826493  EPSILON    2.640020  DELTA    6.1583E+02
 TTTTTTTTTTTTTTTTTTTTTTTTTTTTTT MOQGAD      TELAPSE    85923.51 TCPU    85113.11
 TTTTTTTTTTTTTTTTTTTTTTTTTTTTTT CP_MONMON   TELAPSE    85928.23 TCPU    85117.82
 DIIS TEST: 0.12586E+03 AT CPHF  CYCLE   1 - MIX    0 %
 CYCLE   1   ALPHA  186.745212  EPSILON    1.497325  DELTA   -4.2908E+02
 TTTTTTTTTTTTTTTTTTTTTTTTTTTTTT MOQGAD      TELAPSE    86127.22 TCPU    85313.15
 TTTTTTTTTTTTTTTTTTTTTTTTTTTTTT CP_MONMON   TELAPSE    86131.94 TCPU    85317.85
 DIIS TEST: 0.95181E+03 AT CPHF  CYCLE   2 - DIIS ACTIVE - HISTORY:     2 CYCLES
 CYCLE   2   ALPHA  433.706776  EPSILON    2.155013  DELTA    2.4696E+02
 TTTTTTTTTTTTTTTTTTTTTTTTTTTTTT MOQGAD      TELAPSE    86329.65 TCPU    85514.06
 TTTTTTTTTTTTTTTTTTTTTTTTTTTTTT CP_MONMON   TELAPSE    86334.37 TCPU    85518.76
 DIIS TEST: 0.16278E+02 AT CPHF  CYCLE   3 - DIIS ACTIVE - HISTORY:     3 CYCLES
 CYCLE   3   ALPHA  457.017129  EPSILON    2.217091  DELTA    2.3310E+01
 TTTTTTTTTTTTTTTTTTTTTTTTTTTTTT MOQGAD      TELAPSE    86534.22 TCPU    85715.24
 TTTTTTTTTTTTTTTTTTTTTTTTTTTTTT CP_MONMON   TELAPSE    86538.94 TCPU    85719.94
 DIIS TEST: 0.90693E+01 AT CPHF  CYCLE   4 - DIIS ACTIVE - HISTORY:     4 CYCLES
 CYCLE   4   ALPHA  458.789478  EPSILON    2.221811  DELTA    1.7723E+00
 TTTTTTTTTTTTTTTTTTTTTTTTTTTTTT MOQGAD      TELAPSE    86736.73 TCPU    85916.25
 TTTTTTTTTTTTTTTTTTTTTTTTTTTTTT CP_MONMON   TELAPSE    86741.44 TCPU    85920.95
 DIIS TEST: 0.40217E+02 AT CPHF  CYCLE   5 - DIIS ACTIVE - HISTORY:     5 CYCLES
 CYCLE   5   ALPHA  459.741697  EPSILON    2.224347  DELTA    9.5222E-01
 TTTTTTTTTTTTTTTTTTTTTTTTTTTTTT MOQGAD      TELAPSE    86939.25 TCPU    86117.09
 TTTTTTTTTTTTTTTTTTTTTTTTTTTTTT CP_MONMON   TELAPSE    86944.04 TCPU    86121.83
 DIIS TEST: 0.21343E+00 AT CPHF  CYCLE   6 - DIIS ACTIVE - HISTORY:     6 CYCLES
 CYCLE   6   ALPHA  460.905186  EPSILON    2.227446  DELTA    1.1635E+00
 TTTTTTTTTTTTTTTTTTTTTTTTTTTTTT MOQGAD      TELAPSE    87142.32 TCPU    86318.15
 TTTTTTTTTTTTTTTTTTTTTTTTTTTTTT CP_MONMON   TELAPSE    87147.05 TCPU    86322.86
 DIIS TEST: 0.26569E-01 AT CPHF  CYCLE   7 - DIIS ACTIVE - HISTORY:     7 CYCLES
 CYCLE   7   ALPHA  461.286228  EPSILON    2.228460  DELTA    3.8104E-01
 TTTTTTTTTTTTTTTTTTTTTTTTTTTTTT MOQGAD      TELAPSE    87344.80 TCPU    86519.14
 TTTTTTTTTTTTTTTTTTTTTTTTTTTTTT CP_MONMON   TELAPSE    87349.52 TCPU    86523.85
 DIIS TEST: 0.20094E-02 AT CPHF  CYCLE   8 - DIIS ACTIVE - HISTORY:     8 CYCLES
 CYCLE   8   ALPHA  461.292930  EPSILON    2.228478  DELTA    6.7017E-03
 TTTTTTTTTTTTTTTTTTTTTTTTTTTTTT MOQGAD      TELAPSE    87549.57 TCPU    86720.23
 TTTTTTTTTTTTTTTTTTTTTTTTTTTTTT CP_MONMON   TELAPSE    87554.29 TCPU    86724.93
 DIIS TEST: 0.94292E-03 AT CPHF  CYCLE   9 - DIIS ACTIVE - HISTORY:     9 CYCLES
 CYCLE   9   ALPHA  461.295106  EPSILON    2.228484  DELTA    2.1764E-03
 TTTTTTTTTTTTTTTTTTTTTTTTTTTTTT MOQGAD      TELAPSE    87752.55 TCPU    86920.75
 TTTTTTTTTTTTTTTTTTTTTTTTTTTTTT CP_MONMON   TELAPSE    87757.27 TCPU    86925.45
 DIIS TEST: 0.15449E-03 AT CPHF  CYCLE  10 - DIIS ACTIVE - HISTORY:    10 CYCLES
 CYCLE  10   ALPHA  461.288301  EPSILON    2.228466  DELTA   -6.8053E-03
 TTTTTTTTTTTTTTTTTTTTTTTTTTTTTT MOQGAD      TELAPSE    87955.79 TCPU    87122.46
 TTTTTTTTTTTTTTTTTTTTTTTTTTTTTT CP_MONMON   TELAPSE    87960.52 TCPU    87127.17
 DIIS TEST: 0.36145E-04 AT CPHF  CYCLE  11 - DIIS ACTIVE - HISTORY:    11 CYCLES
 CYCLE  11   ALPHA  461.281205  EPSILON    2.228447  DELTA   -7.0954E-03
 TTTTTTTTTTTTTTTTTTTTTTTTTTTTTT MOQGAD      TELAPSE    88159.34 TCPU    87324.46
 TTTTTTTTTTTTTTTTTTTTTTTTTTTTTT CP_MONMON   TELAPSE    88164.09 TCPU    87329.18
 DIIS TEST: 0.26792E-04 AT CPHF  CYCLE  12 - DIIS ACTIVE - HISTORY:    12 CYCLES
 CYCLE  12   ALPHA  461.283327  EPSILON    2.228453  DELTA    2.1218E-03
 TTTTTTTTTTTTTTTTTTTTTTTTTTTTTT MOQGAD      TELAPSE    88364.13 TCPU    87524.57
 TTTTTTTTTTTTTTTTTTTTTTTTTTTTTT CP_MONMON   TELAPSE    88368.86 TCPU    87529.28
 DIIS TEST: 0.41614E-04 AT CPHF  CYCLE  13 - DIIS ACTIVE - HISTORY:    13 CYCLES
 CYCLE  13   ALPHA  461.283805  EPSILON    2.228454  DELTA    4.7829E-04
 TTTTTTTTTTTTTTTTTTTTTTTTTTTTTT CP_SC       TELAPSE    88379.48 TCPU    87537.30

 *******************************************************************************

 POLARIZABILITY (ALPHA), DIELECTRIC (EPSILON) AND FIRST-ORDER ELECTRIC
 SUSCEPTIBILITY (CHI(1)) TENSORS (INDEPENDENT COMPONENTS)

  FR.(eV) COMP.   ALPHA(Re,Im)           EPSILON(Re,Im)                CHI(1)
  1.165   XX     775.4217       0.0000       3.0650       0.0000       2.0650
  1.165   ZZ     461.2838       0.0000       2.2285       0.0000       1.2285

 DIELECTRIC TENSOR

 TENSOR IN PRINCIPAL AXES SYSTEM
 AA  3.065041E+00 BB  3.065041E+00 CC  2.228454E+00

 REFRACTIVE INDICES 
 AA  1.492801E+00 BB  1.750726E+00 CC  1.750726E+00

 OPTICALLY ANISOTROPIC - UNIAXIAL CRYSTAL

 BIREFRINGENCE =  0.2579 (NEGATIVE) - OBLATE OPTICAL ELLIPSOID

 EPSILON=N**2=1+CHI(1)=1+ALPHA*4*PI/V,   4*PI/V=   0.00266 BOHR**(-3)
 ALPHA IN BOHR**3; EPSILON AND CHI(1) ARE DIMENSIONLESS.
 *******************************************************************************


 GCALCO - MAX INDICES DIRECT LATTICE VECTOR    14    14    16
 NO.OF VECTORS CREATED 6999 STARS  479 RMAX   199.25928 BOHR

 CAPPA:IS1  3;IS2  3;IS3  3; K PTS MONK NET   6; SYMMOPS:K SPACE   8;G SPACE   4

 TTTTTTTTTTTTTTTTTTTTTTTTTTTTTT END         TELAPSE    88379.52 TCPU    87537.30
 EEEEEEEEEE TERMINATION  DATE 18 01 2024 TIME 16:10:59.1
NODE    0 CPU TIME =     87537.304
    TOTAL CPU TIME =   5609524.421
trying normal rsh (/usr/bin/rsh)
exec: No such file or directory
trying normal rsh (/usr/bin/rsh)
exec: No such file or directory
trying normal rsh (/usr/bin/rsh)
exec: No such file or directory
trying normal rsh (/usr/bin/rsh)
exec: No such file or directory
