Loading crystal17/1.0.2/intel/19.0
  Loading requirement: intel/19.0 ompi/4.0.1/intel/19.0
 PROCESS           12  OF           24  WORKING
 PROCESS           17  OF           24  WORKING
 PROCESS           21  OF           24  WORKING
 PROCESS            0  OF           24  WORKING
 PROCESS            1  OF           24  WORKING
 PROCESS            2  OF           24  WORKING
 PROCESS            4  OF           24  WORKING
 PROCESS            6  OF           24  WORKING
 PROCESS            7  OF           24  WORKING
 PROCESS            9  OF           24  WORKING
 PROCESS           11  OF           24  WORKING
 PROCESS           13  OF           24  WORKING
 PROCESS           14  OF           24  WORKING
 PROCESS           16  OF           24  WORKING
 PROCESS           20  OF           24  WORKING
 PROCESS           22  OF           24  WORKING
 PROCESS            3  OF           24  WORKING
 PROCESS            5  OF           24  WORKING
 PROCESS            8  OF           24  WORKING
 PROCESS           10  OF           24  WORKING
 PROCESS           23  OF           24  WORKING
 PROCESS           15  OF           24  WORKING
 PROCESS           18  OF           24  WORKING
 PROCESS           19  OF           24  WORKING

         
 *******************************************************************************
 *                                                                             *
 *                               CRYSTAL17                                     *
 *                      public : 1.0.2 - March 1st, 2018                       *
 *                       HTTP://WWW.CRYSTAL.UNITO.IT                           *
 *                                                                             *
 *                              MAIN AUTHORS                                   *
 *                                                                             *
 *  R. DOVESI(1,11), V.R. SAUNDERS(2), C. ROETTI(1,11), R. ORLANDO(1,11),      *
 *  C.M. ZICOVICH-WILSON(1,3), F. PASCALE(4), B. CIVALLERI(1,11),              *
 *  K. DOLL(5), N.M. HARRISON(2,6), I.J. BUSH(7), Ph. D'ARCO(8),               *
 *  M. LLUNELL(9), M. CAUSA'(10), Y. NOEL(8), L. MASCHIO(1,11), A. ERBA(1,11)  *
 *  M. RE'RAT(14), S. CASASSA(1,11)                                            *
 *                                                                             *
 *        CONTRIBUTIONS TO THE CODE HAVE ALSO BEEN GIVEN BY                    *
 *                                                                             *
 *  M. FERRABONE(1,11), M. DE LA PIERRE(1,11), M. FERRERO(1,11),               *
 *  J. BAIMA(1,11), E. ALBANESE(1,11), M.F. PEINTINGER(12), R. BAST(13),       *
 *  B. KIRTMAN(15), V. LACIVITA(1,11), R. DEMICHELIS(1,16)                     *
 *  G. BRANDEBURG(17), S. SALUSTRO(1,11), G. SANSONE(1,11)                     *
 *  M.T. RUGGIERO(18)                                                          *
 *                                                                             *
 * (1) THEORETICAL CHEMISTRY GROUP - UNIVERSITA' DI TORINO - TORINO (ITALY)    *
 * (2) COMPUTATIONAL SCIENCE & ENGINEERING DEPARTMENT - STFC DARESBURY (UK)    *
 * (3) UNIVERSIDAD AUTONOMA DEL ESTADO DE MORELOS - CUERNAVACA (MEXICO)        *
 * (4) UNIVERSITE' DE LORRAINE - NANCY (FRANCE)                                *
 * (5) UNIVERSITAET STUTTGART- STUTTGART (GERMANY)                             *
 * (6) IMPERIAL COLLEGE - LONDON (UK)                                          *
 * (7) OXFORD E-RESEARCH CENTRE - OXFORD (UK)                                  *
 * (8) UPMC - SORBONNE UNIVERSITES - PARIS (FRANCE)                            *
 * (9) UNIVERSIDAD DE BARCELONA - BARCELONA (SPAIN)                            *
 *(10) UNIVERSITA' DI NAPOLI "FEDERICO II" - NAPOLI (ITALY)                    *
 *(11) NIS - NANOSTRUCTURED INTERFACES AND SURFACES - TORINO (ITALY)           *
 *(12) MPI FUER CHEMISCHE ENERGIEKONVERSION - MUELHEIM AN DER RUHR (GERMANY)   *
 *(13) UNIVERSITY OF TROMSO - TROMSO (NORWAY)                                  *
 *(14) UNIVERSITE' DE PAU ET DES PAYS DE L'ADOUR - PAU (FRANCE)                *
 *(15) UNIVERSITY OF CALIFORNIA SANTA BARBARA - SANTA BARBARA (USA)            *
 *(16) CURTIN UNIVERSITY - PERTH (AUSTRALIA)                                   *
 *(17) UNIVERSITY COLLEGE LONDON - LONDON (UK)                                 *
 *(18) CAMBRIDGE UNIVERSITY - CAMBRIDGE (UK)                                   *
 *                                                                             *
 *******************************************************************************
 EEEEEEEEEE STARTING  DATE 27 11 2023 TIME 11:19:35.7
 Z:\home\sanoj\Downloads\tmp_p\newconn.mol                                       

 CRYSTAL CALCULATION
 (INPUT ACCORDING TO THE INTERNATIONAL TABLES FOR X-RAY CRYSTALLOGRAPHY)
 CRYSTAL FAMILY                       :  TETRAGONAL  
 CRYSTAL CLASS  (GROTH - 1921)        :  TETRAGONAL DISPHENOIDAL              

 SPACE GROUP (NONCENTROSYMMETRIC)     :  I -4            

 LATTICE PARAMETERS  (ANGSTROMS AND DEGREES) - CONVENTIONAL CELL
        A           B           C        ALPHA        BETA       GAMMA
    10.60308    10.60308    12.42053    90.00000    90.00000    90.00000


 NUMBER OF IRREDUCIBLE ATOMS IN THE CONVENTIONAL CELL:   17

 INPUT COORDINATES

 ATOM AT. N.              COORDINATES
   1   1     4.673900000000E-01  7.976500000000E-01  3.931100000000E-01
   2   1     9.346000000000E-02  5.250700000000E-01  3.559500000000E-01
   3   6     2.624900000000E-01  8.013400000000E-01  3.755200000000E-01
   4   6     2.528800000000E-01 -6.168000000000E-02  3.761400000000E-01
   5   6     1.587200000000E-01  7.196800000000E-01  3.657600000000E-01
   6   6     2.968500000000E-01  5.451900000000E-01  3.695500000000E-01
   7   6     3.811300000000E-01  7.420500000000E-01  3.833300000000E-01
   8   6     8.271000000000E-01  4.103700000000E-01  3.630900000000E-01
   9   7     3.477600000000E-01  1.424000000000E-02  3.420200000000E-01
  10   7     3.109900000000E-01  1.368400000000E-01  3.595800000000E-01
  11   7     1.579500000000E-01  1.260000000000E-02  4.124900000000E-01
  12   7     1.970100000000E-01  1.360400000000E-01  4.012600000000E-01
  13   7     3.981300000000E-01  6.168200000000E-01  3.794400000000E-01
  14   9     4.159000000000E-02  7.680000000000E-01  3.589900000000E-01
  15   9     3.145400000000E-01  4.199300000000E-01  3.653700000000E-01
  16  30     0.000000000000E+00  5.000000000000E-01  7.500000000000E-01
  17  30     0.000000000000E+00  0.000000000000E+00  5.000000000000E-01

 *******************************************************************************

 << INFORMATION >>: FROM NOW ON, ALL COORDINATES REFER TO THE PRIMITIVE CELL

 *******************************************************************************

 LATTICE PARAMETERS  (ANGSTROMS AND DEGREES) - PRIMITIVE CELL
       A          B          C        ALPHA      BETA     GAMMA        VOLUME
    9.73550    9.73550    9.73550   114.01116 114.01116 100.72940    698.190803

 COORDINATES OF THE EQUIVALENT ATOMS (FRACTIONAL UNITS)

 N. ATOM EQUIV AT. N.          X                  Y                  Z

   1   1   1    1 H     1.90760000000E-01 -1.39500000000E-01  2.65040000000E-01
   2   1   2    1 H    -4.04540000000E-01 -7.42800000000E-02 -2.65040000000E-01
   3   1   3    1 H     1.39500000000E-01  4.04540000000E-01  3.30260000000E-01
   4   1   4    1 H     7.42800000000E-02 -1.90760000000E-01 -3.30260000000E-01

   5   2   1    1 H    -1.18980000000E-01  4.49410000000E-01 -3.81470000000E-01
   6   2   2    1 H    -1.69120000000E-01  2.62490000000E-01  3.81470000000E-01
   7   2   3    1 H    -4.49410000000E-01  1.69120000000E-01  4.31610000000E-01
   8   2   4    1 H    -2.62490000000E-01  1.18980000000E-01 -4.31610000000E-01

   9   3   1    6 C     1.76860000000E-01 -3.61990000000E-01  6.38300000000E-02
  10   3   2    6 C    -4.25820000000E-01  1.13030000000E-01 -6.38300000000E-02
  11   3   3    6 C     3.61990000000E-01  4.25820000000E-01 -4.61150000000E-01
  12   3   4    6 C    -1.13030000000E-01 -1.76860000000E-01  4.61150000000E-01

  13   4   1    6 C     3.14460000000E-01 -3.70980000000E-01  1.91200000000E-01
  14   4   2    6 C     4.37820000000E-01  1.23260000000E-01 -1.91200000000E-01
  15   4   3    6 C     3.70980000000E-01 -4.37820000000E-01 -3.14560000000E-01
  16   4   4    6 C    -1.23260000000E-01 -3.14460000000E-01  3.14560000000E-01

  17   5   1    6 C     8.54400000000E-02 -4.75520000000E-01 -1.21600000000E-01
  18   5   2    6 C    -3.53920000000E-01  2.07040000000E-01  1.21600000000E-01
  19   5   3    6 C     4.75520000000E-01  3.53920000000E-01 -4.39040000000E-01
  20   5   4    6 C    -2.07040000000E-01 -8.54400000000E-02  4.39040000000E-01

  21   6   1    6 C    -8.52600000000E-02 -3.33600000000E-01 -1.57960000000E-01
  22   6   2    6 C    -1.75640000000E-01  7.27000000000E-02  1.57960000000E-01
  23   6   3    6 C     3.33600000000E-01  1.75640000000E-01  2.48340000000E-01
  24   6   4    6 C    -7.27000000000E-02  8.52600000000E-02 -2.48340000000E-01

  25   7   1    6 C     1.25380000000E-01 -2.35540000000E-01  1.23180000000E-01
  26   7   2    6 C    -3.58720000000E-01  2.20000000000E-03 -1.23180000000E-01
  27   7   3    6 C     2.35540000000E-01  3.58720000000E-01  3.60920000000E-01
  28   7   4    6 C    -2.20000000000E-03 -1.25380000000E-01 -3.60920000000E-01

  29   8   1    6 C    -2.26540000000E-01  1.90190000000E-01  2.37470000000E-01
  30   8   2    6 C    -4.72800000000E-02 -4.64010000000E-01 -2.37470000000E-01
  31   8   3    6 C    -1.90190000000E-01  4.72800000000E-02 -4.16730000000E-01
  32   8   4    6 C     4.64010000000E-01  2.26540000000E-01  4.16730000000E-01

  33   9   1    7 N     3.56260000000E-01 -3.10220000000E-01  3.62000000000E-01
  34   9   2    7 N     3.27780000000E-01 -5.74000000000E-03 -3.62000000000E-01
  35   9   3    7 N     3.10220000000E-01 -3.27780000000E-01 -3.33520000000E-01
  36   9   4    7 N     5.74000000000E-03 -3.56260000000E-01  3.33520000000E-01

  37  10   1    7 N     4.96420000000E-01 -3.29430000000E-01  4.47830000000E-01
  38  10   2    7 N     2.22740000000E-01  4.85900000000E-02 -4.47830000000E-01
  39  10   3    7 N     3.29430000000E-01 -2.22740000000E-01 -1.74150000000E-01
  40  10   4    7 N    -4.85900000000E-02 -4.96420000000E-01  1.74150000000E-01

  41  11   1    7 N     4.25090000000E-01 -4.29560000000E-01  1.70550000000E-01
  42  11   2    7 N     3.99890000000E-01  2.54540000000E-01 -1.70550000000E-01
  43  11   3    7 N     4.29560000000E-01 -3.99890000000E-01 -1.45350000000E-01
  44  11   4    7 N    -2.54540000000E-01 -4.25090000000E-01  1.45350000000E-01

  45  12   1    7 N    -4.62700000000E-01 -4.01730000000E-01  3.33050000000E-01
  46  12   2    7 N     2.65220000000E-01  2.04250000000E-01 -3.33050000000E-01
  47  12   3    7 N     4.01730000000E-01 -2.65220000000E-01 -6.09700000000E-02
  48  12   4    7 N    -2.04250000000E-01  4.62700000000E-01  6.09700000000E-02

  49  13   1    7 N    -3.74000000000E-03 -2.22430000000E-01  1.49500000000E-02
  50  13   2    7 N    -2.37380000000E-01 -1.86900000000E-02 -1.49500000000E-02
  51  13   3    7 N     2.22430000000E-01  2.37380000000E-01  2.18690000000E-01
  52  13   4    7 N     1.86900000000E-02  3.74000000000E-03 -2.18690000000E-01

  53  14   1    9 F     1.26990000000E-01  4.00580000000E-01 -1.90410000000E-01
  54  14   2    9 F    -4.09010000000E-01  3.17400000000E-01  1.90410000000E-01
  55  14   3    9 F    -4.00580000000E-01  4.09010000000E-01 -2.73590000000E-01
  56  14   4    9 F    -3.17400000000E-01 -1.26990000000E-01  2.73590000000E-01

  57  15   1    9 F    -2.14700000000E-01 -3.20090000000E-01 -2.65530000000E-01
  58  15   2    9 F    -5.45600000000E-02  5.08300000000E-02  2.65530000000E-01
  59  15   3    9 F     3.20090000000E-01  5.45600000000E-02  1.05390000000E-01
  60  15   4    9 F    -5.08300000000E-02  2.14700000000E-01 -1.05390000000E-01

  61  16   1   30 ZN    2.50000000000E-01 -2.50000000000E-01 -5.00000000000E-01

  62  17   1   30 ZN   -5.00000000000E-01 -5.00000000000E-01  0.00000000000E+00

 NUMBER OF SYMMETRY OPERATORS         :    4
 *******************************************************************************
 * GEOMETRY EDITING - INPUT COORDINATES ARE GIVEN IN ANGSTROM         
 *******************************************************************************

 GEOMETRY NOW FULLY CONSISTENT WITH THE GROUP

 GCALCO - MAX INDICES DIRECT LATTICE VECTOR    14    14    16
 NO.OF VECTORS CREATED 6999 STARS  486 RMAX   199.67157 BOHR

 GEOMETRY FOR WAVE FUNCTION - DIMENSIONALITY OF THE SYSTEM    3
 (NON PERIODIC DIRECTION: LATTICE PARAMETER FORMALLY SET TO 500)
 *******************************************************************************
 LATTICE PARAMETERS (ANGSTROMS AND DEGREES) - BOHR = 0.5291772083 ANGSTROM
 PRIMITIVE CELL - CENTRING CODE 6/0 VOLUME=   698.190803 - DENSITY  2.036 g/cm^3
         A              B              C           ALPHA      BETA       GAMMA 
     9.73550358     9.73550358     9.73550358   114.011163 114.011163 100.729398
 *******************************************************************************
 ATOMS IN THE ASYMMETRIC UNIT   17 - ATOMS IN THE UNIT CELL:   62
     ATOM                 X/A                 Y/B                 Z/C    
 *******************************************************************************
      1 T   1 H     1.907600000000E-01 -1.395000000000E-01  2.650400000000E-01
      2 F   1 H    -4.045400000000E-01 -7.428000000000E-02 -2.650400000000E-01
      3 F   1 H     1.395000000000E-01  4.045400000000E-01  3.302600000000E-01
      4 F   1 H     7.428000000000E-02 -1.907600000000E-01 -3.302600000000E-01
      5 T   1 H    -1.189800000000E-01  4.494100000000E-01 -3.814700000000E-01
      6 F   1 H    -1.691200000000E-01  2.624900000000E-01  3.814700000000E-01
      7 F   1 H    -4.494100000000E-01  1.691200000000E-01  4.316100000000E-01
      8 F   1 H    -2.624900000000E-01  1.189800000000E-01 -4.316100000000E-01
      9 T   6 C     1.768600000000E-01 -3.619900000000E-01  6.383000000000E-02
     10 F   6 C    -4.258200000000E-01  1.130300000000E-01 -6.383000000000E-02
     11 F   6 C     3.619900000000E-01  4.258200000000E-01 -4.611500000000E-01
     12 F   6 C    -1.130300000000E-01 -1.768600000000E-01  4.611500000000E-01
     13 T   6 C     3.144600000000E-01 -3.709800000000E-01  1.912000000000E-01
     14 F   6 C     4.378200000000E-01  1.232600000000E-01 -1.912000000000E-01
     15 F   6 C     3.709800000000E-01 -4.378200000000E-01 -3.145600000000E-01
     16 F   6 C    -1.232600000000E-01 -3.144600000000E-01  3.145600000000E-01
     17 T   6 C     8.544000000000E-02 -4.755200000000E-01 -1.216000000000E-01
     18 F   6 C    -3.539200000000E-01  2.070400000000E-01  1.216000000000E-01
     19 F   6 C     4.755200000000E-01  3.539200000000E-01 -4.390400000000E-01
     20 F   6 C    -2.070400000000E-01 -8.544000000000E-02  4.390400000000E-01
     21 T   6 C    -8.526000000000E-02 -3.336000000000E-01 -1.579600000000E-01
     22 F   6 C    -1.756400000000E-01  7.270000000000E-02  1.579600000000E-01
     23 F   6 C     3.336000000000E-01  1.756400000000E-01  2.483400000000E-01
     24 F   6 C    -7.270000000000E-02  8.526000000000E-02 -2.483400000000E-01
     25 T   6 C     1.253800000000E-01 -2.355400000000E-01  1.231800000000E-01
     26 F   6 C    -3.587200000000E-01  2.200000000000E-03 -1.231800000000E-01
     27 F   6 C     2.355400000000E-01  3.587200000000E-01  3.609200000000E-01
     28 F   6 C    -2.200000000000E-03 -1.253800000000E-01 -3.609200000000E-01
     29 T   6 C    -2.265400000000E-01  1.901900000000E-01  2.374700000000E-01
     30 F   6 C    -4.728000000000E-02 -4.640100000000E-01 -2.374700000000E-01
     31 F   6 C    -1.901900000000E-01  4.728000000000E-02 -4.167300000000E-01
     32 F   6 C     4.640100000000E-01  2.265400000000E-01  4.167300000000E-01
     33 T   7 N     3.562600000000E-01 -3.102200000000E-01  3.620000000000E-01
     34 F   7 N     3.277800000000E-01 -5.740000000000E-03 -3.620000000000E-01
     35 F   7 N     3.102200000000E-01 -3.277800000000E-01 -3.335200000000E-01
     36 F   7 N     5.740000000000E-03 -3.562600000000E-01  3.335200000000E-01
     37 T   7 N     4.964200000000E-01 -3.294300000000E-01  4.478300000000E-01
     38 F   7 N     2.227400000000E-01  4.859000000000E-02 -4.478300000000E-01
     39 F   7 N     3.294300000000E-01 -2.227400000000E-01 -1.741500000000E-01
     40 F   7 N    -4.859000000000E-02 -4.964200000000E-01  1.741500000000E-01
     41 T   7 N     4.250900000000E-01 -4.295600000000E-01  1.705500000000E-01
     42 F   7 N     3.998900000000E-01  2.545400000000E-01 -1.705500000000E-01
     43 F   7 N     4.295600000000E-01 -3.998900000000E-01 -1.453500000000E-01
     44 F   7 N    -2.545400000000E-01 -4.250900000000E-01  1.453500000000E-01
     45 T   7 N    -4.627000000000E-01 -4.017300000000E-01  3.330500000000E-01
     46 F   7 N     2.652200000000E-01  2.042500000000E-01 -3.330500000000E-01
     47 F   7 N     4.017300000000E-01 -2.652200000000E-01 -6.097000000000E-02
     48 F   7 N    -2.042500000000E-01  4.627000000000E-01  6.097000000000E-02
     49 T   7 N    -3.740000000000E-03 -2.224300000000E-01  1.495000000000E-02
     50 F   7 N    -2.373800000000E-01 -1.869000000000E-02 -1.495000000000E-02
     51 F   7 N     2.224300000000E-01  2.373800000000E-01  2.186900000000E-01
     52 F   7 N     1.869000000000E-02  3.740000000000E-03 -2.186900000000E-01
     53 T   9 F     1.269900000000E-01  4.005800000000E-01 -1.904100000000E-01
     54 F   9 F    -4.090100000000E-01  3.174000000000E-01  1.904100000000E-01
     55 F   9 F    -4.005800000000E-01  4.090100000000E-01 -2.735900000000E-01
     56 F   9 F    -3.174000000000E-01 -1.269900000000E-01  2.735900000000E-01
     57 T   9 F    -2.147000000000E-01 -3.200900000000E-01 -2.655300000000E-01
     58 F   9 F    -5.456000000000E-02  5.083000000000E-02  2.655300000000E-01
     59 F   9 F     3.200900000000E-01  5.456000000000E-02  1.053900000000E-01
     60 F   9 F    -5.083000000000E-02  2.147000000000E-01 -1.053900000000E-01
     61 T  30 ZN    2.500000000000E-01 -2.500000000000E-01  5.000000000000E-01
     62 T  30 ZN    5.000000000000E-01  5.000000000000E-01  0.000000000000E+00

 TRANSFORMATION MATRIX PRIMITIVE-CRYSTALLOGRAPHIC CELL
  0.0000  1.0000  1.0000  1.0000  0.0000  1.0000  1.0000  1.0000  0.0000

 *******************************************************************************
 CRYSTALLOGRAPHIC CELL (VOLUME=       1396.38160687)
         A              B              C           ALPHA      BETA       GAMMA 
    10.60307975    10.60307975    12.42052816    90.000000  90.000000  90.000000

 COORDINATES IN THE CRYSTALLOGRAPHIC CELL
     ATOM                 X/A                 Y/B                 Z/C    
 *******************************************************************************
      1 T   1 H    -3.261000000000E-02  2.976500000000E-01 -1.068900000000E-01
      2 F   1 H     3.261000000000E-02 -2.976500000000E-01 -1.068900000000E-01
      3 F   1 H     2.976500000000E-01  3.261000000000E-02  1.068900000000E-01
      4 F   1 H    -2.976500000000E-01 -3.261000000000E-02  1.068900000000E-01
      5 T   1 H    -4.065400000000E-01  2.507000000000E-02 -1.440500000000E-01
      6 F   1 H     4.065400000000E-01 -2.507000000000E-02 -1.440500000000E-01
      7 F   1 H     2.507000000000E-02  4.065400000000E-01  1.440500000000E-01
      8 F   1 H    -2.507000000000E-02 -4.065400000000E-01  1.440500000000E-01
      9 T   6 C    -2.375100000000E-01  3.013400000000E-01 -1.244800000000E-01
     10 F   6 C     2.375100000000E-01 -3.013400000000E-01 -1.244800000000E-01
     11 F   6 C     3.013400000000E-01  2.375100000000E-01  1.244800000000E-01
     12 F   6 C    -3.013400000000E-01 -2.375100000000E-01  1.244800000000E-01
     13 T   6 C     2.528800000000E-01 -6.168000000000E-02  3.761400000000E-01
     14 F   6 C    -2.528800000000E-01  6.168000000000E-02  3.761400000000E-01
     15 F   6 C    -6.168000000000E-02 -2.528800000000E-01 -3.761400000000E-01
     16 F   6 C     6.168000000000E-02  2.528800000000E-01 -3.761400000000E-01
     17 T   6 C    -3.412800000000E-01  2.196800000000E-01 -1.342400000000E-01
     18 F   6 C     3.412800000000E-01 -2.196800000000E-01 -1.342400000000E-01
     19 F   6 C     2.196800000000E-01  3.412800000000E-01  1.342400000000E-01
     20 F   6 C    -2.196800000000E-01 -3.412800000000E-01  1.342400000000E-01
     21 T   6 C    -2.031500000000E-01  4.519000000000E-02 -1.304500000000E-01
     22 F   6 C     2.031500000000E-01 -4.519000000000E-02 -1.304500000000E-01
     23 F   6 C     4.519000000000E-02  2.031500000000E-01  1.304500000000E-01
     24 F   6 C    -4.519000000000E-02 -2.031500000000E-01  1.304500000000E-01
     25 T   6 C    -1.188700000000E-01  2.420500000000E-01 -1.166700000000E-01
     26 F   6 C     1.188700000000E-01 -2.420500000000E-01 -1.166700000000E-01
     27 F   6 C     2.420500000000E-01  1.188700000000E-01  1.166700000000E-01
     28 F   6 C    -2.420500000000E-01 -1.188700000000E-01  1.166700000000E-01
     29 T   6 C     3.271000000000E-01 -8.963000000000E-02 -1.369100000000E-01
     30 F   6 C    -3.271000000000E-01  8.963000000000E-02 -1.369100000000E-01
     31 F   6 C    -8.963000000000E-02 -3.271000000000E-01  1.369100000000E-01
     32 F   6 C     8.963000000000E-02  3.271000000000E-01  1.369100000000E-01
     33 T   7 N     3.477600000000E-01  1.424000000000E-02  3.420200000000E-01
     34 F   7 N    -3.477600000000E-01 -1.424000000000E-02  3.420200000000E-01
     35 F   7 N     1.424000000000E-02 -3.477600000000E-01 -3.420200000000E-01
     36 F   7 N    -1.424000000000E-02  3.477600000000E-01 -3.420200000000E-01
     37 T   7 N    -1.890100000000E-01 -3.631600000000E-01 -1.404200000000E-01
     38 F   7 N     1.890100000000E-01  3.631600000000E-01 -1.404200000000E-01
     39 F   7 N    -3.631600000000E-01  1.890100000000E-01  1.404200000000E-01
     40 F   7 N     3.631600000000E-01 -1.890100000000E-01  1.404200000000E-01
     41 T   7 N     1.579500000000E-01  1.260000000000E-02  4.124900000000E-01
     42 F   7 N    -1.579500000000E-01 -1.260000000000E-02  4.124900000000E-01
     43 F   7 N     1.260000000000E-02 -1.579500000000E-01 -4.124900000000E-01
     44 F   7 N    -1.260000000000E-02  1.579500000000E-01 -4.124900000000E-01
     45 T   7 N    -3.029900000000E-01 -3.639600000000E-01 -9.874000000000E-02
     46 F   7 N     3.029900000000E-01  3.639600000000E-01 -9.874000000000E-02
     47 F   7 N    -3.639600000000E-01  3.029900000000E-01  9.874000000000E-02
     48 F   7 N     3.639600000000E-01 -3.029900000000E-01  9.874000000000E-02
     49 T   7 N    -1.018700000000E-01  1.168200000000E-01 -1.205600000000E-01
     50 F   7 N     1.018700000000E-01 -1.168200000000E-01 -1.205600000000E-01
     51 F   7 N     1.168200000000E-01  1.018700000000E-01  1.205600000000E-01
     52 F   7 N    -1.168200000000E-01 -1.018700000000E-01  1.205600000000E-01
     53 T   9 F     4.159000000000E-02 -2.320000000000E-01  3.589900000000E-01
     54 F   9 F    -4.159000000000E-02  2.320000000000E-01  3.589900000000E-01
     55 F   9 F    -2.320000000000E-01 -4.159000000000E-02 -3.589900000000E-01
     56 F   9 F     2.320000000000E-01  4.159000000000E-02 -3.589900000000E-01
     57 T   9 F    -1.854600000000E-01 -8.007000000000E-02 -1.346300000000E-01
     58 F   9 F     1.854600000000E-01  8.007000000000E-02 -1.346300000000E-01
     59 F   9 F    -8.007000000000E-02  1.854600000000E-01  1.346300000000E-01
     60 F   9 F     8.007000000000E-02 -1.854600000000E-01  1.346300000000E-01
     61 T  30 ZN    5.000000000000E-01  4.432710002438E-17  2.500000000000E-01
     62 T  30 ZN    0.000000000000E+00  0.000000000000E+00  5.000000000000E-01

 T = ATOM BELONGING TO THE ASYMMETRIC UNIT

 ****    4 SYMMOPS - TRANSLATORS IN FRACTIONAL UNITS
 **** MATRICES AND TRANSLATORS IN THE CRYSTALLOGRAPHIC REFERENCE FRAME
   V INV                    ROTATION MATRICES                   TRANSLATORS
   1   1  1.00  0.00  0.00  0.00  1.00  0.00  0.00  0.00  1.00  0.00  0.00  0.00
   2   2  0.00  1.00 -1.00  1.00  0.00 -1.00  0.00  0.00 -1.00  0.00  0.00  0.00
   3   4  0.00 -1.00  0.00  0.00 -1.00  1.00  1.00 -1.00  0.00  0.00  0.00  0.00
   4   3 -1.00  0.00  1.00 -1.00  0.00  0.00 -1.00  1.00  0.00  0.00  0.00  0.00

 DIRECT LATTICE VECTORS CARTESIAN COMPONENTS (ANGSTROM)
          X                    Y                    Z
  -0.530153987460E+01   0.530153987460E+01   0.621026408105E+01
   0.530153987460E+01  -0.530153987460E+01   0.621026408105E+01
   0.530153987460E+01   0.530153987460E+01  -0.621026408105E+01


 CARTESIAN COORDINATES - PRIMITIVE CELL
 *******************************************************************************
 *      ATOM          X(ANGSTROM)         Y(ANGSTROM)         Z(ANGSTROM)
 *******************************************************************************
    1     1 H    -3.457664306214E-01  3.156006687349E+00 -1.327630255247E+00
    2     1 H     3.457664306214E-01 -3.156006687349E+00 -1.327630255247E+00
    3     1 H     3.156006687349E+00  3.457664306214E-01  1.327630255247E+00
    4     1 H    -3.156006687349E+00 -3.457664306214E-01  1.327630255247E+00
    5     1 H    -4.310576041240E+00  2.658192093124E-01 -1.789177081751E+00
    6     1 H     4.310576041240E+00 -2.658192093124E-01 -1.789177081751E+00
    7     1 H     2.658192093124E-01  4.310576041240E+00  1.789177081751E+00
    8     1 H    -2.658192093124E-01 -4.310576041240E+00  1.789177081751E+00
    9     6 C    -2.518337471232E+00  3.195132051624E+00 -1.546107345618E+00
   10     6 C     2.518337471232E+00 -3.195132051624E+00 -1.546107345618E+00
   11     6 C     3.195132051624E+00  2.518337471232E+00  1.546107345618E+00
   12     6 C    -3.195132051624E+00 -2.518337471232E+00  1.546107345618E+00
   13     6 C     2.681306806978E+00 -6.539979589307E-01  4.671857462892E+00
   14     6 C    -2.681306806978E+00  6.539979589307E-01  4.671857462892E+00
   15     6 C    -6.539979589307E-01 -2.681306806978E+00 -4.671857462892E+00
   16     6 C     6.539979589307E-01  2.681306806978E+00 -4.671857462892E+00
   17     6 C    -3.618619056807E+00  2.329284559304E+00 -1.667331700480E+00
   18     6 C     3.618619056807E+00 -2.329284559304E+00 -1.667331700480E+00
   19     6 C     2.329284559304E+00  3.618619056807E+00  1.667331700480E+00
   20     6 C    -2.329284559304E+00 -3.618619056807E+00  1.667331700480E+00
   21     6 C    -2.154015651050E+00  4.791531738663E-01 -1.620257898746E+00
   22     6 C     2.154015651050E+00 -4.791531738663E-01 -1.620257898746E+00
   23     6 C     4.791531738663E-01  2.154015651050E+00  1.620257898746E+00
   24     6 C    -4.791531738663E-01 -2.154015651050E+00  1.620257898746E+00
   25     6 C    -1.260388089787E+00  2.566475453294E+00 -1.449103020672E+00
   26     6 C     1.260388089787E+00 -2.566475453294E+00 -1.449103020672E+00
   27     6 C     2.566475453294E+00  1.260388089787E+00  1.449103020672E+00
   28     6 C    -2.566475453294E+00 -1.260388089787E+00  1.449103020672E+00
   29     6 C     3.468267385963E+00 -9.503540379208E-01 -1.700494510673E+00
   30     6 C    -3.468267385963E+00  9.503540379208E-01 -1.700494510673E+00
   31     6 C    -9.503540379208E-01 -3.468267385963E+00  1.700494510673E+00
   32     6 C     9.503540379208E-01  3.468267385963E+00  1.700494510673E+00
   33     7 N     3.687327013582E+00  1.509878556286E-01  4.248069042001E+00
   34     7 N    -3.687327013582E+00 -1.509878556286E-01  4.248069042001E+00
   35     7 N     1.509878556286E-01 -3.687327013582E+00 -4.248069042001E+00
   36     7 N    -1.509878556286E-01  3.687327013582E+00 -4.248069042001E+00
   37     7 N    -2.004088103396E+00 -3.850614441719E+00 -1.744090564522E+00
   38     7 N     2.004088103396E+00  3.850614441719E+00 -1.744090564522E+00
   39     7 N    -3.850614441719E+00  2.004088103396E+00  1.744090564522E+00
   40     7 N     3.850614441719E+00 -2.004088103396E+00  1.744090564522E+00
   41     7 N     1.674756446386E+00  1.335988048399E-01  5.123343661585E+00
   42     7 N    -1.674756446386E+00 -1.335988048399E-01  5.123343661585E+00
   43     7 N     1.335988048399E-01 -1.674756446386E+00 -5.123343661585E+00
   44     7 N    -1.335988048399E-01  1.674756446386E+00 -5.123343661585E+00
   45     7 N    -3.212627133210E+00 -3.859096905519E+00 -1.226402950726E+00
   46     7 N     3.212627133210E+00  3.859096905519E+00 -1.226402950726E+00
   47     7 N    -3.859096905519E+00  3.212627133210E+00  1.226402950726E+00
   48     7 N     3.859096905519E+00 -3.212627133210E+00  1.226402950726E+00
   49     7 N    -1.080135734051E+00  1.238651776302E+00 -1.497418875223E+00
   50     7 N     1.080135734051E+00 -1.238651776302E+00 -1.497418875223E+00
   51     7 N     1.238651776302E+00  1.080135734051E+00  1.497418875223E+00
   52     7 N    -1.238651776302E+00 -1.080135734051E+00  1.497418875223E+00
   53     9 F     4.409820867692E-01 -2.459914501814E+00  4.458845404912E+00
   54     9 F    -4.409820867692E-01  2.459914501814E+00  4.458845404912E+00
   55     9 F    -2.459914501814E+00 -4.409820867692E-01 -4.458845404912E+00
   56     9 F     2.459914501814E+00  4.409820867692E-01 -4.458845404912E+00
   57     9 F    -1.966447170287E+00 -8.489885955184E-01 -1.672175706464E+00
   58     9 F     1.966447170287E+00  8.489885955184E-01 -1.672175706464E+00
   59     9 F    -8.489885955184E-01  1.966447170287E+00  1.672175706464E+00
   60     9 F     8.489885955184E-01 -1.966447170287E+00  1.672175706464E+00
   61    30 ZN    5.301539874600E+00  4.700037766092E-16 -9.315396121575E+00
   62    30 ZN    0.000000000000E+00  0.000000000000E+00  6.210264081050E+00

 *******************************************************************************
 STARTING BASIS SET HANDLING 
 *******************************************************************************

 Loading internal basis set: POB-DZVPP           

 Please cite in your publication:
 Peintinger, M. F., Oliveira, D. V. and Bredow, T. (2013), Generally applicable 
 solid-state Gaussian basis sets, in preparation                                
                                                                                
                    

 *******************************************************************************
 LOCAL ATOMIC FUNCTIONS BASIS SET
 *******************************************************************************
   ATOM   X(AU)   Y(AU)   Z(AU)  N. TYPE  EXPONENT  S COEF   P COEF   D/F/G COEF
 *******************************************************************************
   1 H   -0.653   5.964  -2.509
                                  1 S  
                                         2.263E+01 1.441E-02 0.000E+00 0.000E+00
                                         3.236E+00 1.072E-01 0.000E+00 0.000E+00
                                         7.304E-01 3.846E-01 0.000E+00 0.000E+00
                                  2 S  
                                         1.417E-01 1.000E+00 0.000E+00 0.000E+00
                           3-     5 P  
                                         3.944E-01 0.000E+00 1.000E+00 0.000E+00
                           6-     8 P  
                                         1.006E-01 0.000E+00 1.000E+00 0.000E+00
   2 H    0.653  -5.964  -2.509
   3 H    5.964   0.653   2.509
   4 H   -5.964  -0.653   2.509
   5 H   -8.146   0.502  -3.381
   6 H    8.146  -0.502  -3.381
   7 H    0.502   8.146   3.381
   8 H   -0.502  -8.146   3.381
   9 C   -4.759   6.038  -2.922
                                 65 S  
                                         1.238E+03 5.457E-03 0.000E+00 0.000E+00
                                         1.863E+02 4.064E-02 0.000E+00 0.000E+00
                                         4.225E+01 1.803E-01 0.000E+00 0.000E+00
                                         1.168E+01 4.632E-01 0.000E+00 0.000E+00
                                         3.593E+00 4.409E-01 0.000E+00 0.000E+00
                                 66 S  
                                         5.281E+00 1.000E+00 0.000E+00 0.000E+00
                                 67 S  
                                         4.447E-01 1.000E+00 0.000E+00 0.000E+00
                          68-    70 P  
                                         9.468E+00 0.000E+00 3.839E-02 0.000E+00
                                         2.010E+00 0.000E+00 2.112E-01 0.000E+00
                                         5.477E-01 0.000E+00 5.133E-01 0.000E+00
                          71-    73 P  
                                         1.604E-01 0.000E+00 1.000E+00 0.000E+00
                          74-    78 D  
                                         6.070E-01 0.000E+00 0.000E+00 1.000E+00
                          79-    83 D  
                                         2.939E-01 0.000E+00 0.000E+00 1.000E+00
  10 C    4.759  -6.038  -2.922
  11 C    6.038   4.759   2.922
  12 C   -6.038  -4.759   2.922
  13 C    5.067  -1.236   8.829
  14 C   -5.067   1.236   8.829
  15 C   -1.236  -5.067  -8.829
  16 C    1.236   5.067  -8.829
  17 C   -6.838   4.402  -3.151
  18 C    6.838  -4.402  -3.151
  19 C    4.402   6.838   3.151
  20 C   -4.402  -6.838   3.151
  21 C   -4.070   0.905  -3.062
  22 C    4.070  -0.905  -3.062
  23 C    0.905   4.070   3.062
  24 C   -0.905  -4.070   3.062
  25 C   -2.382   4.850  -2.738
  26 C    2.382  -4.850  -2.738
  27 C    4.850   2.382   2.738
  28 C   -4.850  -2.382   2.738
  29 C    6.554  -1.796  -3.213
  30 C   -6.554   1.796  -3.213
  31 C   -1.796  -6.554   3.213
  32 C    1.796   6.554   3.213
  33 N    6.968   0.285   8.028
                                521 S  
                                         1.713E+03-5.393E-03 0.000E+00 0.000E+00
                                         2.576E+02-4.022E-02 0.000E+00 0.000E+00
                                         5.846E+01-1.793E-01 0.000E+00 0.000E+00
                                         1.620E+01-4.638E-01 0.000E+00 0.000E+00
                                         5.005E+00-4.417E-01 0.000E+00 0.000E+00
                                522 S  
                                         6.217E-01 1.000E+00 0.000E+00 0.000E+00
                                523 S  
                                         2.921E-01 1.000E+00 0.000E+00 0.000E+00
                         524-   526 P  
                                         1.357E+01 0.000E+00-4.007E-02 0.000E+00
                                         2.926E+00 0.000E+00-2.181E-01 0.000E+00
                                         7.993E-01 0.000E+00-5.129E-01 0.000E+00
                         527-   529 P  
                                         2.244E-01 0.000E+00 1.000E+00 0.000E+00
                         530-   534 D  
                                         3.118E-01 0.000E+00 0.000E+00 1.000E+00
  34 N   -6.968  -0.285   8.028
  35 N    0.285  -6.968  -8.028
  36 N   -0.285   6.968  -8.028
  37 N   -3.787  -7.277  -3.296
  38 N    3.787   7.277  -3.296
  39 N   -7.277   3.787   3.296
  40 N    7.277  -3.787   3.296
  41 N    3.165   0.252   9.682
  42 N   -3.165  -0.252   9.682
  43 N    0.252  -3.165  -9.682
  44 N   -0.252   3.165  -9.682
  45 N   -6.071  -7.293  -2.318
  46 N    6.071   7.293  -2.318
  47 N   -7.293   6.071   2.318
  48 N    7.293  -6.071   2.318
  49 N   -2.041   2.341  -2.830
  50 N    2.041  -2.341  -2.830
  51 N    2.341   2.041   2.830
  52 N   -2.341  -2.041   2.830
  53 F    0.833  -4.649   8.426
                                801 S  
                                         2.895E+03-5.341E-03 0.000E+00 0.000E+00
                                         4.354E+02-3.990E-02 0.000E+00 0.000E+00
                                         9.884E+01-1.791E-01 0.000E+00 0.000E+00
                                         2.749E+01-4.676E-01 0.000E+00 0.000E+00
                                         8.541E+00-4.465E-01 0.000E+00 0.000E+00
                                802 S  
                                         1.123E+00 1.000E+00 0.000E+00 0.000E+00
                                803 S  
                                         3.743E-01 1.000E+00 0.000E+00 0.000E+00
                         804-   806 P  
                                         2.270E+01 0.000E+00-4.521E-02 0.000E+00
                                         4.987E+00 0.000E+00-2.375E-01 0.000E+00
                                         1.349E+00 0.000E+00-5.129E-01 0.000E+00
                         807-   809 P  
                                         3.474E-01 0.000E+00 1.000E+00 0.000E+00
                         810-   814 D  
                                         9.203E-01 0.000E+00 0.000E+00 1.000E+00
                         815-   819 D  
                                         3.977E-01 0.000E+00 0.000E+00 1.000E+00
  54 F   -0.833   4.649   8.426
  55 F   -4.649  -0.833  -8.426
  56 F    4.649   0.833  -8.426
  57 F   -3.716  -1.604  -3.160
  58 F    3.716   1.604  -3.160
  59 F   -1.604   3.716   3.160
  60 F    1.604  -3.716   3.160
  61 ZN  10.018   0.000 -17.604
                                953 S  
                                         8.200E+04 1.421E-03 0.000E+00 0.000E+00
                                         1.231E+04 1.089E-02 0.000E+00 0.000E+00
                                         2.801E+03 5.406E-02 0.000E+00 0.000E+00
                                         7.910E+02 1.885E-01 0.000E+00 0.000E+00
                                         2.576E+02 3.835E-01 0.000E+00 0.000E+00
                                         8.881E+01 2.972E-01 0.000E+00 0.000E+00
                                954 S  
                                         1.719E+02-1.105E-01 0.000E+00 0.000E+00
                                         2.030E+01 6.461E-01 0.000E+00 0.000E+00
                                         8.346E+00 4.422E-01 0.000E+00 0.000E+00
                                955 S  
                                         1.485E+01-2.271E-01 0.000E+00 0.000E+00
                                         2.450E+00 7.243E-01 0.000E+00 0.000E+00
                                         9.985E-01 4.484E-01 0.000E+00 0.000E+00
                                956 S  
                                         1.493E+00 1.000E+00 0.000E+00 0.000E+00
                                957 S  
                                         1.830E-01 1.000E+00 0.000E+00 0.000E+00
                         958-   960 P  
                                         1.072E+03 0.000E+00 9.277E-03 0.000E+00
                                         2.527E+02 0.000E+00 6.954E-02 0.000E+00
                                         8.010E+01 0.000E+00 2.716E-01 0.000E+00
                                         2.890E+01 0.000E+00 5.340E-01 0.000E+00
                                         1.077E+01 0.000E+00 3.450E-01 0.000E+00
                         961-   963 P  
                                         5.645E+00 0.000E+00 3.413E-01 0.000E+00
                                         2.168E+00 0.000E+00 5.639E-01 0.000E+00
                                         8.054E-01 0.000E+00 2.368E-01 0.000E+00
                         964-   966 P  
                                         2.721E-01 0.000E+00 1.000E+00 0.000E+00
                         967-   971 D  
                                         5.609E+01 0.000E+00 0.000E+00 2.959E-02
                                         1.575E+01 0.000E+00 0.000E+00 1.587E-01
                                         5.312E+00 0.000E+00 0.000E+00 3.798E-01
                                         1.774E+00 0.000E+00 0.000E+00 4.690E-01
                         972-   976 D  
                                         5.073E-01 0.000E+00 0.000E+00 1.000E+00
                         977-   983 F  
                                         2.814E+00 0.000E+00 0.000E+00 1.000E+00
                         984-   990 F  
                                         1.300E+00 0.000E+00 0.000E+00 1.000E+00
  62 ZN   0.000   0.000  11.736

 *******************************************************************************
 FINISHED BASIS SET HANDLING 
 *******************************************************************************

 INFORMATION **** SET_MPP **** PCRYSTAL CALCULATION
 INFORMATION **** READM2 **** NEW DEFAULT: FOCK/KS MATRIX MIXING SET TO 30 %
 INFORMATION **** READM2 **** NEW DEFAULT: FULL DIRECT SCF MODE
 INFORMATION **** READM2 **** NEW DEFAULT: COULOMB BIPOLAR BUFFER SET TO 32 Mb
 INFORMATION **** READM2 **** NEW DEFAULT: EXCHANGE BIPOLAR BUFFER SET TO 32 Mb

 *******************************************************************************
 NEW DEFAULT: DFT INTEGRATION GRID INCREASED TO XLGRID
 NEW DEFAULT: DIIS ACCELERATOR ACTIVE
 USE KEYWORD NODIIS TO TURN IT OFF
 *******************************************************************************

 INFORMATION **** DFTD3_INPUT **** PERFORM DISPERSION CORRECTION DFT-D3(BJ) IN THE BECKE-JOHNSON DAMPING SCHEME

 PLEASE CITE:
 (1) DFT-D3 Reference
  S. Grimme, J. Antony, S. Ehrlich, and H. Krieg, J. Chem. Phys. 132 (2010), 154104
 (2) BJ-Damping Reference
  S. Grimme, S. Ehrlich, and L. Goerigk, J. Comput. Chem. 32 (2011), 1456-1465
 (3) General DFT-D Review
  S. Grimme, A. Hansen, J. G. Brandenburg, and C. Bannwarth,
  Chem. Rev. 116 (2016), 5105-5154

 INFORMATION **** TOLINTEG **** COULOMB AND EXCHANGE SERIES TOLERANCES MODIFIED
 INFORMATION **** BIPOSIZE **** COULOMB BIPOLAR BUFFER SET TO   100000000
 INFORMATION **** MAXCYCLE **** MAX NUMBER OF SCF CYCLES SET TO          50
 *******************************************************************************
 N. OF ATOMS PER CELL        62  COULOMB OVERLAP TOL         (T1) 10**  -12
 NUMBER OF SHELLS           400  COULOMB PENETRATION TOL     (T2) 10**  -12
 NUMBER OF AO              1028  EXCHANGE OVERLAP TOL        (T3) 10**   20
 N. OF ELECTRONS PER CELL   424  EXCHANGE PSEUDO OVP (F(G))  (T4) 10**   20
 CORE ELECTRONS PER CELL    140  EXCHANGE PSEUDO OVP (P(G))  (T5) 10**   20
 N. OF SYMMETRY OPERATORS     4  POLE ORDER IN MONO ZONE                  4
 *******************************************************************************
 TYPE OF CALCULATION :  RESTRICTED CLOSED SHELL
 KOHN-SHAM HAMILTONIAN

 (EXCHANGE)[CORRELATION] FUNCTIONAL:(PERDEW-BURKE-ERNZERHOF)[PERDEW-BURKE-ERNZERHOF]


 CAPPA:IS1  3;IS2  3;IS3  3; K PTS MONK NET   6; SYMMOPS:K SPACE   8;G SPACE   4

 *******************************************************************************
 MAX NUMBER OF SCF CYCLES      50  CONVERGENCE ON DELTAP        10**-16
 WEIGHT OF F(I) IN F(I+1)      30% CONVERGENCE ON ENERGY        10**- 6
 SHRINK. FACT.(MONKH.)    3  3  3  NUMBER OF K POINTS IN THE IBZ      6
 SHRINKING FACTOR(GILAT NET)    3  NUMBER OF K POINTS(GILAT NET)      6
 *******************************************************************************
 *** K POINTS COORDINATES (OBLIQUE COORDINATES IN UNITS OF IS =  3)
   1-R(  0  0  0)   2-C(  1  0  0)   3-C(  1  1  0)   4-C(  2  1  0)
   5-C(  2  1  1)   6-C(  2  2  1)

 DIRECT LATTICE VECTORS COMPON. (A.U.)     RECIP. LATTICE VECTORS COMPON. (A.U.) 
        X            Y            Z              X            Y            Z
  -10.0184585   10.0184585   11.7356983      0.0000000    0.3135804    0.2676954
   10.0184585  -10.0184585   11.7356983      0.3135804    0.0000000    0.2676954
   10.0184585   10.0184585  -11.7356983      0.3135804    0.3135804    0.0000000

 DISK SPACE FOR EIGENVECTORS (FTN 10)    11624624 REALS

 SYMMETRY ADAPTION OF THE BLOCH FUNCTIONS ENABLED
 TTTTTTTTTTTTTTTTTTTTTTTTTTTTTT gordsh1     TELAPSE       10.00 TCPU        0.05

 MATRIX SIZE: P(G) 1806544, F(G)  904250, P(G) IRR  228665, F(G) IRR  228665
 MAX G-VECTOR INDEX FOR 1- AND 2-ELECTRON INTEGRALS  59

 TTTTTTTTTTTTTTTTTTTTTTTTTTTTTT INPUT       TELAPSE       10.08 TCPU        0.13

 NEIGHBORS OF THE NON-EQUIVALENT ATOMS

 N = NUMBER OF NEIGHBORS AT DISTANCE R
    ATOM  N     R/ANG      R/AU   NEIGHBORS (ATOM LABELS AND CELL INDICES)
   1 H    1     1.0949     2.0691   25 C    0 0 0
   1 H    1     2.0602     3.8932   49 N    0 0 0
   1 H    1     2.1839     4.1269    9 C    0 0 0
   1 H    1     2.4855     4.6969   38 N    0 0 0
   1 H    1     2.6992     5.1007   33 N    0-1 0
   1 H    1     2.7281     5.1553   13 C    0-1 0

   5 H    1     1.0890     2.0579   30 C    0 0 0
   5 H    1     2.0520     3.8777    6 H    0-1-1
   5 H    1     2.1737     4.1076   21 C    0 0 0
   5 H    1     2.1798     4.1192   17 C    0 0 0
   5 H    1     2.5984     4.9102   57 F    0 0 0
   5 H    1     2.6341     4.9778   53 F    0-1 0

   9 C    1     1.4053     2.6557   17 C    0 0 0
   9 C    1     1.4096     2.6638   25 C    0 0 0
   9 C    1     1.4560     2.7514   13 C    0-1 0
   9 C    1     2.1839     4.1269    1 H    0 0 0
   9 C    1     2.3776     4.4931   53 F    0-1 0
   9 C    1     2.4287     4.5896   49 N    0 0 0

  13 C    1     1.3555     2.5615   41 N    0 0 0
  13 C    1     1.3563     2.5631   33 N    0 0 0
  13 C    1     1.4560     2.7514    9 C    0 1 0
  13 C    1     2.2008     4.1588   45 N    1 1 1
  13 C    1     2.2029     4.1628   37 N    1 1 1
  13 C    1     2.4876     4.7008   25 C    0 1 0

  17 C    1     1.3461     2.5438   53 F    0-1 0
  17 C    1     1.3875     2.6220   30 C    0 0 0
  17 C    1     1.4053     2.6557    9 C    0 0 0
  17 C    1     2.1798     4.1192    5 H    0 0 0
  17 C    1     2.3601     4.4600   21 C    0 0 0
  17 C    1     2.3802     4.4978   25 C    0 0 0

  21 C    1     1.3210     2.4964   49 N    0 0 0
  21 C    1     1.3423     2.5366   57 F    0 0 0
  21 C    1     1.3985     2.6427   30 C    0 0 0
  21 C    1     2.1737     4.1076    5 H    0 0 0
  21 C    1     2.2770     4.3029   25 C    0 0 0
  21 C    1     2.3601     4.4600   17 C    0 0 0

  25 C    1     1.0949     2.0691    1 H    0 0 0
  25 C    1     1.3409     2.5339   49 N    0 0 0
  25 C    1     1.4096     2.6638    9 C    0 0 0
  25 C    1     2.2770     4.3029   21 C    0 0 0
  25 C    1     2.3802     4.4978   17 C    0 0 0
  25 C    1     2.4876     4.7008   13 C    0-1 0

  29 C    1     1.0890     2.0579    6 H    0 0 0
  29 C    1     1.3875     2.6220   18 C    0 0 0
  29 C    1     1.3985     2.6427   22 C    0 0 0
  29 C    1     2.3439     4.4293   58 F    0 0 0
  29 C    1     2.3490     4.4390   54 F   -1 0 0
  29 C    1     2.4140     4.5619   50 N    0 0 0

  33 N    1     1.3563     2.5631   13 C    0 0 0
  33 N    1     1.3746     2.5975   37 N    1 1 1
  33 N    1     1.9836     3.7485   61 ZN   1 1 0
  33 N    1     2.1827     4.1247   45 N    1 1 1
  33 N    1     2.1947     4.1474   41 N    0 0 0
  33 N    1     2.4671     4.6621    9 C    0 1 0

  37 N    1     1.3148     2.4846   45 N    0 0 0
  37 N    1     1.3746     2.5975   33 N   -1-1-1
  37 N    1     2.1910     4.1403   41 N   -1-1-1
  37 N    1     2.2029     4.1628   13 C   -1-1-1
  37 N    1     2.4855     4.6969    2 H    0 0 0
  37 N    1     2.8238     5.3363   61 ZN   0 0-1

  41 N    1     1.3555     2.5615   13 C    0 0 0
  41 N    1     1.3799     2.6076   45 N    1 1 1
  41 N    1     2.0010     3.7814   62 ZN   0 0 0
  41 N    1     2.1910     4.1403   37 N    1 1 1
  41 N    1     2.1947     4.1474   33 N    0 0 0
  41 N    1     2.5411     4.8020    9 C    0 1 0

  45 N    1     1.3148     2.4846   37 N    0 0 0
  45 N    1     1.3799     2.6076   41 N   -1-1-1
  45 N    1     2.1827     4.1247   33 N   -1-1-1
  45 N    1     2.2008     4.1588   13 C   -1-1-1
  45 N    1     2.7769     5.2476   54 F   -1-1-1
  45 N    1     2.8193     5.3276   62 ZN  -1-1-1

  49 N    1     1.3210     2.4964   21 C    0 0 0
  49 N    1     1.3409     2.5339   25 C    0 0 0
  49 N    1     2.0602     3.8932    1 H    0 0 0
  49 N    1     2.2747     4.2986   57 F    0 0 0
  49 N    1     2.4140     4.5619   30 C    0 0 0
  49 N    1     2.4287     4.5896    9 C    0 0 0

  53 F    1     1.3461     2.5438   17 C    0 1 0
  53 F    1     2.3490     4.4390   30 C    0 1 0
  53 F    1     2.3776     4.4931    9 C    0 1 0
  53 F    1     2.6341     4.9778    5 H    0 1 0
  53 F    1     2.7769     5.2476   46 N    0 0-1
  53 F    1     2.8593     5.4033   60 F    0 0 0

  57 F    1     1.3423     2.5366   21 C    0 0 0
  57 F    1     2.2747     4.2986   49 N    0 0 0
  57 F    1     2.3439     4.4293   30 C    0 0 0
  57 F    1     2.5984     4.9102    5 H    0 0 0
  57 F    1     2.8593     5.4033   55 F    0 0 0
  57 F    1     3.0027     5.6743   37 N    0 0 0

  61 ZN   4     1.9836     3.7485   33 N   -1-1 0   34 N   -1 0 1   35 N    0 0 1
                                    36 N   -1 0 0
  61 ZN   4     2.8076     5.3055    1 H   -1 0 0    2 H    0 0 1    3 H   -1-1 0
                                     4 H   -1 0 1
  61 ZN   4     2.8238     5.3363   37 N    0 0 1   38 N   -1 0 0   39 N   -1 0 1
                                    40 N   -1-1 0
  61 ZN   4     3.1222     5.9001   13 C   -1-1 0   14 C   -1 0 1   15 C    0 0 1
                                    16 C   -1 0 0
  61 ZN   4     3.4368     6.4946   25 C   -1 0 0   26 C    0 0 1   27 C   -1-1 0
                                    28 C   -1 0 1
  61 ZN   4     3.6345     6.8682    9 C   -1 0 0   10 C    0 0 1   11 C   -1-1 0
                                    12 C   -1 0 1

  62 ZN   4     2.0010     3.7814   41 N    0 0 0   42 N    0 0 0   43 N    1 1 0
                                    44 N    1 1 0
  62 ZN   4     2.8193     5.3276   45 N    1 1 1   46 N    0 0-1   47 N    0 1 0
                                    48 N    1 0 0
  62 ZN   4     3.0517     5.7670   53 F    0 0 0   54 F    0 0 0   55 F    1 1 0
                                    56 F    1 1 0
  62 ZN   4     3.1597     5.9710   13 C    0 0 0   14 C    0 0 0   15 C    1 1 0
                                    16 C    1 1 0
  62 ZN   4     3.8009     7.1826   17 C    0 1 0   18 C    1 0 0   19 C    0 0-1
                                    20 C    1 1 1
  62 ZN   4     3.8175     7.2141    9 C    0 1 0   10 C    1 0 0   11 C    0 0-1
                                    12 C    1 1 1


 SYMMETRY ALLOWED INTERNAL DEGREE(S) OF FREEDOM:  45
 TTTTTTTTTTTTTTTTTTTTTTTTTTTTTT SYMM        TELAPSE       12.99 TCPU        3.00
 TTTTTTTTTTTTTTTTTTTTTTTTTTTTTT INT_SCREEN  TELAPSE       13.05 TCPU        3.03
 INFORMATION **** EXCBUF **** EXCH. BIPO BUFFER: WORDS USED =           0

 DFT PARAMETERS

     ATOM       ELECTRONS   NET CHARGE   R(ANGSTROM)
   1   1  H       1.0000      0.0000     1.11000000
   9   6  C       6.0000      0.0000     0.77000000
  33   7  N       7.0000      0.0000     0.74000000
  53   9  F       9.0000      0.0000     0.72000000
  61  30  ZN     30.0000      0.0000     1.37000000

 SIZE OF GRID=     475595
 TTTTTTTTTTTTTTTTTTTTTTTTTTTTTT MAKE_GRID2  TELAPSE       16.41 TCPU        6.36
 BECKE WEIGHT FUNCTION
 RADSAFE =     2.00
 TOLERANCES - DENSITY:10**- 6; POTENTIAL:10**- 9; GRID WGT:10**-14

 RADIAL INTEGRATION  - INTERVALS (POINTS,UPPER LIMIT):            1( 75,  4.0*R)

 ANGULAR INTEGRATION - INTERVALS (ACCURACY LEVEL [N. POINTS] UPPER LIMIT):
  1(  4[  86]   0.2)  2(  8[ 194]   0.5)  3( 12[ 350]   0.9)  4( 16[ 974]   3.5)
  5( 12[ 350]9999.0)
 TTTTTTTTTTTTTTTTTTTTTTTTTTTTTT INT_CALC    TELAPSE       16.47 TCPU        6.40
 EEEEEEEEEE INT_CALC TERMINATION  DATE 27 11 2023 TIME 11:19:52.1

 *******************************************************************************
 Z:\home\sanoj\Downloads\tmp_p\newconn.mol                                       
 CRYSTAL - SCF - TYPE OF CALCULATION :  RESTRICTED CLOSED SHELL
 *******************************************************************************

 CAPPA:IS1  3;IS2  3;IS3  3; K PTS MONK NET   6; SYMMOPS:K SPACE   8;G SPACE   4

 TTTTTTTTTTTTTTTTTTTTTTTTTTTTTT SDIK        TELAPSE       16.69 TCPU        6.63

 AAAAAAAAAAAAAAAAAAAAAAAAAAAAAAAAAAAAAAAAAAAAAAAAAAAAAAAAAAAAAAAAAAAAAAAAAAAAAAA
         ATOMIC WAVEFUNCTION(S)


 NUCLEAR CHARGE  1.0  SYMMETRY SPECIES            S
 N. ELECTRONS    1.0  NUMBER OF PRIMITIVE GTOS    4
                      NUMBER OF CONTRACTED GTOS   2
                      NUMBER OF CLOSED SHELLS     0
                      OPEN SHELL OCCUPATION       1

  ZNUC SCFIT  TOTAL HF ENERGY   KINETIC ENERGY   VIRIAL THEOREM ACCURACY
   1.0   1   -4.946643675E-01  4.917913167E-01 -2.005842012E+00  9.4E-17

 NUCLEAR CHARGE  6.0  SYMMETRY SPECIES            S    P
 N. ELECTRONS    6.0  NUMBER OF PRIMITIVE GTOS    7    4
                      NUMBER OF CONTRACTED GTOS   3    2
                      NUMBER OF CLOSED SHELLS     2    0
                      OPEN SHELL OCCUPATION       0    2

  ZNUC SCFIT  TOTAL HF ENERGY   KINETIC ENERGY   VIRIAL THEOREM ACCURACY
   6.0   6   -3.750912652E+01  3.905246519E+01 -1.960480378E+00  3.7E-06

 NUCLEAR CHARGE  7.0  SYMMETRY SPECIES            S    P
 N. ELECTRONS    7.0  NUMBER OF PRIMITIVE GTOS    7    4
                      NUMBER OF CONTRACTED GTOS   3    2
                      NUMBER OF CLOSED SHELLS     2    0
                      OPEN SHELL OCCUPATION       0    3

  ZNUC SCFIT  TOTAL HF ENERGY   KINETIC ENERGY   VIRIAL THEOREM ACCURACY
   7.0   9   -5.432196661E+01  5.425066284E+01 -2.001314339E+00  1.2E-06

 NUCLEAR CHARGE  9.0  SYMMETRY SPECIES            S    P
 N. ELECTRONS    9.0  NUMBER OF PRIMITIVE GTOS    7    4
                      NUMBER OF CONTRACTED GTOS   3    2
                      NUMBER OF CLOSED SHELLS     2    0
                      OPEN SHELL OCCUPATION       0    5

  ZNUC SCFIT  TOTAL HF ENERGY   KINETIC ENERGY   VIRIAL THEOREM ACCURACY
   9.0  14   -9.927886620E+01  9.927374065E+01 -2.000051630E+00  4.0E-06

 NUCLEAR CHARGE 30.0  SYMMETRY SPECIES            S    P    D
 N. ELECTRONS   30.0  NUMBER OF PRIMITIVE GTOS   14    9    5
                      NUMBER OF CONTRACTED GTOS   5    3    2
                      NUMBER OF CLOSED SHELLS     4    2    1
                      OPEN SHELL OCCUPATION       0    0    0

  ZNUC SCFIT  TOTAL HF ENERGY   KINETIC ENERGY   VIRIAL THEOREM ACCURACY
  30.0  10   -1.777404290E+03  1.777325716E+03 -2.000044209E+00  2.5E-06

 AAAAAAAAAAAAAAAAAAAAAAAAAAAAAAAAAAAAAAAAAAAAAAAAAAAAAAAAAAAAAAAAAAAAAAAAAAAAAAA

 TOTAL ATOMIC CHARGES:
   1.0000000   1.0000000   1.0000000   1.0000000   1.0000000   1.0000000
   1.0000000   1.0000000   6.0000000   6.0000000   6.0000000   6.0000000
   6.0000000   6.0000000   6.0000000   6.0000000   6.0000000   6.0000000
   6.0000000   6.0000000   6.0000000   6.0000000   6.0000000   6.0000000
   6.0000000   6.0000000   6.0000000   6.0000000   6.0000000   6.0000000
   6.0000000   6.0000000   7.0000000   7.0000000   7.0000000   7.0000000
   7.0000000   7.0000000   7.0000000   7.0000000   7.0000000   7.0000000
   7.0000000   7.0000000   7.0000000   7.0000000   7.0000000   7.0000000
   7.0000000   7.0000000   7.0000000   7.0000000   9.0000000   9.0000000
   9.0000000   9.0000000   9.0000000   9.0000000   9.0000000   9.0000000
  30.0000000  30.0000000
 TTTTTTTTTTTTTTTTTTTTTTTTTTTTTT MOQGAD      TELAPSE       18.31 TCPU        8.22
 TTTTTTTTTTTTTTTTTTTTTTTTTTTTTT SHELLXN     TELAPSE       88.41 TCPU       76.04
 TTTTTTTTTTTTTTTTTTTTTTTTTTTTTT MONMO3      TELAPSE       98.41 TCPU       86.02
 NUMERICALLY INTEGRATED DENSITY    424.0001676162
 TTTTTTTTTTTTTTTTTTTTTTTTTTTTTT NUMDFT      TELAPSE      100.72 TCPU       88.32
 CYC   0 ETOT(AU) -6.370050038809E+03 DETOT -6.37E+03 tst  0.00E+00 PX  1.00E+00
 TTTTTTTTTTTTTTTTTTTTTTTTTTTTTT DIIS        TELAPSE      100.81 TCPU       88.41
 TTTTTTTTTTTTTTTTTTTTTTTTTTTTTT FDIK        TELAPSE      134.00 TCPU      120.91
 INSULATING STATE
 TOP OF VALENCE BANDS -    BAND    212; K    4; EIG -1.3193172E-01 AU
 TOP OF VALENCE BANDS -    BAND    212; K    1; EIG -1.3208977E-01 AU
 BOTTOM OF VIRTUAL BANDS - BAND    213; K    3; EIG -9.1416927E-02 AU
 INDIRECT ENERGY BAND GAP:   1.1025 eV
 BOTTOM OF VIRTUAL BANDS - BAND    213; K    1; EIG -8.8050175E-02 AU
 TTTTTTTTTTTTTTTTTTTTTTTTTTTTTT PDIG        TELAPSE      134.60 TCPU      121.51
 TOTAL ATOMIC CHARGES:
   1.3556858   1.3556858   1.3556858   1.3556858   1.2033223   1.2033223
   1.2033223   1.2033223   6.2068595   6.2068595   6.2068595   6.2068595
   5.4960117   5.4960117   5.4960117   5.4960117   5.2617913   5.2617913
   5.2617913   5.2617913   5.0648104   5.0648104   5.0648104   5.0648104
   5.8032882   5.8032882   5.8032882   5.8032882   6.3035829   6.3035829
   6.3035829   6.3035829   7.3986178   7.3986178   7.3986178   7.3986178
   7.1887610   7.1887610   7.1887610   7.1887610   7.4204112   7.4204112
   7.4204112   7.4204112   7.1887132   7.1887132   7.1887132   7.1887132
   7.5986014   7.5986014   7.5986014   7.5986014   9.2848779   9.2848779
   9.2848779   9.2848779   9.2817145   9.2817145   9.2817145   9.2817145
  27.8045693  27.9672346
 TTTTTTTTTTTTTTTTTTTTTTTTTTTTTT MOQGAD      TELAPSE      134.65 TCPU      121.56
 TTTTTTTTTTTTTTTTTTTTTTTTTTTTTT SHELLXN     TELAPSE      217.86 TCPU      200.25
 TTTTTTTTTTTTTTTTTTTTTTTTTTTTTT MONMO3      TELAPSE      222.92 TCPU      205.30
 NUMERICALLY INTEGRATED DENSITY    424.0000797444
 TTTTTTTTTTTTTTTTTTTTTTTTTTTTTT NUMDFT      TELAPSE      229.47 TCPU      211.83
 CYC   1 ETOT(AU) -6.364205800775E+03 DETOT  5.84E+00 tst  0.00E+00 PX  1.00E+00
 TTTTTTTTTTTTTTTTTTTTTTTTTTTTTT DIIS        TELAPSE      229.63 TCPU      211.99
 DIIS TEST: 0.12775E+02 AT SCF   CYCLE   1 - MIX   30 %
 TTTTTTTTTTTTTTTTTTTTTTTTTTTTTT FDIK        TELAPSE      246.08 TCPU      223.81
 INSULATING STATE
 TOP OF VALENCE BANDS -    BAND    212; K    6; EIG -1.4218357E-01 AU
 TOP OF VALENCE BANDS -    BAND    212; K    1; EIG -1.4239490E-01 AU
 BOTTOM OF VIRTUAL BANDS - BAND    213; K    6; EIG -1.1807857E-01 AU
 DIRECT ENERGY BAND GAP:   0.6559 eV
 BOTTOM OF VIRTUAL BANDS - BAND    213; K    1; EIG -1.1307715E-01 AU
 TTTTTTTTTTTTTTTTTTTTTTTTTTTTTT PDIG        TELAPSE      246.67 TCPU      224.40
 TOTAL ATOMIC CHARGES:
   1.3470724   1.3470724   1.3470724   1.3470724   1.1651008   1.1651008
   1.1651008   1.1651008   6.1060786   6.1060786   6.1060786   6.1060786
   6.2437509   6.2437509   6.2437509   6.2437509   6.3050448   6.3050448
   6.3050448   6.3050448   6.2458671   6.2458671   6.2458671   6.2458671
   6.1888407   6.1888407   6.1888407   6.1888407   5.8620627   5.8620627
   5.8620627   5.8620627   6.9756391   6.9756391   6.9756391   6.9756391
   6.8475265   6.8475265   6.8475265   6.8475265   6.9142232   6.9142232
   6.9142232   6.9142232   6.8585016   6.8585016   6.8585016   6.8585016
   6.0420968   6.0420968   6.0420968   6.0420968   9.0461245   9.0461245
   9.0461245   9.0461245   8.9976770   8.9976770   8.9976770   8.9976770
  29.8091639  29.6084096
 TTTTTTTTTTTTTTTTTTTTTTTTTTTTTT MOQGAD      TELAPSE      246.72 TCPU      224.45
 TTTTTTTTTTTTTTTTTTTTTTTTTTTTTT SHELLXN     TELAPSE      327.61 TCPU      302.76
 TTTTTTTTTTTTTTTTTTTTTTTTTTTTTT MONMO3      TELAPSE      330.95 TCPU      306.09
 NUMERICALLY INTEGRATED DENSITY    424.0000753362
 TTTTTTTTTTTTTTTTTTTTTTTTTTTTTT NUMDFT      TELAPSE      337.56 TCPU      312.68
 CYC   2 ETOT(AU) -6.363190921805E+03 DETOT  1.01E+00 tst  5.39E-02 PX  7.53E-01
 TTTTTTTTTTTTTTTTTTTTTTTTTTTTTT DIIS        TELAPSE      337.78 TCPU      312.90
 DIIS TEST: 0.17580E+02 AT SCF   CYCLE   2 - DIIS ACTIVE - HISTORY:     2 CYCLES
 TTTTTTTTTTTTTTTTTTTTTTTTTTTTTT FDIK        TELAPSE      352.91 TCPU      322.22
 INSULATING STATE
 TOP OF VALENCE BANDS -    BAND    212; K    1; EIG -2.4900125E-01 AU
 BOTTOM OF VIRTUAL BANDS - BAND    213; K    6; EIG -1.1312183E-01 AU
 INDIRECT ENERGY BAND GAP:   3.6975 eV
 BOTTOM OF VIRTUAL BANDS - BAND    213; K    1; EIG -1.1193066E-01 AU
 TTTTTTTTTTTTTTTTTTTTTTTTTTTTTT PDIG        TELAPSE      353.50 TCPU      322.81
 TOTAL ATOMIC CHARGES:
   1.2732089   1.2732089   1.2732089   1.2732089   1.1413587   1.1413587
   1.1413587   1.1413587   5.8975205   5.8975205   5.8975205   5.8975205
   5.7814139   5.7814139   5.7814139   5.7814139   5.5830561   5.5830561
   5.5830561   5.5830561   5.7079718   5.7079718   5.7079718   5.7079718
   5.9985200   5.9985200   5.9985200   5.9985200   5.9713910   5.9713910
   5.9713910   5.9713910   7.0584352   7.0584352   7.0584352   7.0584352
   7.1337742   7.1337742   7.1337742   7.1337742   7.1006209   7.1006209
   7.1006209   7.1006209   7.1093338   7.1093338   7.1093338   7.1093338
   7.4240650   7.4240650   7.4240650   7.4240650   9.1525715   9.1525715
   9.1525715   9.1525715   9.1199853   9.1199853   9.1199853   9.1199853
  29.1191541  29.0679376
 TTTTTTTTTTTTTTTTTTTTTTTTTTTTTT MOQGAD      TELAPSE      353.55 TCPU      322.86
 TTTTTTTTTTTTTTTTTTTTTTTTTTTTTT SHELLXN     TELAPSE      434.37 TCPU      401.22
 TTTTTTTTTTTTTTTTTTTTTTTTTTTTTT MONMO3      TELAPSE      437.93 TCPU      404.77
 NUMERICALLY INTEGRATED DENSITY    424.0000778995
 TTTTTTTTTTTTTTTTTTTTTTTTTTTTTT NUMDFT      TELAPSE      444.55 TCPU      411.36
 CYC   3 ETOT(AU) -6.365985171936E+03 DETOT -2.79E+00 tst  9.82E-03 PX  6.41E-01
 TTTTTTTTTTTTTTTTTTTTTTTTTTTTTT DIIS        TELAPSE      444.72 TCPU      411.53
 DIIS TEST: 0.26413E+01 AT SCF   CYCLE   3 - DIIS ACTIVE - HISTORY:     3 CYCLES
 TTTTTTTTTTTTTTTTTTTTTTTTTTTTTT FDIK        TELAPSE      459.08 TCPU      423.09
 INSULATING STATE
 TOP OF VALENCE BANDS -    BAND    212; K    6; EIG -2.2330761E-01 AU
 TOP OF VALENCE BANDS -    BAND    212; K    1; EIG -2.2345331E-01 AU
 BOTTOM OF VIRTUAL BANDS - BAND    213; K    6; EIG -1.1438550E-01 AU
 DIRECT ENERGY BAND GAP:   2.9639 eV
 BOTTOM OF VIRTUAL BANDS - BAND    213; K    1; EIG -1.1064846E-01 AU
 TTTTTTTTTTTTTTTTTTTTTTTTTTTTTT PDIG        TELAPSE      459.67 TCPU      423.68
 TOTAL ATOMIC CHARGES:
   1.2969731   1.2969731   1.2969731   1.2969731   1.1551272   1.1551272
   1.1551272   1.1551272   6.1771710   6.1771710   6.1771710   6.1771710
   5.7968082   5.7968082   5.7968082   5.7968082   5.7319797   5.7319797
   5.7319797   5.7319797   5.4866793   5.4866793   5.4866793   5.4866793
   5.9236825   5.9236825   5.9236825   5.9236825   6.1793186   6.1793186
   6.1793186   6.1793186   7.2218002   7.2218002   7.2218002   7.2218002
   7.0447796   7.0447796   7.0447796   7.0447796   7.2045276   7.2045276
   7.2045276   7.2045276   7.0709009   7.0709009   7.0709009   7.0709009
   6.9526446   6.9526446   6.9526446   6.9526446   9.1863333   9.1863333
   9.1863333   9.1863333   9.1649482   9.1649482   9.1649482   9.1649482
  28.8007271  28.8245768
 TTTTTTTTTTTTTTTTTTTTTTTTTTTTTT MOQGAD      TELAPSE      459.72 TCPU      423.73
 TTTTTTTTTTTTTTTTTTTTTTTTTTTTTT SHELLXN     TELAPSE      540.73 TCPU      502.18
 TTTTTTTTTTTTTTTTTTTTTTTTTTTTTT MONMO3      TELAPSE      543.89 TCPU      505.33
 NUMERICALLY INTEGRATED DENSITY    424.0000752152
 TTTTTTTTTTTTTTTTTTTTTTTTTTTTTT NUMDFT      TELAPSE      550.53 TCPU      511.95
 CYC   4 ETOT(AU) -6.366227531080E+03 DETOT -2.42E-01 tst  3.20E-03 PX  1.45E-01
 TTTTTTTTTTTTTTTTTTTTTTTTTTTTTT DIIS        TELAPSE      550.76 TCPU      512.18
 DIIS TEST: 0.83661E+00 AT SCF   CYCLE   4 - DIIS ACTIVE - HISTORY:     4 CYCLES
 TTTTTTTTTTTTTTTTTTTTTTTTTTTTTT FDIK        TELAPSE      564.03 TCPU      523.22
 INSULATING STATE
 TOP OF VALENCE BANDS -    BAND    212; K    6; EIG -2.4801880E-01 AU
 TOP OF VALENCE BANDS -    BAND    212; K    1; EIG -2.4855767E-01 AU
 BOTTOM OF VIRTUAL BANDS - BAND    213; K    6; EIG -1.1585020E-01 AU
 DIRECT ENERGY BAND GAP:   3.5965 eV
 BOTTOM OF VIRTUAL BANDS - BAND    213; K    1; EIG -1.1423965E-01 AU
 TTTTTTTTTTTTTTTTTTTTTTTTTTTTTT PDIG        TELAPSE      564.62 TCPU      523.80
 TOTAL ATOMIC CHARGES:
   1.2874740   1.2874740   1.2874740   1.2874740   1.1493107   1.1493107
   1.1493107   1.1493107   6.0928453   6.0928453   6.0928453   6.0928453
   5.8173896   5.8173896   5.8173896   5.8173896   5.7044760   5.7044760
   5.7044760   5.7044760   5.6156865   5.6156865   5.6156865   5.6156865
   5.9987480   5.9987480   5.9987480   5.9987480   6.0989602   6.0989602
   6.0989602   6.0989602   7.1743634   7.1743634   7.1743634   7.1743634
   7.0853168   7.0853168   7.0853168   7.0853168   7.1211589   7.1211589
   7.1211589   7.1211589   7.0553344   7.0553344   7.0553344   7.0553344
   7.0586892   7.0586892   7.0586892   7.0586892   9.1617394   9.1617394
   9.1617394   9.1617394   9.1431799   9.1431799   9.1431799   9.1431799
  28.8797757  28.8615351
 TTTTTTTTTTTTTTTTTTTTTTTTTTTTTT MOQGAD      TELAPSE      564.67 TCPU      523.85
 TTTTTTTTTTTTTTTTTTTTTTTTTTTTTT SHELLXN     TELAPSE      644.85 TCPU      601.48
 TTTTTTTTTTTTTTTTTTTTTTTTTTTTTT MONMO3      TELAPSE      648.94 TCPU      605.55
 NUMERICALLY INTEGRATED DENSITY    424.0000778251
 TTTTTTTTTTTTTTTTTTTTTTTTTTTTTT NUMDFT      TELAPSE      655.58 TCPU      612.18
 CYC   5 ETOT(AU) -6.366349963786E+03 DETOT -1.22E-01 tst  6.28E-04 PX  1.20E-01
 TTTTTTTTTTTTTTTTTTTTTTTTTTTTTT DIIS        TELAPSE      655.74 TCPU      612.34
 DIIS TEST: 0.43880E-01 AT SCF   CYCLE   5 - DIIS ACTIVE - HISTORY:     5 CYCLES
 TTTTTTTTTTTTTTTTTTTTTTTTTTTTTT FDIK        TELAPSE      668.22 TCPU      622.51
 INSULATING STATE
 TOP OF VALENCE BANDS -    BAND    212; K    6; EIG -2.4562280E-01 AU
 TOP OF VALENCE BANDS -    BAND    212; K    1; EIG -2.4603637E-01 AU
 BOTTOM OF VIRTUAL BANDS - BAND    213; K    6; EIG -1.1448984E-01 AU
 DIRECT ENERGY BAND GAP:   3.5683 eV
 BOTTOM OF VIRTUAL BANDS - BAND    213; K    1; EIG -1.1249348E-01 AU
 TTTTTTTTTTTTTTTTTTTTTTTTTTTTTT PDIG        TELAPSE      668.81 TCPU      623.10
 TOTAL ATOMIC CHARGES:
   1.2898406   1.2898406   1.2898406   1.2898406   1.1520189   1.1520189
   1.1520189   1.1520189   6.0812952   6.0812952   6.0812952   6.0812952
   5.8134987   5.8134987   5.8134987   5.8134987   5.7305740   5.7305740
   5.7305740   5.7305740   5.6177001   5.6177001   5.6177001   5.6177001
   5.9584294   5.9584294   5.9584294   5.9584294   6.0802467   6.0802467
   6.0802467   6.0802467   7.1263263   7.1263263   7.1263263   7.1263263
   7.0348563   7.0348563   7.0348563   7.0348563   7.1945711   7.1945711
   7.1945711   7.1945711   7.1021905   7.1021905   7.1021905   7.1021905
   7.0719966   7.0719966   7.0719966   7.0719966   9.1686053   9.1686053
   9.1686053   9.1686053   9.1357033   9.1357033   9.1357033   9.1357033
  28.8812942  28.8872943
 TTTTTTTTTTTTTTTTTTTTTTTTTTTTTT MOQGAD      TELAPSE      668.86 TCPU      623.15
 TTTTTTTTTTTTTTTTTTTTTTTTTTTTTT SHELLXN     TELAPSE      748.87 TCPU      700.51
 TTTTTTTTTTTTTTTTTTTTTTTTTTTTTT MONMO3      TELAPSE      753.01 TCPU      704.64
 NUMERICALLY INTEGRATED DENSITY    424.0000764204
 TTTTTTTTTTTTTTTTTTTTTTTTTTTTTT NUMDFT      TELAPSE      759.65 TCPU      711.25
 CYC   6 ETOT(AU) -6.366346314297E+03 DETOT  3.65E-03 tst  8.46E-05 PX  2.16E-02
 TTTTTTTTTTTTTTTTTTTTTTTTTTTTTT DIIS        TELAPSE      759.94 TCPU      711.54
 DIIS TEST: 0.68529E-01 AT SCF   CYCLE   6 - DIIS ACTIVE - HISTORY:     6 CYCLES
 TTTTTTTTTTTTTTTTTTTTTTTTTTTTTT FDIK        TELAPSE      772.66 TCPU      721.70
 INSULATING STATE
 TOP OF VALENCE BANDS -    BAND    212; K    6; EIG -2.4526156E-01 AU
 TOP OF VALENCE BANDS -    BAND    212; K    1; EIG -2.4565344E-01 AU
 BOTTOM OF VIRTUAL BANDS - BAND    213; K    6; EIG -1.1526436E-01 AU
 DIRECT ENERGY BAND GAP:   3.5374 eV
 BOTTOM OF VIRTUAL BANDS - BAND    213; K    1; EIG -1.1260540E-01 AU
 TTTTTTTTTTTTTTTTTTTTTTTTTTTTTT PDIG        TELAPSE      773.25 TCPU      722.29
 TOTAL ATOMIC CHARGES:
   1.2891973   1.2891973   1.2891973   1.2891973   1.1518275   1.1518275
   1.1518275   1.1518275   6.0799620   6.0799620   6.0799620   6.0799620
   5.8169221   5.8169221   5.8169221   5.8169221   5.7216977   5.7216977
   5.7216977   5.7216977   5.6135957   5.6135957   5.6135957   5.6135957
   5.9731136   5.9731136   5.9731136   5.9731136   6.0802509   6.0802509
   6.0802509   6.0802509   7.1725399   7.1725399   7.1725399   7.1725399
   7.0773657   7.0773657   7.0773657   7.0773657   7.1450503   7.1450503
   7.1450503   7.1450503   7.0634591   7.0634591   7.0634591   7.0634591
   7.0691082   7.0691082   7.0691082   7.0691082   9.1639257   9.1639257
   9.1639257   9.1639257   9.1375017   9.1375017   9.1375017   9.1375017
  28.8903683  28.8875630
 TTTTTTTTTTTTTTTTTTTTTTTTTTTTTT MOQGAD      TELAPSE      773.30 TCPU      722.34
 TTTTTTTTTTTTTTTTTTTTTTTTTTTTTT SHELLXN     TELAPSE      852.25 TCPU      799.73
 TTTTTTTTTTTTTTTTTTTTTTTTTTTTTT MONMO3      TELAPSE      856.31 TCPU      803.77
 NUMERICALLY INTEGRATED DENSITY    424.0000765364
 TTTTTTTTTTTTTTTTTTTTTTTTTTTTTT NUMDFT      TELAPSE      862.93 TCPU      810.36
 CYC   7 ETOT(AU) -6.366355497129E+03 DETOT -9.18E-03 tst  3.69E-05 PX  1.49E-02
 TTTTTTTTTTTTTTTTTTTTTTTTTTTTTT DIIS        TELAPSE      863.10 TCPU      810.53
 DIIS TEST: 0.54707E-02 AT SCF   CYCLE   7 - DIIS ACTIVE - HISTORY:     7 CYCLES
 TTTTTTTTTTTTTTTTTTTTTTTTTTTTTT FDIK        TELAPSE      875.64 TCPU      820.72
 INSULATING STATE
 TOP OF VALENCE BANDS -    BAND    212; K    6; EIG -2.4578061E-01 AU
 TOP OF VALENCE BANDS -    BAND    212; K    1; EIG -2.4620271E-01 AU
 BOTTOM OF VIRTUAL BANDS - BAND    213; K    6; EIG -1.1529034E-01 AU
 DIRECT ENERGY BAND GAP:   3.5508 eV
 BOTTOM OF VIRTUAL BANDS - BAND    213; K    1; EIG -1.1319653E-01 AU
 TTTTTTTTTTTTTTTTTTTTTTTTTTTTTT PDIG        TELAPSE      876.23 TCPU      821.31
 TOTAL ATOMIC CHARGES:
   1.2864706   1.2864706   1.2864706   1.2864706   1.1494403   1.1494403
   1.1494403   1.1494403   6.0818500   6.0818500   6.0818500   6.0818500
   5.8169806   5.8169806   5.8169806   5.8169806   5.7131412   5.7131412
   5.7131412   5.7131412   5.6167142   5.6167142   5.6167142   5.6167142
   5.9822102   5.9822102   5.9822102   5.9822102   6.0904263   6.0904263
   6.0904263   6.0904263   7.1555820   7.1555820   7.1555820   7.1555820
   7.0650618   7.0650618   7.0650618   7.0650618   7.1497247   7.1497247
   7.1497247   7.1497247   7.0771397   7.0771397   7.0771397   7.0771397
   7.0647598   7.0647598   7.0647598   7.0647598   9.1648308   9.1648308
   9.1648308   9.1648308   9.1404886   9.1404886   9.1404886   9.1404886
  28.8947294  28.8859868
 TTTTTTTTTTTTTTTTTTTTTTTTTTTTTT MOQGAD      TELAPSE      876.27 TCPU      821.36
 TTTTTTTTTTTTTTTTTTTTTTTTTTTTTT SHELLXN     TELAPSE      958.60 TCPU      898.81
 TTTTTTTTTTTTTTTTTTTTTTTTTTTTTT MONMO3      TELAPSE      962.21 TCPU      902.40
 NUMERICALLY INTEGRATED DENSITY    424.0000767582
 TTTTTTTTTTTTTTTTTTTTTTTTTTTTTT NUMDFT      TELAPSE      968.76 TCPU      908.93
 CYC   8 ETOT(AU) -6.366356129801E+03 DETOT -6.33E-04 tst  4.05E-06 PX  5.46E-03
 TTTTTTTTTTTTTTTTTTTTTTTTTTTTTT DIIS        TELAPSE      969.14 TCPU      909.30
 DIIS TEST: 0.95044E-03 AT SCF   CYCLE   8 - DIIS ACTIVE - HISTORY:     8 CYCLES
 TTTTTTTTTTTTTTTTTTTTTTTTTTTTTT FDIK        TELAPSE      981.27 TCPU      919.29
 INSULATING STATE
 TOP OF VALENCE BANDS -    BAND    212; K    6; EIG -2.4618201E-01 AU
 TOP OF VALENCE BANDS -    BAND    212; K    1; EIG -2.4661624E-01 AU
 BOTTOM OF VIRTUAL BANDS - BAND    213; K    6; EIG -1.1536210E-01 AU
 DIRECT ENERGY BAND GAP:   3.5598 eV
 BOTTOM OF VIRTUAL BANDS - BAND    213; K    1; EIG -1.1304906E-01 AU
 TTTTTTTTTTTTTTTTTTTTTTTTTTTTTT PDIG        TELAPSE      981.86 TCPU      919.88
 TOTAL ATOMIC CHARGES:
   1.2867672   1.2867672   1.2867672   1.2867672   1.1502106   1.1502106
   1.1502106   1.1502106   6.0846104   6.0846104   6.0846104   6.0846104
   5.8117832   5.8117832   5.8117832   5.8117832   5.7178956   5.7178956
   5.7178956   5.7178956   5.6126168   5.6126168   5.6126168   5.6126168
   5.9744155   5.9744155   5.9744155   5.9744155   6.0853236   6.0853236
   6.0853236   6.0853236   7.1654699   7.1654699   7.1654699   7.1654699
   7.0674031   7.0674031   7.0674031   7.0674031   7.1556598   7.1556598
   7.1556598   7.1556598   7.0659289   7.0659289   7.0659289   7.0659289
   7.0715240   7.0715240   7.0715240   7.0715240   9.1661245   9.1661245
   9.1661245   9.1661245   9.1389555   9.1389555   9.1389555   9.1389555
  28.8940270  28.8872189
 TTTTTTTTTTTTTTTTTTTTTTTTTTTTTT MOQGAD      TELAPSE      981.90 TCPU      919.92
 TTTTTTTTTTTTTTTTTTTTTTTTTTTTTT SHELLXN     TELAPSE     1062.35 TCPU      997.34
 TTTTTTTTTTTTTTTTTTTTTTTTTTTTTT MONMO3      TELAPSE     1065.11 TCPU     1000.09
 NUMERICALLY INTEGRATED DENSITY    424.0000766665
 TTTTTTTTTTTTTTTTTTTTTTTTTTTTTT NUMDFT      TELAPSE     1071.72 TCPU     1006.68
 CYC   9 ETOT(AU) -6.366356185986E+03 DETOT -5.62E-05 tst  1.53E-06 PX  3.15E-03
 TTTTTTTTTTTTTTTTTTTTTTTTTTTTTT DIIS        TELAPSE     1072.25 TCPU     1007.21
 DIIS TEST: 0.59056E-03 AT SCF   CYCLE   9 - DIIS ACTIVE - HISTORY:     9 CYCLES
 TTTTTTTTTTTTTTTTTTTTTTTTTTTTTT FDIK        TELAPSE     1083.24 TCPU     1016.17
 INSULATING STATE
 TOP OF VALENCE BANDS -    BAND    212; K    6; EIG -2.4583972E-01 AU
 TOP OF VALENCE BANDS -    BAND    212; K    1; EIG -2.4625515E-01 AU
 BOTTOM OF VIRTUAL BANDS - BAND    213; K    6; EIG -1.1527054E-01 AU
 DIRECT ENERGY BAND GAP:   3.5530 eV
 BOTTOM OF VIRTUAL BANDS - BAND    213; K    1; EIG -1.1298093E-01 AU
 TTTTTTTTTTTTTTTTTTTTTTTTTTTTTT PDIG        TELAPSE     1083.82 TCPU     1016.76
 TOTAL ATOMIC CHARGES:
   1.2870033   1.2870033   1.2870033   1.2870033   1.1503939   1.1503939
   1.1503939   1.1503939   6.0818661   6.0818661   6.0818661   6.0818661
   5.8153638   5.8153638   5.8153638   5.8153638   5.7182148   5.7182148
   5.7182148   5.7182148   5.6150570   5.6150570   5.6150570   5.6150570
   5.9765157   5.9765157   5.9765157   5.9765157   6.0857597   6.0857597
   6.0857597   6.0857597   7.1605563   7.1605563   7.1605563   7.1605563
   7.0687374   7.0687374   7.0687374   7.0687374   7.1495265   7.1495265
   7.1495265   7.1495265   7.0736841   7.0736841   7.0736841   7.0736841
   7.0682293   7.0682293   7.0682293   7.0682293   9.1650072   9.1650072
   9.1650072   9.1650072   9.1392732   9.1392732   9.1392732   9.1392732
  28.8927920  28.8864547
 TTTTTTTTTTTTTTTTTTTTTTTTTTTTTT MOQGAD      TELAPSE     1083.87 TCPU     1016.81
 TTTTTTTTTTTTTTTTTTTTTTTTTTTTTT SHELLXN     TELAPSE     1163.90 TCPU     1094.21
 TTTTTTTTTTTTTTTTTTTTTTTTTTTTTT MONMO3      TELAPSE     1167.75 TCPU     1098.04
 NUMERICALLY INTEGRATED DENSITY    424.0000767770
 TTTTTTTTTTTTTTTTTTTTTTTTTTTTTT NUMDFT      TELAPSE     1174.31 TCPU     1104.57
 CYC  10 ETOT(AU) -6.366356280929E+03 DETOT -9.49E-05 tst  8.06E-07 PX  2.20E-03
 TTTTTTTTTTTTTTTTTTTTTTTTTTTTTT DIIS        TELAPSE     1174.48 TCPU     1104.75
 DIIS TEST: 0.62628E-04 AT SCF   CYCLE  10 - DIIS ACTIVE - HISTORY:    10 CYCLES
 TTTTTTTTTTTTTTTTTTTTTTTTTTTTTT FDIK        TELAPSE     1187.84 TCPU     1115.40
 INSULATING STATE
 TOP OF VALENCE BANDS -    BAND    212; K    6; EIG -2.4587338E-01 AU
 TOP OF VALENCE BANDS -    BAND    212; K    1; EIG -2.4629478E-01 AU
 BOTTOM OF VIRTUAL BANDS - BAND    213; K    6; EIG -1.1532663E-01 AU
 DIRECT ENERGY BAND GAP:   3.5524 eV
 BOTTOM OF VIRTUAL BANDS - BAND    213; K    1; EIG -1.1307267E-01 AU
 TTTTTTTTTTTTTTTTTTTTTTTTTTTTTT PDIG        TELAPSE     1188.43 TCPU     1115.99
 TOTAL ATOMIC CHARGES:
   1.2869276   1.2869276   1.2869276   1.2869276   1.1502174   1.1502174
   1.1502174   1.1502174   6.0820236   6.0820236   6.0820236   6.0820236
   5.8155020   5.8155020   5.8155020   5.8155020   5.7163523   5.7163523
   5.7163523   5.7163523   5.6149058   5.6149058   5.6149058   5.6149058
   5.9778338   5.9778338   5.9778338   5.9778338   6.0864890   6.0864890
   6.0864890   6.0864890   7.1613992   7.1613992   7.1613992   7.1613992
   7.0670546   7.0670546   7.0670546   7.0670546   7.1521041   7.1521041
   7.1521041   7.1521041   7.0716207   7.0716207   7.0716207   7.0716207
   7.0682085   7.0682085   7.0682085   7.0682085   9.1650422   9.1650422
   9.1650422   9.1650422   9.1394427   9.1394427   9.1394427   9.1394427
  28.8933125  28.8861935
 TTTTTTTTTTTTTTTTTTTTTTTTTTTTTT MOQGAD      TELAPSE     1188.47 TCPU     1116.04
 TTTTTTTTTTTTTTTTTTTTTTTTTTTTTT SHELLXN     TELAPSE     1266.84 TCPU     1193.58
 TTTTTTTTTTTTTTTTTTTTTTTTTTTTTT MONMO3      TELAPSE     1270.89 TCPU     1197.63
 NUMERICALLY INTEGRATED DENSITY    424.0000766781
 TTTTTTTTTTTTTTTTTTTTTTTTTTTTTT NUMDFT      TELAPSE     1277.44 TCPU     1204.15
 CYC  11 ETOT(AU) -6.366356290389E+03 DETOT -9.46E-06 tst  1.02E-07 PX  6.26E-04
 TTTTTTTTTTTTTTTTTTTTTTTTTTTTTT DIIS        TELAPSE     1277.69 TCPU     1204.40
 DIIS TEST: 0.18175E-04 AT SCF   CYCLE  11 - DIIS ACTIVE - HISTORY:    11 CYCLES
 TTTTTTTTTTTTTTTTTTTTTTTTTTTTTT FDIK        TELAPSE     1287.95 TCPU     1214.23
 INSULATING STATE
 TOP OF VALENCE BANDS -    BAND    212; K    6; EIG -2.4589893E-01 AU
 TOP OF VALENCE BANDS -    BAND    212; K    1; EIG -2.4632036E-01 AU
 BOTTOM OF VIRTUAL BANDS - BAND    213; K    6; EIG -1.1529709E-01 AU
 DIRECT ENERGY BAND GAP:   3.5539 eV
 BOTTOM OF VIRTUAL BANDS - BAND    213; K    1; EIG -1.1303736E-01 AU
 TTTTTTTTTTTTTTTTTTTTTTTTTTTTTT PDIG        TELAPSE     1288.54 TCPU     1214.83
 TOTAL ATOMIC CHARGES:
   1.2868920   1.2868920   1.2868920   1.2868920   1.1501291   1.1501291
   1.1501291   1.1501291   6.0823426   6.0823426   6.0823426   6.0823426
   5.8149039   5.8149039   5.8149039   5.8149039   5.7168701   5.7168701
   5.7168701   5.7168701   5.6146570   5.6146570   5.6146570   5.6146570
   5.9771866   5.9771866   5.9771866   5.9771866   6.0867518   6.0867518
   6.0867518   6.0867518   7.1611067   7.1611067   7.1611067   7.1611067
   7.0678145   7.0678145   7.0678145   7.0678145   7.1513153   7.1513153
   7.1513153   7.1513153   7.0718987   7.0718987   7.0718987   7.0718987
   7.0684385   7.0684385   7.0684385   7.0684385   9.1652434   9.1652434
   9.1652434   9.1652434   9.1394098   9.1394098   9.1394098   9.1394098
  28.8934743  28.8866863
 TTTTTTTTTTTTTTTTTTTTTTTTTTTTTT MOQGAD      TELAPSE     1288.59 TCPU     1214.87
 TTTTTTTTTTTTTTTTTTTTTTTTTTTTTT SHELLXN     TELAPSE     1366.55 TCPU     1292.29
 TTTTTTTTTTTTTTTTTTTTTTTTTTTTTT MONMO3      TELAPSE     1372.60 TCPU     1298.33
 NUMERICALLY INTEGRATED DENSITY    424.0000767079
 TTTTTTTTTTTTTTTTTTTTTTTTTTTTTT NUMDFT      TELAPSE     1379.12 TCPU     1304.84
 CYC  12 ETOT(AU) -6.366356293014E+03 DETOT -2.63E-06 tst  8.38E-09 PX  2.29E-04
 TTTTTTTTTTTTTTTTTTTTTTTTTTTTTT DIIS        TELAPSE     1379.51 TCPU     1305.22
 DIIS TEST: 0.15472E-05 AT SCF   CYCLE  12 - DIIS ACTIVE - HISTORY:    12 CYCLES
 TTTTTTTTTTTTTTTTTTTTTTTTTTTTTT FDIK        TELAPSE     1392.07 TCPU     1315.52
 INSULATING STATE
 TOP OF VALENCE BANDS -    BAND    212; K    6; EIG -2.4589821E-01 AU
 TOP OF VALENCE BANDS -    BAND    212; K    1; EIG -2.4631925E-01 AU
 BOTTOM OF VIRTUAL BANDS - BAND    213; K    6; EIG -1.1530700E-01 AU
 DIRECT ENERGY BAND GAP:   3.5536 eV
 BOTTOM OF VIRTUAL BANDS - BAND    213; K    1; EIG -1.1304513E-01 AU
 TTTTTTTTTTTTTTTTTTTTTTTTTTTTTT PDIG        TELAPSE     1392.66 TCPU     1316.11
 TOTAL ATOMIC CHARGES:
   1.2868757   1.2868757   1.2868757   1.2868757   1.1501898   1.1501898
   1.1501898   1.1501898   6.0823967   6.0823967   6.0823967   6.0823967
   5.8150374   5.8150374   5.8150374   5.8150374   5.7169471   5.7169471
   5.7169471   5.7169471   5.6147630   5.6147630   5.6147630   5.6147630
   5.9772897   5.9772897   5.9772897   5.9772897   6.0863690   6.0863690
   6.0863690   6.0863690   7.1612620   7.1612620   7.1612620   7.1612620
   7.0674820   7.0674820   7.0674820   7.0674820   7.1513133   7.1513133
   7.1513133   7.1513133   7.0721232   7.0721232   7.0721232   7.0721232
   7.0684094   7.0684094   7.0684094   7.0684094   9.1651843   9.1651843
   9.1651843   9.1651843   9.1393986   9.1393986   9.1393986   9.1393986
  28.8933199  28.8865155
 TTTTTTTTTTTTTTTTTTTTTTTTTTTTTT MOQGAD      TELAPSE     1392.71 TCPU     1316.15
 TTTTTTTTTTTTTTTTTTTTTTTTTTTTTT SHELLXN     TELAPSE     1470.47 TCPU     1393.51
 TTTTTTTTTTTTTTTTTTTTTTTTTTTTTT MONMO3      TELAPSE     1474.38 TCPU     1397.42
 NUMERICALLY INTEGRATED DENSITY    424.0000767156
 TTTTTTTTTTTTTTTTTTTTTTTTTTTTTT NUMDFT      TELAPSE     1480.90 TCPU     1403.92
 CYC  13 ETOT(AU) -6.366356293222E+03 DETOT -2.08E-07 tst  8.77E-10 PX  1.15E-04
[...]
 TTTTTTTTTTTTTTTTTTTTTTTTTTTTTT MOQGAD      TELAPSE   279428.96 TCPU   277208.09
 TTTTTTTTTTTTTTTTTTTTTTTTTTTTTT CP_MONMON   TELAPSE   279445.60 TCPU   277224.68
 DIIS TEST: 0.25003E+03 AT CPHF  CYCLE   3 - DIIS ACTIVE - HISTORY:     3 CYCLES
 CYCLE   3   ALPHA  385.736131  EPSILON    2.028796  DELTA    1.6105E+00
 TTTTTTTTTTTTTTTTTTTTTTTTTTTTTT MOQGAD      TELAPSE   280190.82 TCPU   277960.56
 TTTTTTTTTTTTTTTTTTTTTTTTTTTTTT CP_MONMON   TELAPSE   280207.62 TCPU   277977.30
 DIIS TEST: 0.11239E+04 AT CPHF  CYCLE   4 - DIIS ACTIVE - HISTORY:     4 CYCLES
 CYCLE   4   ALPHA  407.319460  EPSILON    2.086361  DELTA    2.1583E+01
 TTTTTTTTTTTTTTTTTTTTTTTTTTTTTT MOQGAD      TELAPSE   280963.69 TCPU   278723.39
 TTTTTTTTTTTTTTTTTTTTTTTTTTTTTT CP_MONMON   TELAPSE   280980.50 TCPU   278740.12
 DIIS TEST: 0.50010E+01 AT CPHF  CYCLE   5 - DIIS ACTIVE - HISTORY:     5 CYCLES
 CYCLE   5   ALPHA  407.737304  EPSILON    2.087476  DELTA    4.1784E-01
 TTTTTTTTTTTTTTTTTTTTTTTTTTTTTT MOQGAD      TELAPSE   281707.57 TCPU   279462.31
 TTTTTTTTTTTTTTTTTTTTTTTTTTTTTT CP_MONMON   TELAPSE   281724.23 TCPU   279478.91
 DIIS TEST: 0.24026E+01 AT CPHF  CYCLE   6 - DIIS ACTIVE - HISTORY:     6 CYCLES
 CYCLE   6   ALPHA  408.410364  EPSILON    2.089271  DELTA    6.7306E-01
 TTTTTTTTTTTTTTTTTTTTTTTTTTTTTT MOQGAD      TELAPSE   282482.58 TCPU   280232.80
 TTTTTTTTTTTTTTTTTTTTTTTTTTTTTT CP_MONMON   TELAPSE   282499.22 TCPU   280249.41
 DIIS TEST: 0.34862E+01 AT CPHF  CYCLE   7 - DIIS ACTIVE - HISTORY:     7 CYCLES
 CYCLE   7   ALPHA  408.690480  EPSILON    2.090018  DELTA    2.8012E-01
 TTTTTTTTTTTTTTTTTTTTTTTTTTTTTT MOQGAD      TELAPSE   283236.51 TCPU   280974.57
 TTTTTTTTTTTTTTTTTTTTTTTTTTTTTT CP_MONMON   TELAPSE   283253.15 TCPU   280991.16
 DIIS TEST: 0.16981E+01 AT CPHF  CYCLE   8 - DIIS ACTIVE - HISTORY:     8 CYCLES
 CYCLE   8   ALPHA  408.801922  EPSILON    2.090315  DELTA    1.1144E-01
 TTTTTTTTTTTTTTTTTTTTTTTTTTTTTT MOQGAD      TELAPSE   283987.23 TCPU   281718.61
 TTTTTTTTTTTTTTTTTTTTTTTTTTTTTT CP_MONMON   TELAPSE   284003.88 TCPU   281735.23
 DIIS TEST: 0.95290E-01 AT CPHF  CYCLE   9 - DIIS ACTIVE - HISTORY:     9 CYCLES
 CYCLE   9   ALPHA  408.881921  EPSILON    2.090529  DELTA    7.9999E-02
 TTTTTTTTTTTTTTTTTTTTTTTTTTTTTT MOQGAD      TELAPSE   284747.14 TCPU   282469.88
 TTTTTTTTTTTTTTTTTTTTTTTTTTTTTT CP_MONMON   TELAPSE   284763.79 TCPU   282486.47
 DIIS TEST: 0.64592E-02 AT CPHF  CYCLE  10 - DIIS ACTIVE - HISTORY:    10 CYCLES
 CYCLE  10   ALPHA  408.893932  EPSILON    2.090561  DELTA    1.2011E-02
 TTTTTTTTTTTTTTTTTTTTTTTTTTTTTT MOQGAD      TELAPSE   285490.33 TCPU   283205.86
 TTTTTTTTTTTTTTTTTTTTTTTTTTTTTT CP_MONMON   TELAPSE   285506.99 TCPU   283222.48
 DIIS TEST: 0.86017E-03 AT CPHF  CYCLE  11 - DIIS ACTIVE - HISTORY:    11 CYCLES
 CYCLE  11   ALPHA  408.895713  EPSILON    2.090565  DELTA    1.7811E-03
 TTTTTTTTTTTTTTTTTTTTTTTTTTTTTT MOQGAD      TELAPSE   286236.56 TCPU   283945.71
 TTTTTTTTTTTTTTTTTTTTTTTTTTTTTT CP_MONMON   TELAPSE   286253.22 TCPU   283962.29
 DIIS TEST: 0.61386E-03 AT CPHF  CYCLE  12 - DIIS ACTIVE - HISTORY:    12 CYCLES
 CYCLE  12   ALPHA  408.892142  EPSILON    2.090556  DELTA   -3.5710E-03
 TTTTTTTTTTTTTTTTTTTTTTTTTTTTTT MOQGAD      TELAPSE   287000.24 TCPU   284704.47
 TTTTTTTTTTTTTTTTTTTTTTTTTTTTTT CP_MONMON   TELAPSE   287016.92 TCPU   284721.10
 DIIS TEST: 0.11804E-03 AT CPHF  CYCLE  13 - DIIS ACTIVE - HISTORY:    13 CYCLES
 CYCLE  13   ALPHA  408.889436  EPSILON    2.090549  DELTA   -2.7059E-03
 TTTTTTTTTTTTTTTTTTTTTTTTTTTTTT MOQGAD      TELAPSE   287767.97 TCPU   285467.45
 TTTTTTTTTTTTTTTTTTTTTTTTTTTTTT CP_MONMON   TELAPSE   287784.61 TCPU   285484.04
 DIIS TEST: 0.44478E-04 AT CPHF  CYCLE  14 - DIIS ACTIVE - HISTORY:    14 CYCLES
 CYCLE  14   ALPHA  408.889468  EPSILON    2.090549  DELTA    3.2003E-05
 TTTTTTTTTTTTTTTTTTTTTTTTTTTTTT CP_SC       TELAPSE   287829.66 TCPU   285523.24

 *******************************************************************************

 POLARIZABILITY (ALPHA), DIELECTRIC (EPSILON) AND FIRST-ORDER ELECTRIC
 SUSCEPTIBILITY (CHI(1)) TENSORS (INDEPENDENT COMPONENTS)

  FR.(eV) COMP.   ALPHA(Re,Im)           EPSILON(Re,Im)                CHI(1)
  1.435   XX     862.3534       0.0000       3.3000       0.0000       2.3000
  1.435   ZZ     408.8895       0.0000       2.0905       0.0000       1.0905

 DIELECTRIC TENSOR

 TENSOR IN PRINCIPAL AXES SYSTEM
 AA  3.299982E+00 BB  3.299982E+00 CC  2.090549E+00

 REFRACTIVE INDICES 
 AA  1.445873E+00 BB  1.816585E+00 CC  1.816585E+00

 OPTICALLY ANISOTROPIC - UNIAXIAL CRYSTAL

 BIREFRINGENCE =  0.3707 (NEGATIVE) - OBLATE OPTICAL ELLIPSOID

 EPSILON=N**2=1+CHI(1)=1+ALPHA*4*PI/V,   4*PI/V=   0.00267 BOHR**(-3)
 ALPHA IN BOHR**3; EPSILON AND CHI(1) ARE DIMENSIONLESS.
 *******************************************************************************

 DYNAMIC FIELD: RUN 10/ 10 - RADIATION WAVELENGTH: 1064.0000 NM

 *******************************************************************************

 ELECTRIC FIELD APPLIED ALONG CARTESIAN DIRECTION X

 *******************************************************************************
 THE NUMBER OF SYMMETRY OPERATORS HAS BEEN REDUCED FROM  4 TO  1

 NEW GRID IN RECIPROCAL SPACE
 *******************************************************************************
 POINTS IN THE IBZ                  14 SHRINKING FACTORS               3  3  3
 *******************************************************************************
 *** K POINTS COORDINATES (OBLIQUE COORDINATES IN UNITS OF SHRINK FAC. )
   1-R(  0  0  0)   2-C(  1  0  0)   3-C(  0  1  2)   4-C(  2  0  1)
   5-C(  0  2  0)   6-C(  1  1  0)   7-C(  1  1  1)   8-C(  1  0  1)
   9-C(  0  1  1)  10-C(  2  1  0)  11-C(  0  0  2)  12-C(  2  1  1)
  13-C(  2  1  2)  14-C(  2  2  1)

 GCALCO - MAX INDICES DIRECT LATTICE VECTOR    14    14    16
 NO.OF VECTORS CREATED 6999 STARS  486 RMAX   199.67157 BOHR
 TTTTTTTTTTTTTTTTTTTTTTTTTTTTTT gordsh1     TELAPSE   287829.68 TCPU   285523.25

 MATRIX SIZE: P(G) 1806544, F(G)  904250, P(G) IRR  906456, F(G) IRR  906456
 MAX G-VECTOR INDEX FOR 1- AND 2-ELECTRON INTEGRALS  59

 TTTTTTTTTTTTTTTTTTTTTTTTTTTTTT INPUT       TELAPSE   287830.02 TCPU   285523.60
 TTTTTTTTTTTTTTTTTTTTTTTTTTTTTT SYMM        TELAPSE   287830.02 TCPU   285523.60

 ***** NEW REFERENCE GEOMETRY *****
 TTTTTTTTTTTTTTTTTTTTTTTTTTTTTT INT_SCREEN  TELAPSE   287830.04 TCPU   285523.61
 INFORMATION **** EXCBUF **** EXCH. BIPO BUFFER: WORDS USED =           0

 DFT PARAMETERS

     ATOM       ELECTRONS   NET CHARGE   R(ANGSTROM)
   1   1  H       1.0000      0.0000     1.11000000
   9   6  C       6.0000      0.0000     0.77000000
  33   7  N       7.0000      0.0000     0.74000000
  53   9  F       9.0000      0.0000     0.72000000
  61  30  ZN     30.0000      0.0000     1.37000000

 SIZE OF GRID=    1902148
 TTTTTTTTTTTTTTTTTTTTTTTTTTTTTT MAKE_GRID2  TELAPSE   287832.32 TCPU   285525.88
 BECKE WEIGHT FUNCTION
 RADSAFE =     2.00
 TOLERANCES - DENSITY:10**- 6; POTENTIAL:10**- 9; GRID WGT:10**-14

 RADIAL INTEGRATION  - INTERVALS (POINTS,UPPER LIMIT):            1( 75,  4.0*R)

 ANGULAR INTEGRATION - INTERVALS (ACCURACY LEVEL [N. POINTS] UPPER LIMIT):
  1(  4[  86]   0.2)  2(  8[ 194]   0.5)  3( 12[ 350]   0.9)  4( 16[ 974]   3.5)
  5( 12[ 350]9999.0)
 TTTTTTTTTTTTTTTTTTTTTTTTTTTTTT INT_CALC    TELAPSE   287832.43 TCPU   285525.99
 CYCLE   0   ALPHA 1224.999358  EPSILON    4.267195  DELTA    1.2250E+03
 TTTTTTTTTTTTTTTTTTTTTTTTTTTTTT MOQGAD      TELAPSE   289267.67 TCPU   286956.16
 TTTTTTTTTTTTTTTTTTTTTTTTTTTTTT CP_MONMON   TELAPSE   289298.06 TCPU   286986.46
 DIIS TEST: 0.35187E+03 AT CPHF  CYCLE   1 - MIX    0 %
 CYCLE   1   ALPHA   45.859542  EPSILON    1.122312  DELTA   -1.1791E+03
 TTTTTTTTTTTTTTTTTTTTTTTTTTTTTT MOQGAD      TELAPSE   290761.35 TCPU   288440.26
 TTTTTTTTTTTTTTTTTTTTTTTTTTTTTT CP_MONMON   TELAPSE   290791.79 TCPU   288470.48
 DIIS TEST: 0.26714E+04 AT CPHF  CYCLE   2 - DIIS ACTIVE - HISTORY:     2 CYCLES
 CYCLE   2   ALPHA  792.938137  EPSILON    3.114844  DELTA    7.4708E+02
 TTTTTTTTTTTTTTTTTTTTTTTTTTTTTT MOQGAD      TELAPSE   292257.95 TCPU   289926.89
 TTTTTTTTTTTTTTTTTTTTTTTTTTTTTT CP_MONMON   TELAPSE   292288.63 TCPU   289957.50
 DIIS TEST: 0.69197E+02 AT CPHF  CYCLE   3 - DIIS ACTIVE - HISTORY:     3 CYCLES
 CYCLE   3   ALPHA  831.726133  EPSILON    3.218296  DELTA    3.8788E+01
 TTTTTTTTTTTTTTTTTTTTTTTTTTTTTT MOQGAD      TELAPSE   293743.31 TCPU   291405.58
 TTTTTTTTTTTTTTTTTTTTTTTTTTTTTT CP_MONMON   TELAPSE   293773.98 TCPU   291436.16
 DIIS TEST: 0.29573E+01 AT CPHF  CYCLE   4 - DIIS ACTIVE - HISTORY:     4 CYCLES
 CYCLE   4   ALPHA  842.823179  EPSILON    3.247893  DELTA    1.1097E+01
 TTTTTTTTTTTTTTTTTTTTTTTTTTTTTT MOQGAD      TELAPSE   295222.72 TCPU   292878.09
 TTTTTTTTTTTTTTTTTTTTTTTTTTTTTT CP_MONMON   TELAPSE   295253.17 TCPU   292908.48
 DIIS TEST: 0.11367E+01 AT CPHF  CYCLE   5 - DIIS ACTIVE - HISTORY:     5 CYCLES
 CYCLE   5   ALPHA  848.448233  EPSILON    3.262895  DELTA    5.6251E+00
 TTTTTTTTTTTTTTTTTTTTTTTTTTTTTT MOQGAD      TELAPSE   296721.89 TCPU   294367.12
 TTTTTTTTTTTTTTTTTTTTTTTTTTTTTT CP_MONMON   TELAPSE   296752.56 TCPU   294397.67
 DIIS TEST: 0.69614E-01 AT CPHF  CYCLE   6 - DIIS ACTIVE - HISTORY:     6 CYCLES
 CYCLE   6   ALPHA  849.692246  EPSILON    3.266213  DELTA    1.2440E+00
 TTTTTTTTTTTTTTTTTTTTTTTTTTTTTT MOQGAD      TELAPSE   298184.15 TCPU   295818.53
 TTTTTTTTTTTTTTTTTTTTTTTTTTTTTT CP_MONMON   TELAPSE   298214.57 TCPU   295848.88
 DIIS TEST: 0.65819E-02 AT CPHF  CYCLE   7 - DIIS ACTIVE - HISTORY:     7 CYCLES
 CYCLE   7   ALPHA  849.862939  EPSILON    3.266669  DELTA    1.7069E-01
 TTTTTTTTTTTTTTTTTTTTTTTTTTTTTT MOQGAD      TELAPSE   299639.49 TCPU   297267.82
 TTTTTTTTTTTTTTTTTTTTTTTTTTTTTT CP_MONMON   TELAPSE   299669.91 TCPU   297298.18
 DIIS TEST: 0.93530E-03 AT CPHF  CYCLE   8 - DIIS ACTIVE - HISTORY:     8 CYCLES
 CYCLE   8   ALPHA  849.931123  EPSILON    3.266850  DELTA    6.8183E-02
 TTTTTTTTTTTTTTTTTTTTTTTTTTTTTT MOQGAD      TELAPSE   301109.37 TCPU   298731.70
 TTTTTTTTTTTTTTTTTTTTTTTTTTTTTT CP_MONMON   TELAPSE   301139.86 TCPU   298762.11
 DIIS TEST: 0.66061E-04 AT CPHF  CYCLE   9 - DIIS ACTIVE - HISTORY:     9 CYCLES
 CYCLE   9   ALPHA  849.916910  EPSILON    3.266813  DELTA   -1.4212E-02
 TTTTTTTTTTTTTTTTTTTTTTTTTTTTTT MOQGAD      TELAPSE   302595.78 TCPU   300212.03
 TTTTTTTTTTTTTTTTTTTTTTTTTTTTTT CP_MONMON   TELAPSE   302626.44 TCPU   300242.57
 DIIS TEST: 0.12459E-04 AT CPHF  CYCLE  10 - DIIS ACTIVE - HISTORY:    10 CYCLES
 CYCLE  10   ALPHA  849.904424  EPSILON    3.266779  DELTA   -1.2486E-02
 TTTTTTTTTTTTTTTTTTTTTTTTTTTTTT MOQGAD      TELAPSE   304072.10 TCPU   301679.92
 TTTTTTTTTTTTTTTTTTTTTTTTTTTTTT CP_MONMON   TELAPSE   304102.50 TCPU   301710.21
 DIIS TEST: 0.19247E-05 AT CPHF  CYCLE  11 - DIIS ACTIVE - HISTORY:    11 CYCLES
 CYCLE  11   ALPHA  849.898682  EPSILON    3.266764  DELTA   -5.7427E-03
 TTTTTTTTTTTTTTTTTTTTTTTTTTTTTT MOQGAD      TELAPSE   305536.17 TCPU   303132.97
 TTTTTTTTTTTTTTTTTTTTTTTTTTTTTT CP_MONMON   TELAPSE   305566.63 TCPU   303163.30
 DIIS TEST: 0.25425E-06 AT CPHF  CYCLE  12 - DIIS ACTIVE - HISTORY:    12 CYCLES
 CYCLE  12   ALPHA  849.897506  EPSILON    3.266761  DELTA   -1.1754E-03
 TTTTTTTTTTTTTTTTTTTTTTTTTTTTTT MOQGAD      TELAPSE   307017.19 TCPU   304605.07
 TTTTTTTTTTTTTTTTTTTTTTTTTTTTTT CP_MONMON   TELAPSE   307047.61 TCPU   304635.41
 DIIS TEST: 0.22334E-07 AT CPHF  CYCLE  13 - DIIS ACTIVE - HISTORY:    13 CYCLES
 CYCLE  13   ALPHA  849.897064  EPSILON    3.266760  DELTA   -4.4205E-04
 TTTTTTTTTTTTTTTTTTTTTTTTTTTTTT CP_SC       TELAPSE   307100.44 TCPU   304682.82

 *******************************************************************************

 ELECTRIC FIELD APPLIED ALONG CARTESIAN DIRECTION Z

 *******************************************************************************
 THE NUMBER OF SYMMETRY OPERATORS HAS BEEN REDUCED FROM  4 TO  2

 NEW GRID IN RECIPROCAL SPACE
 *******************************************************************************
 POINTS IN THE IBZ                  10 SHRINKING FACTORS               3  3  3
 *******************************************************************************
 *** K POINTS COORDINATES (OBLIQUE COORDINATES IN UNITS OF SHRINK FAC. )
   1-R(  0  0  0)   2-C(  1  0  0)   3-C(  2  0  1)   4-C(  1  1  0)
   5-C(  1  0  1)   6-C(  2  1  0)   7-C(  0  0  2)   8-C(  2  1  1)
   9-C(  2  1  2)  10-C(  2  2  1)

 GCALCO - MAX INDICES DIRECT LATTICE VECTOR    14    14    16
 NO.OF VECTORS CREATED 6999 STARS  486 RMAX   199.67157 BOHR
 TTTTTTTTTTTTTTTTTTTTTTTTTTTTTT gordsh1     TELAPSE   307100.45 TCPU   304682.83

 MATRIX SIZE: P(G) 1806544, F(G)  904250, P(G) IRR  455706, F(G) IRR  455706
 MAX G-VECTOR INDEX FOR 1- AND 2-ELECTRON INTEGRALS  59

 TTTTTTTTTTTTTTTTTTTTTTTTTTTTTT INPUT       TELAPSE   307100.55 TCPU   304682.92
 TTTTTTTTTTTTTTTTTTTTTTTTTTTTTT SYMM        TELAPSE   307100.55 TCPU   304682.92

 ***** NEW REFERENCE GEOMETRY *****
 TTTTTTTTTTTTTTTTTTTTTTTTTTTTTT INT_SCREEN  TELAPSE   307100.56 TCPU   304682.93
 INFORMATION **** EXCBUF **** EXCH. BIPO BUFFER: WORDS USED =           0

 DFT PARAMETERS

     ATOM       ELECTRONS   NET CHARGE   R(ANGSTROM)
   1   1  H       1.0000      0.0000     1.11000000
   9   6  C       6.0000      0.0000     0.77000000
  33   7  N       7.0000      0.0000     0.74000000
  53   9  F       9.0000      0.0000     0.72000000
  61  30  ZN     30.0000      0.0000     1.37000000

 SIZE OF GRID=     951190
 TTTTTTTTTTTTTTTTTTTTTTTTTTTTTT MAKE_GRID2  TELAPSE   307101.94 TCPU   304684.31
 BECKE WEIGHT FUNCTION
 RADSAFE =     2.00
 TOLERANCES - DENSITY:10**- 6; POTENTIAL:10**- 9; GRID WGT:10**-14

 RADIAL INTEGRATION  - INTERVALS (POINTS,UPPER LIMIT):            1( 75,  4.0*R)

 ANGULAR INTEGRATION - INTERVALS (ACCURACY LEVEL [N. POINTS] UPPER LIMIT):
  1(  4[  86]   0.2)  2(  8[ 194]   0.5)  3( 12[ 350]   0.9)  4( 16[ 974]   3.5)
  5( 12[ 350]9999.0)
 TTTTTTTTTTTTTTTTTTTTTTTTTTTTTT INT_CALC    TELAPSE   307102.01 TCPU   304684.38
 CYCLE   0   ALPHA  510.337739  EPSILON    2.361121  DELTA    5.1034E+02
 TTTTTTTTTTTTTTTTTTTTTTTTTTTTTT MOQGAD      TELAPSE   307819.34 TCPU   305399.26
 TTTTTTTTTTTTTTTTTTTTTTTTTTTTTT CP_MONMON   TELAPSE   307835.99 TCPU   305415.85
 DIIS TEST: 0.52092E+02 AT CPHF  CYCLE   1 - MIX    0 %
 CYCLE   1   ALPHA  287.957748  EPSILON    1.768012  DELTA   -2.2238E+02
 TTTTTTTTTTTTTTTTTTTTTTTTTTTTTT MOQGAD      TELAPSE   308565.73 TCPU   306139.37
 TTTTTTTTTTTTTTTTTTTTTTTTTTTTTT CP_MONMON   TELAPSE   308582.27 TCPU   306155.84
 DIIS TEST: 0.26254E+03 AT CPHF  CYCLE   2 - DIIS ACTIVE - HISTORY:     2 CYCLES
 CYCLE   2   ALPHA  382.328023  EPSILON    2.019707  DELTA    9.4370E+01
 TTTTTTTTTTTTTTTTTTTTTTTTTTTTTT MOQGAD      TELAPSE   309319.49 TCPU   306887.44
 TTTTTTTTTTTTTTTTTTTTTTTTTTTTTT CP_MONMON   TELAPSE   309336.01 TCPU   306903.92
 DIIS TEST: 0.17660E+03 AT CPHF  CYCLE   3 - DIIS ACTIVE - HISTORY:     3 CYCLES
 CYCLE   3   ALPHA  385.148313  EPSILON    2.027229  DELTA    2.8203E+00
 TTTTTTTTTTTTTTTTTTTTTTTTTTTTTT MOQGAD      TELAPSE   310075.07 TCPU   307637.23
 TTTTTTTTTTTTTTTTTTTTTTTTTTTTTT CP_MONMON   TELAPSE   310091.71 TCPU   307653.78
 DIIS TEST: 0.13484E+04 AT CPHF  CYCLE   4 - DIIS ACTIVE - HISTORY:     4 CYCLES
 CYCLE   4   ALPHA  404.700286  EPSILON    2.079376  DELTA    1.9552E+01
 TTTTTTTTTTTTTTTTTTTTTTTTTTTTTT MOQGAD      TELAPSE   310820.40 TCPU   308375.44
 TTTTTTTTTTTTTTTTTTTTTTTTTTTTTT CP_MONMON   TELAPSE   310837.09 TCPU   308392.05
 DIIS TEST: 0.38018E+01 AT CPHF  CYCLE   5 - DIIS ACTIVE - HISTORY:     5 CYCLES
 CYCLE   5   ALPHA  405.176749  EPSILON    2.080646  DELTA    4.7646E-01
 TTTTTTTTTTTTTTTTTTTTTTTTTTTTTT MOQGAD      TELAPSE   311560.08 TCPU   309109.22
 TTTTTTTTTTTTTTTTTTTTTTTTTTTTTT CP_MONMON   TELAPSE   311576.75 TCPU   309125.83
 DIIS TEST: 0.15597E+01 AT CPHF  CYCLE   6 - DIIS ACTIVE - HISTORY:     6 CYCLES
 CYCLE   6   ALPHA  405.697410  EPSILON    2.082035  DELTA    5.2066E-01
 TTTTTTTTTTTTTTTTTTTTTTTTTTTTTT MOQGAD      TELAPSE   312313.83 TCPU   309856.39
 TTTTTTTTTTTTTTTTTTTTTTTTTTTTTT CP_MONMON   TELAPSE   312330.50 TCPU   309873.01
 DIIS TEST: 0.24702E+01 AT CPHF  CYCLE   7 - DIIS ACTIVE - HISTORY:     7 CYCLES
 CYCLE   7   ALPHA  405.876335  EPSILON    2.082512  DELTA    1.7893E-01
 TTTTTTTTTTTTTTTTTTTTTTTTTTTTTT MOQGAD      TELAPSE   313055.28 TCPU   310590.60
 TTTTTTTTTTTTTTTTTTTTTTTTTTTTTT CP_MONMON   TELAPSE   313071.81 TCPU   310607.08
 DIIS TEST: 0.14846E+01 AT CPHF  CYCLE   8 - DIIS ACTIVE - HISTORY:     8 CYCLES
 CYCLE   8   ALPHA  405.963193  EPSILON    2.082744  DELTA    8.6858E-02
 TTTTTTTTTTTTTTTTTTTTTTTTTTTTTT MOQGAD      TELAPSE   313799.73 TCPU   311328.13
 TTTTTTTTTTTTTTTTTTTTTTTTTTTTTT CP_MONMON   TELAPSE   313816.40 TCPU   311344.73
 DIIS TEST: 0.88781E-01 AT CPHF  CYCLE   9 - DIIS ACTIVE - HISTORY:     9 CYCLES
 CYCLE   9   ALPHA  406.038563  EPSILON    2.082945  DELTA    7.5370E-02
 TTTTTTTTTTTTTTTTTTTTTTTTTTTTTT MOQGAD      TELAPSE   314543.02 TCPU   312064.93
 TTTTTTTTTTTTTTTTTTTTTTTTTTTTTT CP_MONMON   TELAPSE   314559.53 TCPU   312081.38
 DIIS TEST: 0.53369E-02 AT CPHF  CYCLE  10 - DIIS ACTIVE - HISTORY:    10 CYCLES
 CYCLE  10   ALPHA  406.048887  EPSILON    2.082973  DELTA    1.0324E-02
 TTTTTTTTTTTTTTTTTTTTTTTTTTTTTT MOQGAD      TELAPSE   315311.83 TCPU   312826.52
 TTTTTTTTTTTTTTTTTTTTTTTTTTTTTT CP_MONMON   TELAPSE   315328.34 TCPU   312842.97
 DIIS TEST: 0.83957E-03 AT CPHF  CYCLE  11 - DIIS ACTIVE - HISTORY:    11 CYCLES
 CYCLE  11   ALPHA  406.049641  EPSILON    2.082975  DELTA    7.5444E-04
 TTTTTTTTTTTTTTTTTTTTTTTTTTTTTT CP_SC       TELAPSE   315369.93 TCPU   312879.51

 *******************************************************************************

 POLARIZABILITY (ALPHA), DIELECTRIC (EPSILON) AND FIRST-ORDER ELECTRIC
 SUSCEPTIBILITY (CHI(1)) TENSORS (INDEPENDENT COMPONENTS)

  FR.(eV) COMP.   ALPHA(Re,Im)           EPSILON(Re,Im)                CHI(1)
  1.165   XX     849.8971       0.0000       3.2668       0.0000       2.2668
  1.165   ZZ     406.0496       0.0000       2.0830       0.0000       1.0830

 DIELECTRIC TENSOR

 TENSOR IN PRINCIPAL AXES SYSTEM
 AA  3.266760E+00 BB  3.266760E+00 CC  2.082975E+00

 REFRACTIVE INDICES 
 AA  1.443251E+00 BB  1.807418E+00 CC  1.807418E+00

 OPTICALLY ANISOTROPIC - UNIAXIAL CRYSTAL

 BIREFRINGENCE =  0.3642 (NEGATIVE) - OBLATE OPTICAL ELLIPSOID

 EPSILON=N**2=1+CHI(1)=1+ALPHA*4*PI/V,   4*PI/V=   0.00267 BOHR**(-3)
 ALPHA IN BOHR**3; EPSILON AND CHI(1) ARE DIMENSIONLESS.
 *******************************************************************************


 GCALCO - MAX INDICES DIRECT LATTICE VECTOR    14    14    16
 NO.OF VECTORS CREATED 6999 STARS  486 RMAX   199.67157 BOHR

 CAPPA:IS1  3;IS2  3;IS3  3; K PTS MONK NET   6; SYMMOPS:K SPACE   8;G SPACE   4

 TTTTTTTTTTTTTTTTTTTTTTTTTTTTTT END         TELAPSE   315370.00 TCPU   312879.51
 EEEEEEEEEE TERMINATION  DATE 01 12 2023 TIME 02:55:45.6
NODE    0 CPU TIME =    312879.514
NODE    1 CPU TIME =    313519.528
NODE    2 CPU TIME =    312871.839
NODE    3 CPU TIME =    312716.945
NODE    4 CPU TIME =    313380.221
NODE    5 CPU TIME =    313453.779
NODE    6 CPU TIME =    312751.207
NODE    7 CPU TIME =    312676.406
NODE    8 CPU TIME =    313228.624
NODE    9 CPU TIME =    313445.538
NODE   10 CPU TIME =    312620.431
NODE   11 CPU TIME =    312489.407
NODE   12 CPU TIME =    313096.325
NODE   13 CPU TIME =    313299.969
NODE   14 CPU TIME =    312512.557
NODE   15 CPU TIME =    312382.547
NODE   16 CPU TIME =    312900.815
NODE   17 CPU TIME =    313138.579
NODE   18 CPU TIME =    312387.389
NODE   19 CPU TIME =    312423.382
NODE   20 CPU TIME =    312875.656
NODE   21 CPU TIME =    313094.236
NODE   22 CPU TIME =    312326.884
NODE   23 CPU TIME =    312120.372
    TOTAL CPU TIME =   7508592.148
trying normal rsh (/usr/bin/rsh)
exec: No such file or directory
trying normal rsh (/usr/bin/rsh)
exec: No such file or directory
trying normal rsh (/usr/bin/rsh)
exec: No such file or directory
trying normal rsh (/usr/bin/rsh)
exec: No such file or directory
