Loading crystal17/1.0.2/intel/19.0
  Loading requirement: intel/19.0 ompi/4.0.1/intel/19.0
 PROCESS            1  OF           24  WORKING
 PROCESS            9  OF           24  WORKING
 PROCESS           17  OF           24  WORKING
 PROCESS            2  OF           24  WORKING
 PROCESS            5  OF           24  WORKING
 PROCESS           11  OF           24  WORKING
 PROCESS           14  OF           24  WORKING
 PROCESS           15  OF           24  WORKING
 PROCESS            4  OF           24  WORKING
 PROCESS            7  OF           24  WORKING
 PROCESS           10  OF           24  WORKING
 PROCESS           12  OF           24  WORKING
 PROCESS           16  OF           24  WORKING
 PROCESS            0  OF           24  WORKING
 PROCESS           23  OF           24  WORKING
 PROCESS            3  OF           24  WORKING
 PROCESS            6  OF           24  WORKING
 PROCESS            8  OF           24  WORKING
 PROCESS           13  OF           24  WORKING
 PROCESS           19  OF           24  WORKING
 PROCESS           20  OF           24  WORKING
 PROCESS           18  OF           24  WORKING
 PROCESS           21  OF           24  WORKING

         
 *******************************************************************************
 *                                                                             *
 *                               CRYSTAL17                                     *
 *                      public : 1.0.2 - March 1st, 2018                       *
 *                       HTTP://WWW.CRYSTAL.UNITO.IT                           *
 *                                                                             *
 *                              MAIN AUTHORS                                   *
 *                                                                             *
 *  R. DOVESI(1,11), V.R. SAUNDERS(2), C. ROETTI(1,11), R. ORLANDO(1,11),      *
 *  C.M. ZICOVICH-WILSON(1,3), F. PASCALE(4), B. CIVALLERI(1,11),              *
 *  K. DOLL(5), N.M. HARRISON(2,6), I.J. BUSH(7), Ph. D'ARCO(8),               *
 *  M. LLUNELL(9), M. CAUSA'(10), Y. NOEL(8), L. MASCHIO(1,11), A. ERBA(1,11)  *
 *  M. RE'RAT(14), S. CASASSA(1,11)                                            *
 *                                                                             *
 *        CONTRIBUTIONS TO THE CODE HAVE ALSO BEEN GIVEN BY                    *
 *                                                                             *
 *  M. FERRABONE(1,11), M. DE LA PIERRE(1,11), M. FERRERO(1,11),               *
 *  J. BAIMA(1,11), E. ALBANESE(1,11), M.F. PEINTINGER(12), R. BAST(13),       *
 *  B. KIRTMAN(15), V. LACIVITA(1,11), R. DEMICHELIS(1,16)                     *
 *  G. BRANDEBURG(17), S. SALUSTRO(1,11), G. SANSONE(1,11)                     *
 *  M.T. RUGGIERO(18)                                                          *
 *                                                                             *
 * (1) THEORETICAL CHEMISTRY GROUP - UNIVERSITA' DI TORINO - TORINO (ITALY)    *
 * (2) COMPUTATIONAL SCIENCE & ENGINEERING DEPARTMENT - STFC DARESBURY (UK)    *
 * (3) UNIVERSIDAD AUTONOMA DEL ESTADO DE MORELOS - CUERNAVACA (MEXICO)        *
 * (4) UNIVERSITE' DE LORRAINE - NANCY (FRANCE)                                *
 * (5) UNIVERSITAET STUTTGART- STUTTGART (GERMANY)                             *
 * (6) IMPERIAL COLLEGE - LONDON (UK)                                          *
 * (7) OXFORD E-RESEARCH CENTRE - OXFORD (UK)                                  *
 * (8) UPMC - SORBONNE UNIVERSITES - PARIS (FRANCE)                            *
 * (9) UNIVERSIDAD DE BARCELONA - BARCELONA (SPAIN)                            *
 *(10) UNIVERSITA' DI NAPOLI "FEDERICO II" - NAPOLI (ITALY)                    *
 *(11) NIS - NANOSTRUCTURED INTERFACES AND SURFACES - TORINO (ITALY)           *
 *(12) MPI FUER CHEMISCHE ENERGIEKONVERSION - MUELHEIM AN DER RUHR (GERMANY)   *
 *(13) UNIVERSITY OF TROMSO - TROMSO (NORWAY)                                  *
 *(14) UNIVERSITE' DE PAU ET DES PAYS DE L'ADOUR - PAU (FRANCE)                *
 *(15) UNIVERSITY OF CALIFORNIA SANTA BARBARA - SANTA BARBARA (USA)            *
 *(16) CURTIN UNIVERSITY - PERTH (AUSTRALIA)                                   *
 *(17) UNIVERSITY COLLEGE LONDON - LONDON (UK)                                 *
 *(18) CAMBRIDGE UNIVERSITY - CAMBRIDGE (UK)                                   *
 *                                                                             *
 *******************************************************************************
 EEEEEEEEEE STARTING  DATE 29 11 2023 TIME 09:37:52.0
 Z:\home\sanoj\Downloads\tmp_p\newconn.mol                                       

 CRYSTAL CALCULATION
 (INPUT ACCORDING TO THE INTERNATIONAL TABLES FOR X-RAY CRYSTALLOGRAPHY)
 CRYSTAL FAMILY                       :  TETRAGONAL  
 CRYSTAL CLASS  (GROTH - 1921)        :  TETRAGONAL DISPHENOIDAL              

 SPACE GROUP (NONCENTROSYMMETRIC)     :  I -4            

 LATTICE PARAMETERS  (ANGSTROMS AND DEGREES) - CONVENTIONAL CELL
        A           B           C        ALPHA        BETA       GAMMA
    10.28747    10.28747    13.32167    90.00000    90.00000    90.00000


 NUMBER OF IRREDUCIBLE ATOMS IN THE CONVENTIONAL PROCESS           22  OF           24  WORKING
 CELL:   17

 INPUT COORDINATES

 ATOM AT. N.              COORDINATES
   1   1     7.149000000000E-02  7.482700000000E-01  3.467200000000E-01
   2   1     3.710700000000E-01  4.538800000000E-01  3.754500000000E-01
   3   6     2.669800000000E-01  8.147500000000E-01  3.872900000000E-01
   4   6     2.490600000000E-01 -4.514000000000E-02  3.759500000000E-01
   5   6     1.717100000000E-01  7.215100000000E-01  3.644700000000E-01
   6   6     3.390900000000E-01  5.552300000000E-01  3.799300000000E-01
   7   6     3.910500000000E-01  7.671000000000E-01  4.113900000000E-01
   8   6     7.892100000000E-01  4.082800000000E-01  3.611300000000E-01
   9   7     3.317500000000E-01  3.232000000000E-02  3.240700000000E-01
  10   7     2.818300000000E-01  1.561700000000E-01  3.275200000000E-01
  11   7     1.504400000000E-01  2.832000000000E-02  4.107700000000E-01
  12   7     1.723500000000E-01  1.540900000000E-01  3.789300000000E-01
  13   7     4.281600000000E-01  6.449200000000E-01  4.066900000000E-01
  14   9     4.815500000000E-01  8.535600000000E-01  4.428800000000E-01
  15   9     1.256400000000E-01  4.977600000000E-01  3.363400000000E-01
  16  30     0.000000000000E+00  5.000000000000E-01  7.500000000000E-01
  17  30     0.000000000000E+00  0.000000000000E+00  5.000000000000E-01

 *******************************************************************************

 << INFORMATION >>: FROM NOW ON, ALL COORDINATES REFER TO THE PRIMITIVE CELL

 *******************************************************************************

 LATTICE PARAMETERS  (ANGSTROMS AND DEGREES) - PRIMITIVE CELL
       A          B          C        ALPHA      BETA     GAMMA        VOLUME
    9.86320    9.86320    9.86320   117.13314 117.13314  95.04169    704.929968

 COORDINATES OF THE EQUIVALENT ATOMS (FRACTIONAL UNITS)

 N. ATOM EQUIV AT. N.          X                  Y                  Z

   1   1   1    1 H     9.49900000000E-02  4.18210000000E-01 -1.80240000000E-01
   2   1   2    1 H    -4.01550000000E-01  2.75230000000E-01  1.80240000000E-01
   3   1   3    1 H    -4.18210000000E-01  4.01550000000E-01 -3.23220000000E-01
   4   1   4    1 H    -2.75230000000E-01 -9.49900000000E-02  3.23220000000E-01

   5   2   1    1 H    -1.70670000000E-01 -2.53480000000E-01 -1.75050000000E-01
   6   2   2    1 H    -7.84300000000E-02  4.38000000000E-03  1.75050000000E-01
   7   2   3    1 H     2.53480000000E-01  7.84300000000E-02  8.28100000000E-02
   8   2   4    1 H    -4.38000000000E-03  1.70670000000E-01 -8.28100000000E-02

   9   3   1    6 C     2.02040000000E-01 -3.45730000000E-01  8.17300000000E-02
  10   3   2    6 C    -4.27460000000E-01  1.20310000000E-01 -8.17300000000E-02
  11   3   3    6 C     3.45730000000E-01  4.27460000000E-01 -4.52230000000E-01
  12   3   4    6 C    -1.20310000000E-01 -2.02040000000E-01  4.52230000000E-01

  13   4   1    6 C     3.30810000000E-01 -3.74990000000E-01  2.03920000000E-01
  14   4   2    6 C     4.21090000000E-01  1.26890000000E-01 -2.03920000000E-01
  15   4   3    6 C     3.74990000000E-01 -4.21090000000E-01 -2.94200000000E-01
  16   4   4    6 C    -1.26890000000E-01 -3.30810000000E-01  2.94200000000E-01

  17   5   1    6 C     8.59800000000E-02 -4.63820000000E-01 -1.06780000000E-01
  18   5   2    6 C    -3.57040000000E-01  1.92760000000E-01  1.06780000000E-01
  19   5   3    6 C     4.63820000000E-01  3.57040000000E-01 -4.50200000000E-01
  20   5   4    6 C    -1.92760000000E-01 -8.59800000000E-02  4.50200000000E-01

  21   6   1    6 C    -6.48400000000E-02 -2.80980000000E-01 -1.05680000000E-01
  22   6   2    6 C    -1.75300000000E-01  4.08400000000E-02  1.05680000000E-01
  23   6   3    6 C     2.80980000000E-01  1.75300000000E-01  2.16140000000E-01
  24   6   4    6 C    -4.08400000000E-02  6.48400000000E-02 -2.16140000000E-01

  25   7   1    6 C     1.78490000000E-01 -1.97560000000E-01  1.58150000000E-01
  26   7   2    6 C    -3.55710000000E-01  2.03400000000E-02 -1.58150000000E-01
  27   7   3    6 C     1.97560000000E-01  3.55710000000E-01  3.76050000000E-01
  28   7   4    6 C    -2.03400000000E-02 -1.78490000000E-01 -3.76050000000E-01

  29   8   1    6 C    -2.30590000000E-01  1.50340000000E-01  1.97490000000E-01
  30   8   2    6 C    -4.71500000000E-02 -4.28080000000E-01 -1.97490000000E-01
  31   8   3    6 C    -1.50340000000E-01  4.71500000000E-02 -3.80930000000E-01
  32   8   4    6 C     4.28080000000E-01  2.30590000000E-01  3.80930000000E-01

  33   9   1    7 N     3.56390000000E-01 -3.44180000000E-01  3.64070000000E-01
  34   9   2    7 N     2.91750000000E-01 -7.68000000000E-03 -3.64070000000E-01
  35   9   3    7 N     3.44180000000E-01 -2.91750000000E-01 -2.99430000000E-01
  36   9   4    7 N     7.68000000000E-03 -3.56390000000E-01  2.99430000000E-01

  37  10   1    7 N     4.83690000000E-01 -3.90650000000E-01  4.38000000000E-01
  38  10   2    7 N     1.71350000000E-01  4.56900000000E-02 -4.38000000000E-01
  39  10   3    7 N     3.90650000000E-01 -1.71350000000E-01 -1.25660000000E-01
  40  10   4    7 N    -4.56900000000E-02 -4.83690000000E-01  1.25660000000E-01

  41  11   1    7 N     4.39090000000E-01 -4.38790000000E-01  1.78760000000E-01
  42  11   2    7 N     3.82450000000E-01  2.60330000000E-01 -1.78760000000E-01
  43  11   3    7 N     4.38790000000E-01 -3.82450000000E-01 -1.22120000000E-01
  44  11   4    7 N    -2.60330000000E-01 -4.39090000000E-01  1.22120000000E-01

  45  12   1    7 N    -4.66980000000E-01 -4.48720000000E-01  3.26440000000E-01
  46  12   2    7 N     2.24840000000E-01  2.06580000000E-01 -3.26440000000E-01
  47  12   3    7 N     4.48720000000E-01 -2.24840000000E-01 -1.82600000000E-02
  48  12   4    7 N    -2.06580000000E-01  4.66980000000E-01  1.82600000000E-02

  49  13   1    7 N     5.16100000000E-02 -1.65150000000E-01  7.30800000000E-02
  50  13   2    7 N    -2.38230000000E-01 -2.14700000000E-02 -7.30800000000E-02
  51  13   3    7 N     1.65150000000E-01  2.38230000000E-01  2.16760000000E-01
  52  13   4    7 N     2.14700000000E-02 -5.16100000000E-02 -2.16760000000E-01

  53  14   1    9 F     2.96440000000E-01 -7.55700000000E-02  3.35110000000E-01
  54  14   2    9 F    -4.10680000000E-01 -3.86700000000E-02 -3.35110000000E-01
  55  14   3    9 F     7.55700000000E-02  4.10680000000E-01  3.72010000000E-01
  56  14   4    9 F     3.86700000000E-02 -2.96440000000E-01 -3.72010000000E-01

  57  15   1    9 F    -1.65900000000E-01  4.61980000000E-01 -3.76600000000E-01
  58  15   2    9 F    -1.61420000000E-01  2.10700000000E-01  3.76600000000E-01
  59  15   3    9 F    -4.61980000000E-01  1.61420000000E-01  3.72120000000E-01
  60  15   4    9 F    -2.10700000000E-01  1.65900000000E-01 -3.72120000000E-01

  61  16   1   30 ZN    2.50000000000E-01 -2.50000000000E-01 -5.00000000000E-01

  62  17   1   30 ZN   -5.00000000000E-01 -5.00000000000E-01  0.00000000000E+00

 NUMBER OF SYMMETRY OPERATORS         :    4
 *******************************************************************************
 * GEOMETRY EDITING - INPUT COORDINATES ARE GIVEN IN ANGSTROM         
 *******************************************************************************

 GEOMETRY NOW FULLY CONSISTENT WITH THE GROUP

 GCALCO - MAX INDICES DIRECT LATTICE VECTOR    14    14    16
 NO.OF VECTORS CREATED 6999 STARS  482 RMAX   200.15221 BOHR

 GEOMETRY FOR WAVE FUNCTION - DIMENSIONALITY OF THE SYSTEM    3
 (NON PERIODIC DIRECTION: LATTICE PARAMETER FORMALLY SET TO 500)
 *******************************************************************************
 LATTICE PARAMETERS (ANGSTROMS AND DEGREES) - BOHR = 0.5291772083 ANGSTROM
 PRIMITIVE CELL - CENTRING CODE 6/0 VOLUME=   704.929968 - DENSITY  2.016 g/cm^3
         A              B              C           ALPHA      BETA       GAMMA 
     9.86320280     9.86320280     9.86320280   117.133137 117.133137  95.041693
 *******************************************************************************
 ATOMS IN THE ASYMMETRIC UNIT   17 - ATOMS IN THE UNIT CELL:   62
     ATOM                 X/A                 Y/B                 Z/C    
 *******************************************************************************
      1 T   1 H     9.499000000000E-02  4.182100000000E-01 -1.802400000000E-01
      2 F   1 H    -4.015500000000E-01  2.752300000000E-01  1.802400000000E-01
      3 F   1 H    -4.182100000000E-01  4.015500000000E-01 -3.232200000000E-01
      4 F   1 H    -2.752300000000E-01 -9.499000000000E-02  3.232200000000E-01
      5 T   1 H    -1.706700000000E-01 -2.534800000000E-01 -1.750500000000E-01
      6 F   1 H    -7.843000000000E-02  4.380000000000E-03  1.750500000000E-01
      7 F   1 H     2.534800000000E-01  7.843000000000E-02  8.281000000000E-02
      8 F   1 H    -4.380000000000E-03  1.706700000000E-01 -8.281000000000E-02
      9 T   6 C     2.020400000000E-01 -3.457300000000E-01  8.173000000000E-02
     10 F   6 C    -4.274600000000E-01  1.203100000000E-01 -8.173000000000E-02
     11 F   6 C     3.457300000000E-01  4.274600000000E-01 -4.522300000000E-01
     12 F   6 C    -1.203100000000E-01 -2.020400000000E-01  4.522300000000E-01
     13 T   6 C     3.308100000000E-01 -3.749900000000E-01  2.039200000000E-01
     14 F   6 C     4.210900000000E-01  1.268900000000E-01 -2.039200000000E-01
     15 F   6 C     3.749900000000E-01 -4.210900000000E-01 -2.942000000000E-01
     16 F   6 C    -1.268900000000E-01 -3.308100000000E-01  2.942000000000E-01
     17 T   6 C     8.598000000000E-02 -4.638200000000E-01 -1.067800000000E-01
     18 F   6 C    -3.570400000000E-01  1.927600000000E-01  1.067800000000E-01
     19 F   6 C     4.638200000000E-01  3.570400000000E-01 -4.502000000000E-01
     20 F   6 C    -1.927600000000E-01 -8.598000000000E-02  4.502000000000E-01
     21 T   6 C    -6.484000000000E-02 -2.809800000000E-01 -1.056800000000E-01
     22 F   6 C    -1.753000000000E-01  4.084000000000E-02  1.056800000000E-01
     23 F   6 C     2.809800000000E-01  1.753000000000E-01  2.161400000000E-01
     24 F   6 C    -4.084000000000E-02  6.484000000000E-02 -2.161400000000E-01
     25 T   6 C     1.784900000000E-01 -1.975600000000E-01  1.581500000000E-01
     26 F   6 C    -3.557100000000E-01  2.034000000000E-02 -1.581500000000E-01
     27 F   6 C     1.975600000000E-01  3.557100000000E-01  3.760500000000E-01
     28 F   6 C    -2.034000000000E-02 -1.784900000000E-01 -3.760500000000E-01
     29 T   6 C    -2.305900000000E-01  1.503400000000E-01  1.974900000000E-01
     30 F   6 C    -4.715000000000E-02 -4.280800000000E-01 -1.974900000000E-01
     31 F   6 C    -1.503400000000E-01  4.715000000000E-02 -3.809300000000E-01
     32 F   6 C     4.280800000000E-01  2.305900000000E-01  3.809300000000E-01
     33 T   7 N     3.563900000000E-01 -3.441800000000E-01  3.640700000000E-01
     34 F   7 N     2.917500000000E-01 -7.680000000000E-03 -3.640700000000E-01
     35 F   7 N     3.441800000000E-01 -2.917500000000E-01 -2.994300000000E-01
     36 F   7 N     7.680000000000E-03 -3.563900000000E-01  2.994300000000E-01
     37 T   7 N     4.836900000000E-01 -3.906500000000E-01  4.380000000000E-01
     38 F   7 N     1.713500000000E-01  4.569000000000E-02 -4.380000000000E-01
     39 F   7 N     3.906500000000E-01 -1.713500000000E-01 -1.256600000000E-01
     40 F   7 N    -4.569000000000E-02 -4.836900000000E-01  1.256600000000E-01
     41 T   7 N     4.390900000000E-01 -4.387900000000E-01  1.787600000000E-01
     42 F   7 N     3.824500000000E-01  2.603300000000E-01 -1.787600000000E-01
     43 F   7 N     4.387900000000E-01 -3.824500000000E-01 -1.221200000000E-01
     44 F   7 N    -2.603300000000E-01 -4.390900000000E-01  1.221200000000E-01
     45 T   7 N    -4.669800000000E-01 -4.487200000000E-01  3.264400000000E-01
     46 F   7 N     2.248400000000E-01  2.065800000000E-01 -3.264400000000E-01
     47 F   7 N     4.487200000000E-01 -2.248400000000E-01 -1.826000000000E-02
     48 F   7 N    -2.065800000000E-01  4.669800000000E-01  1.826000000000E-02
     49 T   7 N     5.161000000000E-02 -1.651500000000E-01  7.308000000000E-02
     50 F   7 N    -2.382300000000E-01 -2.147000000000E-02 -7.308000000000E-02
     51 F   7 N     1.651500000000E-01  2.382300000000E-01  2.167600000000E-01
     52 F   7 N     2.147000000000E-02 -5.161000000000E-02 -2.167600000000E-01
     53 T   9 F     2.964400000000E-01 -7.557000000000E-02  3.351100000000E-01
     54 F   9 F    -4.106800000000E-01 -3.867000000000E-02 -3.351100000000E-01
     55 F   9 F     7.557000000000E-02  4.106800000000E-01  3.720100000000E-01
     56 F   9 F     3.867000000000E-02 -2.964400000000E-01 -3.720100000000E-01
     57 T   9 F    -1.659000000000E-01  4.619800000000E-01 -3.766000000000E-01
     58 F   9 F    -1.614200000000E-01  2.107000000000E-01  3.766000000000E-01
     59 F   9 F    -4.619800000000E-01  1.614200000000E-01  3.721200000000E-01
     60 F   9 F    -2.107000000000E-01  1.659000000000E-01 -3.721200000000E-01
     61 T  30 ZN    2.500000000000E-01 -2.500000000000E-01 -5.000000000000E-01
     62 T  30 ZN    5.000000000000E-01 -5.000000000000E-01  0.000000000000E+00

 TRANSFORMATION MATRIX PRIMITIVE-CRYSTALLOGRAPHIC CELL
  0.0000  1.0000  1.0000  1.0000  0.0000  1.0000  1.0000  1.0000  0.0000

 *******************************************************************************
 CRYSTALLOGRAPHIC CELL (VOLUME=       1409.85993599)
         A              B              C           ALPHA      BETA       GAMMA 
    10.28747007    10.28747007    13.32167394    90.000000  90.000000  90.000000

 COORDINATES IN THE CRYSTALLOGRAPHIC CELL
     ATOM                 X/A                 Y/B                 Z/C    
 *******************************************************************************
      1 T   1 H     7.149000000000E-02 -2.517300000000E-01  3.467200000000E-01
      2 F   1 H    -7.149000000000E-02  2.517300000000E-01  3.467200000000E-01
      3 F   1 H    -2.517300000000E-01 -7.149000000000E-02 -3.467200000000E-01
      4 F   1 H     2.517300000000E-01  7.149000000000E-02 -3.467200000000E-01
      5 T   1 H    -1.289300000000E-01 -4.612000000000E-02 -1.245500000000E-01
      6 F   1 H     1.289300000000E-01  4.612000000000E-02 -1.245500000000E-01
      7 F   1 H    -4.612000000000E-02  1.289300000000E-01  1.245500000000E-01
      8 F   1 H     4.612000000000E-02 -1.289300000000E-01  1.245500000000E-01
      9 T   6 C    -2.330200000000E-01  3.147500000000E-01 -1.127100000000E-01
     10 F   6 C     2.330200000000E-01 -3.147500000000E-01 -1.127100000000E-01
     11 F   6 C     3.147500000000E-01  2.330200000000E-01  1.127100000000E-01
     12 F   6 C    -3.147500000000E-01 -2.330200000000E-01  1.127100000000E-01
     13 T   6 C    -2.509400000000E-01  4.548600000000E-01 -1.240500000000E-01
     14 F   6 C     2.509400000000E-01 -4.548600000000E-01 -1.240500000000E-01
     15 F   6 C     4.548600000000E-01  2.509400000000E-01  1.240500000000E-01
     16 F   6 C    -4.548600000000E-01 -2.509400000000E-01  1.240500000000E-01
     17 T   6 C    -3.282900000000E-01  2.215100000000E-01 -1.355300000000E-01
     18 F   6 C     3.282900000000E-01 -2.215100000000E-01 -1.355300000000E-01
     19 F   6 C     2.215100000000E-01  3.282900000000E-01  1.355300000000E-01
     20 F   6 C    -2.215100000000E-01 -3.282900000000E-01  1.355300000000E-01
     21 T   6 C    -1.609100000000E-01  5.523000000000E-02 -1.200700000000E-01
     22 F   6 C     1.609100000000E-01 -5.523000000000E-02 -1.200700000000E-01
     23 F   6 C     5.523000000000E-02  1.609100000000E-01  1.200700000000E-01
     24 F   6 C    -5.523000000000E-02 -1.609100000000E-01  1.200700000000E-01
     25 T   6 C    -1.089500000000E-01  2.671000000000E-01 -8.861000000000E-02
     26 F   6 C     1.089500000000E-01 -2.671000000000E-01 -8.861000000000E-02
     27 F   6 C     2.671000000000E-01  1.089500000000E-01  8.861000000000E-02
     28 F   6 C    -2.671000000000E-01 -1.089500000000E-01  8.861000000000E-02
     29 T   6 C     2.892100000000E-01 -9.172000000000E-02 -1.388700000000E-01
     30 F   6 C    -2.892100000000E-01  9.172000000000E-02 -1.388700000000E-01
     31 F   6 C    -9.172000000000E-02 -2.892100000000E-01  1.388700000000E-01
     32 F   6 C     9.172000000000E-02  2.892100000000E-01  1.388700000000E-01
     33 T   7 N     3.317500000000E-01  3.232000000000E-02  3.240700000000E-01
     34 F   7 N    -3.317500000000E-01 -3.232000000000E-02  3.240700000000E-01
     35 F   7 N     3.232000000000E-02 -3.317500000000E-01 -3.240700000000E-01
     36 F   7 N    -3.232000000000E-02  3.317500000000E-01 -3.240700000000E-01
     37 T   7 N    -2.181700000000E-01 -3.438300000000E-01 -1.724800000000E-01
     38 F   7 N     2.181700000000E-01  3.438300000000E-01 -1.724800000000E-01
     39 F   7 N    -3.438300000000E-01  2.181700000000E-01  1.724800000000E-01
     40 F   7 N     3.438300000000E-01 -2.181700000000E-01  1.724800000000E-01
     41 T   7 N     1.504400000000E-01  2.832000000000E-02  4.107700000000E-01
     42 F   7 N    -1.504400000000E-01 -2.832000000000E-02  4.107700000000E-01
     43 F   7 N     2.832000000000E-02 -1.504400000000E-01 -4.107700000000E-01
     44 F   7 N    -2.832000000000E-02  1.504400000000E-01 -4.107700000000E-01
     45 T   7 N    -3.276500000000E-01 -3.459100000000E-01 -1.210700000000E-01
     46 F   7 N     3.276500000000E-01  3.459100000000E-01 -1.210700000000E-01
     47 F   7 N    -3.459100000000E-01  3.276500000000E-01  1.210700000000E-01
     48 F   7 N     3.459100000000E-01 -3.276500000000E-01  1.210700000000E-01
     49 T   7 N    -7.184000000000E-02  1.449200000000E-01 -9.331000000000E-02
     50 F   7 N     7.184000000000E-02 -1.449200000000E-01 -9.331000000000E-02
     51 F   7 N     1.449200000000E-01  7.184000000000E-02  9.331000000000E-02
     52 F   7 N    -1.449200000000E-01 -7.184000000000E-02  9.331000000000E-02
     53 T   9 F    -1.845000000000E-02  3.535600000000E-01 -5.712000000000E-02
     54 F   9 F     1.845000000000E-02 -3.535600000000E-01 -5.712000000000E-02
     55 F   9 F     3.535600000000E-01  1.845000000000E-02  5.712000000000E-02
     56 F   9 F    -3.535600000000E-01 -1.845000000000E-02  5.712000000000E-02
     57 T   9 F    -3.743600000000E-01 -2.240000000000E-03 -1.636600000000E-01
     58 F   9 F     3.743600000000E-01  2.240000000000E-03 -1.636600000000E-01
     59 F   9 F    -2.240000000000E-03  3.743600000000E-01  1.636600000000E-01
     60 F   9 F     2.240000000000E-03 -3.743600000000E-01  1.636600000000E-01
     61 T  30 ZN    5.000000000000E-01  9.137402555675E-17  2.500000000000E-01
     62 T  30 ZN    0.000000000000E+00  0.000000000000E+00 -5.000000000000E-01

 T = ATOM BELONGING TO THE ASYMMETRIC UNIT

 ****    4 SYMMOPS - TRANSLATORS IN FRACTIONAL UNITS
 **** MATRICES AND TRANSLATORS IN THE CRYSTALLOGRAPHIC REFERENCE FRAME
   V INV                    ROTATION MATRICES                   TRANSLATORS
   1   1  1.00  0.00  0.00  0.00  1.00  0.00  0.00  0.00  1.00  0.00  0.00  0.00
   2   2 -0.00  1.00 -1.00  1.00 -0.00 -1.00  0.00 -0.00 -1.00  0.00  0.00  0.00
   3   4  0.00 -1.00 -0.00  0.00 -1.00  1.00  1.00 -1.00 -0.00  0.00  0.00  0.00
   4   3 -1.00  0.00  1.00 -1.00  0.00 -0.00 -1.00  1.00  0.00  0.00  0.00  0.00

 DIRECT LATTICE VECTORS CARTESIAN COMPONENTS (ANGSTROM)
          X                    Y                    Z
  -0.514373503570E+01   0.514373503570E+01   0.666083697210E+01
   0.514373503570E+01  -0.514373503570E+01   0.666083697210E+01
   0.514373503570E+01   0.514373503570E+01  -0.666083697210E+01


 CARTESIAN COORDINATES - PRIMITIVE CELL
 *******************************************************************************
 *      ATOM          X(ANGSTROM)         Y(ANGSTROM)         Z(ANGSTROM)
 *******************************************************************************
    1     1 H     7.354512354044E-01 -2.589664841074E+00  4.618890789933E+00
    2     1 H    -7.354512354044E-01  2.589664841074E+00  4.618890789933E+00
    3     1 H    -2.589664841074E+00 -7.354512354044E-01 -4.618890789933E+00
    4     1 H     2.589664841074E+00  7.354512354044E-01 -4.618890789933E+00
    5     1 H    -1.326363516306E+00 -4.744581196930E-01 -1.659214489750E+00
    6     1 H     1.326363516306E+00  4.744581196930E-01 -1.659214489750E+00
    7     1 H    -4.744581196930E-01  1.326363516306E+00  1.659214489750E+00
    8     1 H     4.744581196930E-01 -1.326363516306E+00  1.659214489750E+00
    9     6 C    -2.397186276038E+00  3.237981204973E+00 -1.501485870251E+00
   10     6 C     2.397186276038E+00 -3.237981204973E+00 -1.501485870251E+00
   11     6 C     3.237981204973E+00  2.397186276038E+00  1.501485870251E+00
   12     6 C    -3.237981204973E+00 -2.397186276038E+00  1.501485870251E+00
   13     6 C    -2.581537739717E+00  4.679358636677E+00 -1.652553652778E+00
   14     6 C     2.581537739717E+00 -4.679358636677E+00 -1.652553652778E+00
   15     6 C     4.679358636677E+00  2.581537739717E+00  1.652553652778E+00
   16     6 C    -4.679358636677E+00 -2.581537739717E+00  1.652553652778E+00
   17     6 C    -3.377273549740E+00  2.278777495516E+00 -1.805486469657E+00
   18     6 C     3.377273549740E+00 -2.278777495516E+00 -1.805486469657E+00
   19     6 C     2.278777495516E+00  3.377273549740E+00  1.805486469657E+00
   20     6 C    -2.278777495516E+00 -3.377273549740E+00  1.805486469657E+00
   21     6 C    -1.655356809189E+00  5.681769720434E-01 -1.599533390480E+00
   22     6 C     1.655356809189E+00 -5.681769720434E-01 -1.599533390480E+00
   23     6 C     5.681769720434E-01  1.655356809189E+00  1.599533390480E+00
   24     6 C    -5.681769720434E-01 -1.655356809189E+00  1.599533390480E+00
   25     6 C    -1.120819864279E+00  2.747783256071E+00 -1.180433528196E+00
   26     6 C     1.120819864279E+00 -2.747783256071E+00 -1.180433528196E+00
   27     6 C     2.747783256071E+00  1.120819864279E+00  1.180433528196E+00
   28     6 C    -2.747783256071E+00 -1.120819864279E+00  1.180433528196E+00
   29     6 C     2.975239219350E+00 -9.435667549488E-01 -1.849980860631E+00
   30     6 C    -2.975239219350E+00  9.435667549488E-01 -1.849980860631E+00
   31     6 C    -9.435667549488E-01 -2.975239219350E+00  1.849980860631E+00
   32     6 C     9.435667549488E-01  2.975239219350E+00  1.849980860631E+00
   33     7 N     3.412868196187E+00  3.324910327076E-01  4.317154875097E+00
   34     7 N    -3.412868196187E+00 -3.324910327076E-01  4.317154875097E+00
   35     7 N     3.324910327076E-01 -3.412868196187E+00 -4.317154875097E+00
   36     7 N    -3.324910327076E-01  3.412868196187E+00 -4.317154875097E+00
   37     7 N    -2.244417345477E+00 -3.537140834649E+00 -2.297722321896E+00
   38     7 N     2.244417345477E+00  3.537140834649E+00 -2.297722321896E+00
   39     7 N    -3.537140834649E+00  2.244417345477E+00  2.297722321896E+00
   40     7 N     3.537140834649E+00 -2.244417345477E+00  2.297722321896E+00
   41     7 N     1.547646997541E+00  2.913411524220E-01  5.472144006059E+00
   42     7 N    -1.547646997541E+00 -2.913411524220E-01  5.472144006059E+00
   43     7 N     2.913411524220E-01 -1.547646997541E+00 -5.472144006059E+00
   44     7 N    -2.913411524220E-01  1.547646997541E+00 -5.472144006059E+00
   45     7 N    -3.370689568894E+00 -3.558538772398E+00 -1.612855064424E+00
   46     7 N     3.370689568894E+00  3.558538772398E+00 -1.612855064424E+00
   47     7 N    -3.558538772398E+00  3.370689568894E+00  1.612855064424E+00
   48     7 N     3.558538772398E+00 -3.370689568894E+00  1.612855064424E+00
   49     7 N    -7.390518499294E-01  1.490860162747E+00 -1.243045395733E+00
   50     7 N     7.390518499294E-01 -1.490860162747E+00 -1.243045395733E+00
   51     7 N     1.490860162747E+00  7.390518499294E-01  1.243045395733E+00
   52     7 N    -1.490860162747E+00 -7.390518499294E-01  1.243045395733E+00
   53     9 F    -1.898038228173E-01  3.637237918444E+00 -7.609340156927E-01
   54     9 F     1.898038228173E-01 -3.637237918444E+00 -7.609340156927E-01
   55     9 F     3.637237918444E+00  1.898038228173E-01  7.609340156927E-01
   56     9 F    -3.637237918444E+00 -1.898038228173E-01  7.609340156927E-01
   57     9 F    -3.851217295929E+00 -2.304393295994E-02 -2.180225157708E+00
   58     9 F     3.851217295929E+00  2.304393295994E-02 -2.180225157708E+00
   59     9 F    -2.304393295994E-02  3.851217295929E+00  2.180225157708E+00
   60     9 F     2.304393295994E-02 -3.851217295929E+00  2.180225157708E+00
   61    30 ZN    5.143735035700E+00  9.400075532184E-16 -9.991255458150E+00
   62    30 ZN    0.000000000000E+00  0.000000000000E+00  6.660836972100E+00

 *******************************************************************************
 STARTING BASIS SET HANDLING 
 *******************************************************************************

 Loading internal basis set: POB-DZVPP           

 Please cite in your publication:
 Peintinger, M. F., Oliveira, D. V. and Bredow, T. (2013), Generally applicable 
 solid-state Gaussian basis sets, in preparation                                
                                                                                
                    

 *******************************************************************************
 LOCAL ATOMIC FUNCTIONS BASIS SET
 *******************************************************************************
   ATOM   X(AU)   Y(AU)   Z(AU)  N. TYPE  EXPONENT  S COEF   P COEF   D/F/G COEF
 *******************************************************************************
   1 H    1.390  -4.894   8.728
                                  1 S  
                                         2.263E+01 1.441E-02 0.000E+00 0.000E+00
                                         3.236E+00 1.072E-01 0.000E+00 0.000E+00
                                         7.304E-01 3.846E-01 0.000E+00 0.000E+00
                                  2 S  
                                         1.417E-01 1.000E+00 0.000E+00 0.000E+00
                           3-     5 P  
                                         3.944E-01 0.000E+00 1.000E+00 0.000E+00
                           6-     8 P  
                                         1.006E-01 0.000E+00 1.000E+00 0.000E+00
   2 H   -1.390   4.894   8.728
   3 H   -4.894  -1.390  -8.728
   4 H    4.894   1.390  -8.728
   5 H   -2.506  -0.897  -3.135
   6 H    2.506   0.897  -3.135
   7 H   -0.897   2.506   3.135
   8 H    0.897  -2.506   3.135
   9 C   -4.530   6.119  -2.837
                                 65 S  
                                         1.238E+03 5.457E-03 0.000E+00 0.000E+00
                                         1.863E+02 4.064E-02 0.000E+00 0.000E+00
                                         4.225E+01 1.803E-01 0.000E+00 0.000E+00
                                         1.168E+01 4.632E-01 0.000E+00 0.000E+00
                                         3.593E+00 4.409E-01 0.000E+00 0.000E+00
                                 66 S  
                                         5.281E+00 1.000E+00 0.000E+00 0.000E+00
                                 67 S  
                                         4.447E-01 1.000E+00 0.000E+00 0.000E+00
                          68-    70 P  
                                         9.468E+00 0.000E+00 3.839E-02 0.000E+00
                                         2.010E+00 0.000E+00 2.112E-01 0.000E+00
                                         5.477E-01 0.000E+00 5.133E-01 0.000E+00
                          71-    73 P  
                                         1.604E-01 0.000E+00 1.000E+00 0.000E+00
                          74-    78 D  
                                         6.070E-01 0.000E+00 0.000E+00 1.000E+00
                          79-    83 D  
                                         2.939E-01 0.000E+00 0.000E+00 1.000E+00
  10 C    4.530  -6.119  -2.837
  11 C    6.119   4.530   2.837
  12 C   -6.119  -4.530   2.837
  13 C   -4.878   8.843  -3.123
  14 C    4.878  -8.843  -3.123
  15 C    8.843   4.878   3.123
  16 C   -8.843  -4.878   3.123
  17 C   -6.382   4.306  -3.412
  18 C    6.382  -4.306  -3.412
  19 C    4.306   6.382   3.412
  20 C   -4.306  -6.382   3.412
  21 C   -3.128   1.074  -3.023
  22 C    3.128  -1.074  -3.023
  23 C    1.074   3.128   3.023
  24 C   -1.074  -3.128   3.023
  25 C   -2.118   5.193  -2.231
  26 C    2.118  -5.193  -2.231
  27 C    5.193   2.118   2.231
  28 C   -5.193  -2.118   2.231
  29 C    5.622  -1.783  -3.496
  30 C   -5.622   1.783  -3.496
  31 C   -1.783  -5.622   3.496
  32 C    1.783   5.622   3.496
  33 N    6.449   0.628   8.158
                                521 S  
                                         1.713E+03-5.393E-03 0.000E+00 0.000E+00
                                         2.576E+02-4.022E-02 0.000E+00 0.000E+00
                                         5.846E+01-1.793E-01 0.000E+00 0.000E+00
                                         1.620E+01-4.638E-01 0.000E+00 0.000E+00
                                         5.005E+00-4.417E-01 0.000E+00 0.000E+00
                                522 S  
                                         6.217E-01 1.000E+00 0.000E+00 0.000E+00
                                523 S  
                                         2.921E-01 1.000E+00 0.000E+00 0.000E+00
                         524-   526 P  
                                         1.357E+01 0.000E+00-4.007E-02 0.000E+00
                                         2.926E+00 0.000E+00-2.181E-01 0.000E+00
                                         7.993E-01 0.000E+00-5.129E-01 0.000E+00
                         527-   529 P  
                                         2.244E-01 0.000E+00 1.000E+00 0.000E+00
                         530-   534 D  
                                         3.118E-01 0.000E+00 0.000E+00 1.000E+00
  34 N   -6.449  -0.628   8.158
  35 N    0.628  -6.449  -8.158
  36 N   -0.628   6.449  -8.158
  37 N   -4.241  -6.684  -4.342
  38 N    4.241   6.684  -4.342
  39 N   -6.684   4.241   4.342
  40 N    6.684  -4.241   4.342
  41 N    2.925   0.551  10.341
  42 N   -2.925  -0.551  10.341
  43 N    0.551  -2.925 -10.341
  44 N   -0.551   2.925 -10.341
  45 N   -6.370  -6.725  -3.048
  46 N    6.370   6.725  -3.048
  47 N   -6.725   6.370   3.048
  48 N    6.725  -6.370   3.048
  49 N   -1.397   2.817  -2.349
  50 N    1.397  -2.817  -2.349
  51 N    2.817   1.397   2.349
  52 N   -2.817  -1.397   2.349
  53 F   -0.359   6.873  -1.438
                                801 S  
                                         2.895E+03-5.341E-03 0.000E+00 0.000E+00
                                         4.354E+02-3.990E-02 0.000E+00 0.000E+00
                                         9.884E+01-1.791E-01 0.000E+00 0.000E+00
                                         2.749E+01-4.676E-01 0.000E+00 0.000E+00
                                         8.541E+00-4.465E-01 0.000E+00 0.000E+00
                                802 S  
                                         1.123E+00 1.000E+00 0.000E+00 0.000E+00
                                803 S  
                                         3.743E-01 1.000E+00 0.000E+00 0.000E+00
                         804-   806 P  
                                         2.270E+01 0.000E+00-4.521E-02 0.000E+00
                                         4.987E+00 0.000E+00-2.375E-01 0.000E+00
                                         1.349E+00 0.000E+00-5.129E-01 0.000E+00
                         807-   809 P  
                                         3.474E-01 0.000E+00 1.000E+00 0.000E+00
                         810-   814 D  
                                         9.203E-01 0.000E+00 0.000E+00 1.000E+00
                         815-   819 D  
                                         3.977E-01 0.000E+00 0.000E+00 1.000E+00
  54 F    0.359  -6.873  -1.438
  55 F    6.873   0.359   1.438
  56 F   -6.873  -0.359   1.438
  57 F   -7.278  -0.044  -4.120
  58 F    7.278   0.044  -4.120
  59 F   -0.044   7.278   4.120
  60 F    0.044  -7.278   4.120
  61 ZN   9.720   0.000 -18.881
                                953 S  
                                         8.200E+04 1.421E-03 0.000E+00 0.000E+00
                                         1.231E+04 1.089E-02 0.000E+00 0.000E+00
                                         2.801E+03 5.406E-02 0.000E+00 0.000E+00
                                         7.910E+02 1.885E-01 0.000E+00 0.000E+00
                                         2.576E+02 3.835E-01 0.000E+00 0.000E+00
                                         8.881E+01 2.972E-01 0.000E+00 0.000E+00
                                954 S  
                                         1.719E+02-1.105E-01 0.000E+00 0.000E+00
                                         2.030E+01 6.461E-01 0.000E+00 0.000E+00
                                         8.346E+00 4.422E-01 0.000E+00 0.000E+00
                                955 S  
                                         1.485E+01-2.271E-01 0.000E+00 0.000E+00
                                         2.450E+00 7.243E-01 0.000E+00 0.000E+00
                                         9.985E-01 4.484E-01 0.000E+00 0.000E+00
                                956 S  
                                         1.493E+00 1.000E+00 0.000E+00 0.000E+00
                                957 S  
                                         1.830E-01 1.000E+00 0.000E+00 0.000E+00
                         958-   960 P  
                                         1.072E+03 0.000E+00 9.277E-03 0.000E+00
                                         2.527E+02 0.000E+00 6.954E-02 0.000E+00
                                         8.010E+01 0.000E+00 2.716E-01 0.000E+00
                                         2.890E+01 0.000E+00 5.340E-01 0.000E+00
                                         1.077E+01 0.000E+00 3.450E-01 0.000E+00
                         961-   963 P  
                                         5.645E+00 0.000E+00 3.413E-01 0.000E+00
                                         2.168E+00 0.000E+00 5.639E-01 0.000E+00
                                         8.054E-01 0.000E+00 2.368E-01 0.000E+00
                         964-   966 P  
                                         2.721E-01 0.000E+00 1.000E+00 0.000E+00
                         967-   971 D  
                                         5.609E+01 0.000E+00 0.000E+00 2.959E-02
                                         1.575E+01 0.000E+00 0.000E+00 1.587E-01
                                         5.312E+00 0.000E+00 0.000E+00 3.798E-01
                                         1.774E+00 0.000E+00 0.000E+00 4.690E-01
                         972-   976 D  
                                         5.073E-01 0.000E+00 0.000E+00 1.000E+00
                         977-   983 F  
                                         2.814E+00 0.000E+00 0.000E+00 1.000E+00
                         984-   990 F  
                                         1.300E+00 0.000E+00 0.000E+00 1.000E+00
  62 ZN   0.000   0.000  12.587

 *******************************************************************************
 FINISHED BASIS SET HANDLING 
 *******************************************************************************

 INFORMATION **** SET_MPP **** PCRYSTAL CALCULATION
 INFORMATION **** READM2 **** NEW DEFAULT: FOCK/KS MATRIX MIXING SET TO 30 %
 INFORMATION **** READM2 **** NEW DEFAULT: FULL DIRECT SCF MODE
 INFORMATION **** READM2 **** NEW DEFAULT: COULOMB BIPOLAR BUFFER SET TO 32 Mb
 INFORMATION **** READM2 **** NEW DEFAULT: EXCHANGE BIPOLAR BUFFER SET TO 32 Mb

 *******************************************************************************
 NEW DEFAULT: DFT INTEGRATION GRID INCREASED TO XLGRID
 NEW DEFAULT: DIIS ACCELERATOR ACTIVE
 USE KEYWORD NODIIS TO TURN IT OFF
 *******************************************************************************

 INFORMATION **** DFTD3_INPUT **** PERFORM DISPERSION CORRECTION DFT-D3(BJ) IN THE BECKE-JOHNSON DAMPING SCHEME

 PLEASE CITE:
 (1) DFT-D3 Reference
  S. Grimme, J. Antony, S. Ehrlich, and H. Krieg, J. Chem. Phys. 132 (2010), 154104
 (2) BJ-Damping Reference
  S. Grimme, S. Ehrlich, and L. Goerigk, J. Comput. Chem. 32 (2011), 1456-1465
 (3) General DFT-D Review
  S. Grimme, A. Hansen, J. G. Brandenburg, and C. Bannwarth,
  Chem. Rev. 116 (2016), 5105-5154

 INFORMATION **** TOLINTEG **** COULOMB AND EXCHANGE SERIES TOLERANCES MODIFIED
 INFORMATION **** BIPOSIZE **** COULOMB BIPOLAR BUFFER SET TO   100000000
 INFORMATION **** MAXCYCLE **** MAX NUMBER OF SCF CYCLES SET TO          50
 *******************************************************************************
 N. OF ATOMS PER CELL        62  COULOMB OVERLAP TOL         (T1) 10**  -12
 NUMBER OF SHELLS           400  COULOMB PENETRATION TOL     (T2) 10**  -12
 NUMBER OF AO              1028  EXCHANGE OVERLAP TOL        (T3) 10**   20
 N. OF ELECTRONS PER CELL   424  EXCHANGE PSEUDO OVP (F(G))  (T4) 10**   20
 CORE ELECTRONS PER CELL    140  EXCHANGE PSEUDO OVP (P(G))  (T5) 10**   20
 N. OF SYMMETRY OPERATORS     4  POLE ORDER IN MONO ZONE                  4
 *******************************************************************************
 TYPE OF CALCULATION :  RESTRICTED CLOSED SHELL
 KOHN-SHAM HAMILTONIAN

 (EXCHANGE)[CORRELATION] FUNCTIONAL:(PERDEW-BURKE-ERNZERHOF)[PERDEW-BURKE-ERNZERHOF]


 CAPPA:IS1  3;IS2  3;IS3  3; K PTS MONK NET   6; SYMMOPS:K SPACE   8;G SPACE   4

 *******************************************************************************
 MAX NUMBER OF SCF CYCLES      50  CONVERGENCE ON DELTAP        10**-16
 WEIGHT OF F(I) IN F(I+1)      30% CONVERGENCE ON ENERGY        10**- 6
 SHRINK. FACT.(MONKH.)    3  3  3  NUMBER OF K POINTS IN THE IBZ      6
 SHRINKING FACTOR(GILAT NET)    3  NUMBER OF K POINTS(GILAT NET)      6
 *******************************************************************************
 *** K POINTS COORDINATES (OBLIQUE COORDINATES IN UNITS OF IS =  3)
   1-R(  0  0  0)   2-C(  1  0  0)   3-C(  1  1  0)   4-C(  2  1  0)
   5-C(  2  1  1)   6-C(  2  2  1)

 DIRECT LATTICE VECTORS COMPON. (A.U.)     RECIP. LATTICE VECTORS COMPON. (A.U.) 
        X            Y            Z              X            Y            Z
   -9.7202505    9.7202505   12.5871577      0.0000000    0.3232008    0.2495871
    9.7202505   -9.7202505   12.5871577      0.3232008    0.0000000    0.2495871
    9.7202505    9.7202505  -12.5871577      0.3232008    0.3232008    0.0000000

 DISK SPACE FOR EIGENVECTORS (FTN 10)    11624624 REALS

 SYMMETRY ADAPTION OF THE BLOCH FUNCTIONS ENABLED
 TTTTTTTTTTTTTTTTTTTTTTTTTTTTTT gordsh1     TELAPSE        9.28 TCPU        0.05

 MATRIX SIZE: P(G) 1789656, F(G)  895534, P(G) IRR  226336, F(G) IRR  226336
 MAX G-VECTOR INDEX FOR 1- AND 2-ELECTRON INTEGRALS  63

 TTTTTTTTTTTTTTTTTTTTTTTTTTTTTT INPUT       TELAPSE        9.78 TCPU        0.56

 NEIGHBORS OF THE NON-EQUIVALENT ATOMS

 N = NUMBER OF NEIGHBORS AT DISTANCE R
    ATOM  N     R/ANG      R/AU   NEIGHBORS (ATOM LABELS AND CELL INDICES)
   1 H    1     1.0930     2.0655   17 C    0 1 0
   1 H    1     2.1643     4.0899   30 C    0 1 0
   1 H    1     2.1919     4.1421    9 C    0 1 0
   1 H    1     2.6403     4.9894   57 F    0 1 0
   1 H    1     2.7360     5.1703   46 N    0 0-1
   1 H    1     2.8294     5.3468   13 C    0 1 0

   5 H    1     1.0949     2.0691   21 C    0 0 0
   5 H    1     2.0930     3.9552   49 N    0 0 0
   5 H    1     2.1831     4.1255   30 C    0 0 0
   5 H    1     2.3393     4.4206   50 N    0 0 0
   5 H    1     2.6173     4.9459   57 F    0 0 0
   5 H    1     2.8173     5.3240    6 H    0 0 0

   9 C    1     1.4045     2.6540   25 C    0 0 0
   9 C    1     1.4047     2.6544   17 C    0 0 0
   9 C    1     1.4610     2.7608   13 C    0 0 0
   9 C    1     2.1919     4.1421    1 H    0-1 0
   9 C    1     2.3623     4.4641   53 F    0 0 0
   9 C    1     2.3916     4.5195   30 C    0 0 0

  13 C    1     1.3474     2.5463   41 N    0-1 0
  13 C    1     1.3551     2.5608   33 N    0-1 0
  13 C    1     1.4610     2.7608    9 C    0 0 0
  13 C    1     2.1952     4.1483   37 N    1 0 1
  13 C    1     2.1966     4.1510   45 N    1 0 1
  13 C    1     2.4673     4.6625   25 C    0 0 0

  17 C    1     1.0930     2.0655    1 H    0-1 0
  17 C    1     1.3951     2.6364   30 C    0 0 0
  17 C    1     1.4047     2.6544    9 C    0 0 0
  17 C    1     2.3798     4.4972   57 F    0 0 0
  17 C    1     2.3879     4.5125   25 C    0 0 0
  17 C    1     2.4359     4.6032   21 C    0 0 0

  21 C    1     1.0949     2.0691    5 H    0 0 0
  21 C    1     1.3483     2.5480   49 N    0 0 0
  21 C    1     1.3949     2.6360   30 C    0 0 0
  21 C    1     2.2830     4.3142   25 C    0 0 0
  21 C    1     2.3470     4.4352   57 F    0 0 0
  21 C    1     2.4359     4.6032   17 C    0 0 0

  25 C    1     1.3151     2.4852   49 N    0 0 0
  25 C    1     1.3542     2.5591   53 F    0 0 0
  25 C    1     1.4045     2.6540    9 C    0 0 0
  25 C    1     2.2830     4.3142   21 C    0 0 0
  25 C    1     2.3879     4.5125   17 C    0 0 0
  25 C    1     2.4673     4.6625   13 C    0 0 0

  29 C    1     1.3456     2.5429   58 F    0 0 0
  29 C    1     1.3949     2.6360   22 C    0 0 0
  29 C    1     1.3951     2.6364   18 C    0 0 0
  29 C    1     2.1643     4.0899    2 H   -1 0 0
  29 C    1     2.1831     4.1255    6 H    0 0 0
  29 C    1     2.3808     4.4991   50 N    0 0 0

  33 N    1     1.3551     2.5608   13 C    0 1 0
  33 N    1     1.3745     2.5974   37 N    1 1 1
  33 N    1     2.0199     3.8171   61 ZN   1 1 0
  33 N    1     2.1892     4.1369   45 N    1 1 1
  33 N    1     2.1943     4.1465   41 N    0 0 0
  33 N    1     2.4825     4.6913    9 C    0 1 0

  37 N    1     1.3183     2.4913   45 N    0 0 0
  37 N    1     1.3745     2.5974   33 N   -1-1-1
  37 N    1     2.1879     4.1345   41 N   -1-1-1
  37 N    1     2.1952     4.1483   13 C   -1 0-1
  37 N    1     2.8805     5.4433   54 F    0 0 0
  37 N    1     2.9470     5.5691   61 ZN   0 0-1

  41 N    1     1.3474     2.5463   13 C    0 1 0
  41 N    1     1.3801     2.6081   45 N    1 1 1
  41 N    1     1.9731     3.7286   62 ZN   0 0 0
  41 N    1     2.1879     4.1345   37 N    1 1 1
  41 N    1     2.1943     4.1465   33 N    0 0 0
  41 N    1     2.5224     4.7666    9 C    0 1 0

  45 N    1     1.3183     2.4913   37 N    0 0 0
  45 N    1     1.3801     2.6081   41 N   -1-1-1
  45 N    1     2.1892     4.1369   33 N   -1-1-1
  45 N    1     2.1966     4.1510   13 C   -1 0-1
  45 N    1     2.7360     5.1703    2 H   -1-1-1
  45 N    1     2.8736     5.4304   62 ZN  -1-1-1

  49 N    1     1.3151     2.4852   25 C    0 0 0
  49 N    1     1.3483     2.5480   21 C    0 0 0
  49 N    1     2.0930     3.9552    5 H    0 0 0
  49 N    1     2.2674     4.2847   53 F    0 0 0
  49 N    1     2.3393     4.4206    6 H    0 0 0
  49 N    1     2.3808     4.4991   30 C    0 0 0

  53 F    1     1.3542     2.5591   25 C    0 0 0
  53 F    1     2.2674     4.2847   49 N    0 0 0
  53 F    1     2.3623     4.4641    9 C    0 0 0
  53 F    1     2.7518     5.2001   34 N    0 0 1
  53 F    1     2.7571     5.2101   13 C    0 0 0
  53 F    1     2.8743     5.4317   33 N    0-1 0

  57 F    1     1.3456     2.5429   30 C    0 0 0
  57 F    1     2.3470     4.4352   21 C    0 0 0
  57 F    1     2.3798     4.4972   17 C    0 0 0
  57 F    1     2.5854     4.8858   58 F    0-1-1
  57 F    1     2.6173     4.9459    5 H    0 0 0
  57 F    1     2.6403     4.9894    1 H    0-1 0

  61 ZN   4     2.0199     3.8171   33 N   -1-1 0   34 N   -1 0 1   35 N    0 0 1
                                    36 N   -1 0 0
  61 ZN   4     2.9470     5.5691   37 N    0 0 1   38 N   -1 0 0   39 N   -1 0 1
                                    40 N   -1-1 0
  61 ZN   4     2.9846     5.6401   53 F   -1 0 0   54 F    0 0 1   55 F   -1-1 0
                                    56 F   -1 0 1
  61 ZN   4     3.1137     5.8841   13 C   -1 0 0   14 C    0 0 1   15 C   -1-1 0
                                    16 C   -1 0 1
  61 ZN   4     3.4087     6.4415   25 C   -1 0 0   26 C    0 0 1   27 C   -1-1 0
                                    28 C   -1 0 1
  61 ZN   4     3.5670     6.7406    9 C   -1 0 0   10 C    0 0 1   11 C   -1-1 0
                                    12 C   -1 0 1

  62 ZN   4     1.9731     3.7286   41 N    0 0 0   42 N    0 0 0   43 N    1 1 0
                                    44 N    1 1 0
  62 ZN   4     2.8736     5.4304   45 N    1 1 1   46 N    0 0-1   47 N    0 1 0
                                    48 N    1 0 0
  62 ZN   4     3.0841     5.8280   13 C    0 1 0   14 C    1 0 0   15 C    0 0-1
                                    16 C    1 1 1
  62 ZN   4     3.3789     6.3851    1 H    0 0 0    2 H    0 0 0    3 H    1 1 0
                                     4 H    1 1 0
  62 ZN   4     3.6647     6.9252    9 C    0 1 0   10 C    1 0 0   11 C    0 0-1
                                    12 C    1 1 1
  62 ZN   4     3.8194     7.2177   17 C    0 1 0   18 C    1 0 0   19 C    0 0-1
                                    20 C    1 1 1


 SYMMETRY ALLOWED INTERNAL DEGREE(S) OF FREEDOM:  45
 TTTTTTTTTTTTTTTTTTTTTTTTTTTTTT SYMM        TELAPSE       12.86 TCPU        3.63
 TTTTTTTTTTTTTTTTTTTTTTTTTTTTTT INT_SCREEN  TELAPSE       12.91 TCPU        3.67
 INFORMATION **** EXCBUF **** EXCH. BIPO BUFFER: WORDS USED =           0

 DFT PARAMETERS

     ATOM       ELECTRONS   NET CHARGE   R(ANGSTROM)
   1   1  H       1.0000      0.0000     1.11000000
   9   6  C       6.0000      0.0000     0.77000000
  33   7  N       7.0000      0.0000     0.74000000
  53   9  F       9.0000      0.0000     0.72000000
  61  30  ZN     30.0000      0.0000     1.37000000

 SIZE OF GRID=     477442
 TTTTTTTTTTTTTTTTTTTTTTTTTTTTTT MAKE_GRID2  TELAPSE       16.39 TCPU        7.15
 BECKE WEIGHT FUNCTION
 RADSAFE =     2.00
 TOLERANCES - DENSITY:10**- 6; POTENTIAL:10**- 9; GRID WGT:10**-14

 RADIAL INTEGRATION  - INTERVALS (POINTS,UPPER LIMIT):            1( 75,  4.0*R)

 ANGULAR INTEGRATION - INTERVALS (ACCURACY LEVEL [N. POINTS] UPPER LIMIT):
  1(  4[  86]   0.2)  2(  8[ 194]   0.5)  3( 12[ 350]   0.9)  4( 16[ 974]   3.5)
  5( 12[ 350]9999.0)
 TTTTTTTTTTTTTTTTTTTTTTTTTTTTTT INT_CALC    TELAPSE       16.44 TCPU        7.19
 EEEEEEEEEE INT_CALC TERMINATION  DATE 29 11 2023 TIME 09:38:08.3

 *******************************************************************************
 Z:\home\sanoj\Downloads\tmp_p\newconn.mol                                       
 CRYSTAL - SCF - TYPE OF CALCULATION :  RESTRICTED CLOSED SHELL
 *******************************************************************************

 CAPPA:IS1  3;IS2  3;IS3  3; K PTS MONK NET   6; SYMMOPS:K SPACE   8;G SPACE   4

 TTTTTTTTTTTTTTTTTTTTTTTTTTTTTT SDIK        TELAPSE       16.67 TCPU        7.43

 AAAAAAAAAAAAAAAAAAAAAAAAAAAAAAAAAAAAAAAAAAAAAAAAAAAAAAAAAAAAAAAAAAAAAAAAAAAAAAA
         ATOMIC WAVEFUNCTION(S)


 NUCLEAR CHARGE  1.0  SYMMETRY SPECIES            S
 N. ELECTRONS    1.0  NUMBER OF PRIMITIVE GTOS    4
                      NUMBER OF CONTRACTED GTOS   2
                      NUMBER OF CLOSED SHELLS     0
                      OPEN SHELL OCCUPATION       1

  ZNUC SCFIT  TOTAL HF ENERGY   KINETIC ENERGY   VIRIAL THEOREM ACCURACY
   1.0   1   -4.946643675E-01  4.917913167E-01 -2.005842012E+00  9.4E-17

 NUCLEAR CHARGE  6.0  SYMMETRY SPECIES            S    P
 N. ELECTRONS    6.0  NUMBER OF PRIMITIVE GTOS    7    4
                      NUMBER OF CONTRACTED GTOS   3    2
                      NUMBER OF CLOSED SHELLS     2    0
                      OPEN SHELL OCCUPATION       0    2

  ZNUC SCFIT  TOTAL HF ENERGY   KINETIC ENERGY   VIRIAL THEOREM ACCURACY
   6.0   6   -3.750912652E+01  3.905246519E+01 -1.960480378E+00  3.7E-06

 NUCLEAR CHARGE  7.0  SYMMETRY SPECIES            S    P
 N. ELECTRONS    7.0  NUMBER OF PRIMITIVE GTOS    7    4
                      NUMBER OF CONTRACTED GTOS   3    2
                      NUMBER OF CLOSED SHELLS     2    0
                      OPEN SHELL OCCUPATION       0    3

  ZNUC SCFIT  TOTAL HF ENERGY   KINETIC ENERGY   VIRIAL THEOREM ACCURACY
   7.0   9   -5.432196661E+01  5.425066284E+01 -2.001314339E+00  1.2E-06

 NUCLEAR CHARGE  9.0  SYMMETRY SPECIES            S    P
 N. ELECTRONS    9.0  NUMBER OF PRIMITIVE GTOS    7    4
                      NUMBER OF CONTRACTED GTOS   3    2
                      NUMBER OF CLOSED SHELLS     2    0
                      OPEN SHELL OCCUPATION       0    5

  ZNUC SCFIT  TOTAL HF ENERGY   KINETIC ENERGY   VIRIAL THEOREM ACCURACY
   9.0  14   -9.927886620E+01  9.927374065E+01 -2.000051630E+00  4.0E-06

 NUCLEAR CHARGE 30.0  SYMMETRY SPECIES            S    P    D
 N. ELECTRONS   30.0  NUMBER OF PRIMITIVE GTOS   14    9    5
                      NUMBER OF CONTRACTED GTOS   5    3    2
                      NUMBER OF CLOSED SHELLS     4    2    1
                      OPEN SHELL OCCUPATION       0    0    0

  ZNUC SCFIT  TOTAL HF ENERGY   KINETIC ENERGY   VIRIAL THEOREM ACCURACY
  30.0  10   -1.777404290E+03  1.777325716E+03 -2.000044209E+00  2.5E-06

 AAAAAAAAAAAAAAAAAAAAAAAAAAAAAAAAAAAAAAAAAAAAAAAAAAAAAAAAAAAAAAAAAAAAAAAAAAAAAAA

 TOTAL ATOMIC CHARGES:
   1.0000000   1.0000000   1.0000000   1.0000000   1.0000000   1.0000000
   1.0000000   1.0000000   6.0000000   6.0000000   6.0000000   6.0000000
   6.0000000   6.0000000   6.0000000   6.0000000   6.0000000   6.0000000
   6.0000000   6.0000000   6.0000000   6.0000000   6.0000000   6.0000000
   6.0000000   6.0000000   6.0000000   6.0000000   6.0000000   6.0000000
   6.0000000   6.0000000   7.0000000   7.0000000   7.0000000   7.0000000
   7.0000000   7.0000000   7.0000000   7.0000000   7.0000000   7.0000000
   7.0000000   7.0000000   7.0000000   7.0000000   7.0000000   7.0000000
   7.0000000   7.0000000   7.0000000   7.0000000   9.0000000   9.0000000
   9.0000000   9.0000000   9.0000000   9.0000000   9.0000000   9.0000000
  30.0000000  30.0000000
 TTTTTTTTTTTTTTTTTTTTTTTTTTTTTT MOQGAD      TELAPSE       18.39 TCPU        9.13
 TTTTTTTTTTTTTTTTTTTTTTTTTTTTTT SHELLXN     TELAPSE       82.62 TCPU       72.85
 TTTTTTTTTTTTTTTTTTTTTTTTTTTTTT MONMO3      TELAPSE       91.48 TCPU       81.68
 NUMERICALLY INTEGRATED DENSITY    423.9998984943
 TTTTTTTTTTTTTTTTTTTTTTTTTTTTTT NUMDFT      TELAPSE       93.86 TCPU       84.06
 CYC   0 ETOT(AU) -6.369975487845E+03 DETOT -6.37E+03 tst  0.00E+00 PX  1.00E+00
 TTTTTTTTTTTTTTTTTTTTTTTTTTTTTT DIIS        TELAPSE       93.95 TCPU       84.14
 TTTTTTTTTTTTTTTTTTTTTTTTTTTTTT FDIK        TELAPSE      128.75 TCPU      117.32
 INSULATING STATE
 TOP OF VALENCE BANDS -    BAND    212; K    3; EIG -1.2747787E-01 AU
 TOP OF VALENCE BANDS -    BAND    212; K    1; EIG -1.3064151E-01 AU
 BOTTOM OF VIRTUAL BANDS - BAND    213; K    1; EIG -1.0561084E-01 AU
 INDIRECT ENERGY BAND GAP:   0.5950 eV
 TTTTTTTTTTTTTTTTTTTTTTTTTTTTTT PDIG        TELAPSE      129.35 TCPU      117.92
 TOTAL ATOMIC CHARGES:
   1.2314393   1.2314393   1.2314393   1.2314393   1.2767255   1.2767255
   1.2767255   1.2767255   6.1920156   6.1920156   6.1920156   6.1920156
   5.5315520   5.5315520   5.5315520   5.5315520   6.2931612   6.2931612
   6.2931612   6.2931612   5.8891880   5.8891880   5.8891880   5.8891880
   5.1089515   5.1089515   5.1089515   5.1089515   5.2208396   5.2208396
   5.2208396   5.2208396   7.4064434   7.4064434   7.4064434   7.4064434
   7.1874210   7.1874210   7.1874210   7.1874210   7.3954521   7.3954521
   7.3954521   7.3954521   7.1781865   7.1781865   7.1781865   7.1781865
   7.5546231   7.5546231   7.5546231   7.5546231   9.3053048   9.3053048
   9.3053048   9.3053048   9.2982847   9.2982847   9.2982847   9.2982847
  27.8615901  27.8600562
 TTTTTTTTTTTTTTTTTTTTTTTTTTTTTT MOQGAD      TELAPSE      129.39 TCPU      117.97
 TTTTTTTTTTTTTTTTTTTTTTTTTTTTTT SHELLXN     TELAPSE      203.90 TCPU      192.06
 TTTTTTTTTTTTTTTTTTTTTTTTTTTTTT MONMO3      TELAPSE      214.11 TCPU      202.25
 NUMERICALLY INTEGRATED DENSITY    423.9999254801
 TTTTTTTTTTTTTTTTTTTTTTTTTTTTTT NUMDFT      TELAPSE      220.79 TCPU      208.91
 CYC   1 ETOT(AU) -6.364185735857E+03 DETOT  5.79E+00 tst  0.00E+00 PX  1.00E+00
 TTTTTTTTTTTTTTTTTTTTTTTTTTTTTT DIIS        TELAPSE      221.84 TCPU      209.95
 DIIS TEST: 0.13597E+02 AT SCF   CYCLE   1 - MIX   30 %
 TTTTTTTTTTTTTTTTTTTTTTTTTTTTTT FDIK        TELAPSE      235.40 TCPU      222.32
 INSULATING STATE
 TOP OF VALENCE BANDS -    BAND    212; K    4; EIG -1.6373124E-01 AU
 TOP OF VALENCE BANDS -    BAND    212; K    1; EIG -1.6383437E-01 AU
 BOTTOM OF VIRTUAL BANDS - BAND    213; K    1; EIG -1.2501300E-01 AU
 INDIRECT ENERGY BAND GAP:   1.0536 eV
 TTTTTTTTTTTTTTTTTTTTTTTTTTTTTT PDIG        TELAPSE      235.99 TCPU      222.91
 TOTAL ATOMIC CHARGES:
   1.1836397   1.1836397   1.1836397   1.1836397   1.2470691   1.2470691
   1.2470691   1.2470691   6.3394775   6.3394775   6.3394775   6.3394775
   6.2895442   6.2895442   6.2895442   6.2895442   6.2177946   6.2177946
   6.2177946   6.2177946   5.9107249   5.9107249   5.9107249   5.9107249
   6.3664474   6.3664474   6.3664474   6.3664474   5.8249817   5.8249817
   5.8249817   5.8249817   6.9551120   6.9551120   6.9551120   6.9551120
   6.7994941   6.7994941   6.7994941   6.7994941   6.9574322   6.9574322
   6.9574322   6.9574322   6.8242016   6.8242016   6.8242016   6.8242016
   6.1290100   6.1290100   6.1290100   6.1290100   9.0705318   9.0705318
   9.0705318   9.0705318   8.9890275   8.9890275   8.9890275   8.9890275
  29.8035486  29.7784978
 TTTTTTTTTTTTTTTTTTTTTTTTTTTTTT MOQGAD      TELAPSE      236.03 TCPU      222.95
 TTTTTTTTTTTTTTTTTTTTTTTTTTTTTT SHELLXN     TELAPSE      312.68 TCPU      297.12
 TTTTTTTTTTTTTTTTTTTTTTTTTTTTTT MONMO3      TELAPSE      322.52 TCPU      306.93
 NUMERICALLY INTEGRATED DENSITY    423.9999166215
 TTTTTTTTTTTTTTTTTTTTTTTTTTTTTT NUMDFT      TELAPSE      329.21 TCPU      313.46
 CYC   2 ETOT(AU) -6.362903490842E+03 DETOT  1.28E+00 tst  8.52E-02 PX  7.38E-01
 TTTTTTTTTTTTTTTTTTTTTTTTTTTTTT DIIS        TELAPSE      331.50 TCPU      315.76
 DIIS TEST: 0.20823E+02 AT SCF   CYCLE   2 - DIIS ACTIVE - HISTORY:     2 CYCLES
 TTTTTTTTTTTTTTTTTTTTTTTTTTTTTT FDIK        TELAPSE      344.81 TCPU      328.60
 INSULATING STATE
 TOP OF VALENCE BANDS -    BAND    212; K    4; EIG -2.4732481E-01 AU
 TOP OF VALENCE BANDS -    BAND    212; K    1; EIG -2.4759253E-01 AU
 BOTTOM OF VIRTUAL BANDS - BAND    213; K    1; EIG -1.2698941E-01 AU
 INDIRECT ENERGY BAND GAP:   3.2745 eV
 TTTTTTTTTTTTTTTTTTTTTTTTTTTTTT PDIG        TELAPSE      345.39 TCPU      329.19
 TOTAL ATOMIC CHARGES:
   1.1705672   1.1705672   1.1705672   1.1705672   1.1872965   1.1872965
   1.1872965   1.1872965   5.8989224   5.8989224   5.8989224   5.8989224
   5.8042938   5.8042938   5.8042938   5.8042938   6.0642391   6.0642391
   6.0642391   6.0642391   6.1504418   6.1504418   6.1504418   6.1504418
   5.5754352   5.5754352   5.5754352   5.5754352   5.5506989   5.5506989
   5.5506989   5.5506989   6.9973380   6.9973380   6.9973380   6.9973380
   7.1485439   7.1485439   7.1485439   7.1485439   7.0320182   7.0320182
   7.0320182   7.0320182   7.1610099   7.1610099   7.1610099   7.1610099
   7.4396881   7.4396881   7.4396881   7.4396881   9.0918310   9.0918310
   9.0918310   9.0918310   9.1480659   9.1480659   9.1480659   9.1480659
  29.1391809  29.1792601
 TTTTTTTTTTTTTTTTTTTTTTTTTTTTTT MOQGAD      TELAPSE      345.44 TCPU      329.23
 TTTTTTTTTTTTTTTTTTTTTTTTTTTTTT SHELLXN     TELAPSE      422.13 TCPU      402.72
 TTTTTTTTTTTTTTTTTTTTTTTTTTTTTT MONMO3      TELAPSE      430.50 TCPU      411.06
 NUMERICALLY INTEGRATED DENSITY    423.9999127307
 TTTTTTTTTTTTTTTTTTTTTTTTTTTTTT NUMDFT      TELAPSE      437.19 TCPU      417.74
 CYC   3 ETOT(AU) -6.365775401662E+03 DETOT -2.87E+00 tst  1.47E-02 PX  5.95E-01
 TTTTTTTTTTTTTTTTTTTTTTTTTTTTTT DIIS        TELAPSE      437.35 TCPU      417.89
 DIIS TEST: 0.41009E+01 AT SCF   CYCLE   3 - DIIS ACTIVE - HISTORY:     3 CYCLES
 TTTTTTTTTTTTTTTTTTTTTTTTTTTTTT FDIK        TELAPSE      450.89 TCPU      431.18
 INSULATING STATE
 TOP OF VALENCE BANDS -    BAND    212; K    5; EIG -2.3251593E-01 AU
 TOP OF VALENCE BANDS -    BAND    212; K    1; EIG -2.3324159E-01 AU
 BOTTOM OF VIRTUAL BANDS - BAND    213; K    1; EIG -1.2538684E-01 AU
 INDIRECT ENERGY BAND GAP:   2.9151 eV
 TTTTTTTTTTTTTTTTTTTTTTTTTTTTTT PDIG        TELAPSE      451.47 TCPU      431.76
 TOTAL ATOMIC CHARGES:
   1.1474554   1.1474554   1.1474554   1.1474554   1.2334062   1.2334062
   1.2334062   1.2334062   6.2898115   6.2898115   6.2898115   6.2898115
   5.8348804   5.8348804   5.8348804   5.8348804   6.3360047   6.3360047
   6.3360047   6.3360047   5.7762861   5.7762861   5.7762861   5.7762861
   5.5922758   5.5922758   5.5922758   5.5922758   5.4918058   5.4918058
   5.4918058   5.4918058   7.2242516   7.2242516   7.2242516   7.2242516
   7.0208608   7.0208608   7.0208608   7.0208608   7.2138508   7.2138508
   7.2138508   7.2138508   7.0358912   7.0358912   7.0358912   7.0358912
   6.9781516   6.9781516   6.9781516   6.9781516   9.2115075   9.2115075
   9.2115075   9.2115075   9.2035278   9.2035278   9.2035278   9.2035278
  28.8117279  28.8284023
 TTTTTTTTTTTTTTTTTTTTTTTTTTTTTT MOQGAD      TELAPSE      451.52 TCPU      431.80
 TTTTTTTTTTTTTTTTTTTTTTTTTTTTTT SHELLXN     TELAPSE      525.90 TCPU      505.28
 TTTTTTTTTTTTTTTTTTTTTTTTTTTTTT MONMO3      TELAPSE      536.88 TCPU      516.22
 NUMERICALLY INTEGRATED DENSITY    423.9999143664
 TTTTTTTTTTTTTTTTTTTTTTTTTTTTTT NUMDFT      TELAPSE      543.59 TCPU      522.92
 CYC   4 ETOT(AU) -6.366173556254E+03 DETOT -3.98E-01 tst  6.75E-03 PX  1.67E-01
 TTTTTTTTTTTTTTTTTTTTTTTTTTTTTT DIIS        TELAPSE      543.89 TCPU      523.22
 DIIS TEST: 0.12066E+01 AT SCF   CYCLE   4 - DIIS ACTIVE - HISTORY:     4 CYCLES
 TTTTTTTTTTTTTTTTTTTTTTTTTTTTTT FDIK        TELAPSE      558.28 TCPU      536.54
 INSULATING STATE
 TOP OF VALENCE BANDS -    BAND    212; K    4; EIG -2.4855519E-01 AU
 TOP OF VALENCE BANDS -    BAND    212; K    1; EIG -2.4860791E-01 AU
 BOTTOM OF VIRTUAL BANDS - BAND    213; K    1; EIG -1.2821759E-01 AU
 INDIRECT ENERGY BAND GAP:   3.2746 eV
 TTTTTTTTTTTTTTTTTTTTTTTTTTTTTT PDIG        TELAPSE      558.87 TCPU      537.12
 TOTAL ATOMIC CHARGES:
   1.1606421   1.1606421   1.1606421   1.1606421   1.2161230   1.2161230
   1.2161230   1.2161230   6.1916499   6.1916499   6.1916499   6.1916499
   5.8568925   5.8568925   5.8568925   5.8568925   6.2197523   6.2197523
   6.2197523   6.2197523   5.9669516   5.9669516   5.9669516   5.9669516
   5.6599815   5.6599815   5.6599815   5.6599815   5.4988198   5.4988198
   5.4988198   5.4988198   7.1449251   7.1449251   7.1449251   7.1449251
   7.0538149   7.0538149   7.0538149   7.0538149   7.1358309   7.1358309
   7.1358309   7.1358309   7.0591116   7.0591116   7.0591116   7.0591116
   7.0696521   7.0696521   7.0696521   7.0696521   9.1745901   9.1745901
   9.1745901   9.1745901   9.1525757   9.1525757   9.1525757   9.1525757
  28.8724652  28.8822824
 TTTTTTTTTTTTTTTTTTTTTTTTTTTTTT MOQGAD      TELAPSE      558.92 TCPU      537.17
 TTTTTTTTTTTTTTTTTTTTTTTTTTTTTT SHELLXN     TELAPSE      635.09 TCPU      610.67
 TTTTTTTTTTTTTTTTTTTTTTTTTTTTTT MONMO3      TELAPSE      645.83 TCPU      621.36
 NUMERICALLY INTEGRATED DENSITY    423.9999164702
 TTTTTTTTTTTTTTTTTTTTTTTTTTTTTT NUMDFT      TELAPSE      652.51 TCPU      628.01
 CYC   5 ETOT(AU) -6.366350012597E+03 DETOT -1.76E-01 tst  1.17E-03 PX  1.22E-01
 TTTTTTTTTTTTTTTTTTTTTTTTTTTTTT DIIS        TELAPSE      653.01 TCPU      628.51
 DIIS TEST: 0.42118E-01 AT SCF   CYCLE   5 - DIIS ACTIVE - HISTORY:     5 CYCLES
 TTTTTTTTTTTTTTTTTTTTTTTTTTTTTT FDIK        TELAPSE      664.37 TCPU      639.73
 INSULATING STATE
 TOP OF VALENCE BANDS -    BAND    212; K    2; EIG -2.4556658E-01 AU
 TOP OF VALENCE BANDS -    BAND    212; K    1; EIG -2.4585356E-01 AU
 BOTTOM OF VIRTUAL BANDS - BAND    213; K    1; EIG -1.2576188E-01 AU
 INDIRECT ENERGY BAND GAP:   3.2601 eV
 TTTTTTTTTTTTTTTTTTTTTTTTTTTTTT PDIG        TELAPSE      664.95 TCPU      640.30
 TOTAL ATOMIC CHARGES:
   1.1601169   1.1601169   1.1601169   1.1601169   1.2183461   1.2183461
   1.2183461   1.2183461   6.1602221   6.1602221   6.1602221   6.1602221
   5.8474094   5.8474094   5.8474094   5.8474094   6.2408420   6.2408420
   6.2408420   6.2408420   5.9028285   5.9028285   5.9028285   5.9028285
   5.6201921   5.6201921   5.6201921   5.6201921   5.5561110   5.5561110
   5.5561110   5.5561110   7.1239779   7.1239779   7.1239779   7.1239779
   7.0424390   7.0424390   7.0424390   7.0424390   7.1619486   7.1619486
   7.1619486   7.1619486   7.0834896   7.0834896   7.0834896   7.0834896
   7.0890680   7.0890680   7.0890680   7.0890680   9.1610385   9.1610385
   9.1610385   9.1610385   9.1771252   9.1771252   9.1771252   9.1771252
  28.8999321  28.9194468
 TTTTTTTTTTTTTTTTTTTTTTTTTTTTTT MOQGAD      TELAPSE      665.00 TCPU      640.35
 TTTTTTTTTTTTTTTTTTTTTTTTTTTTTT SHELLXN     TELAPSE      739.86 TCPU      713.81
 TTTTTTTTTTTTTTTTTTTTTTTTTTTTTT MONMO3      TELAPSE      750.64 TCPU      724.56
 NUMERICALLY INTEGRATED DENSITY    423.9999159240
 TTTTTTTTTTTTTTTTTTTTTTTTTTTTTT NUMDFT      TELAPSE      757.29 TCPU      731.18
 CYC   6 ETOT(AU) -6.366350994690E+03 DETOT -9.82E-04 tst  8.66E-05 PX  2.23E-02
 TTTTTTTTTTTTTTTTTTTTTTTTTTTTTT DIIS        TELAPSE      758.18 TCPU      732.07
 DIIS TEST: 0.44786E-01 AT SCF   CYCLE   6 - DIIS ACTIVE - HISTORY:     6 CYCLES
 TTTTTTTTTTTTTTTTTTTTTTTTTTTTTT FDIK        TELAPSE      769.30 TCPU      741.10
 INSULATING STATE
 TOP OF VALENCE BANDS -    BAND    212; K    2; EIG -2.4624156E-01 AU
 TOP OF VALENCE BANDS -    BAND    212; K    1; EIG -2.4635069E-01 AU
 BOTTOM OF VIRTUAL BANDS - BAND    213; K    1; EIG -1.2663416E-01 AU
 INDIRECT ENERGY BAND GAP:   3.2547 eV
 TTTTTTTTTTTTTTTTTTTTTTTTTTTTTT PDIG        TELAPSE      769.89 TCPU      741.69
 TOTAL ATOMIC CHARGES:
   1.1598207   1.1598207   1.1598207   1.1598207   1.2167283   1.2167283
   1.2167283   1.2167283   6.1663577   6.1663577   6.1663577   6.1663577
   5.8535309   5.8535309   5.8535309   5.8535309   6.2241456   6.2241456
   6.2241456   6.2241456   5.9219875   5.9219875   5.9219875   5.9219875
   5.6417037   5.6417037   5.6417037   5.6417037   5.5289587   5.5289587
   5.5289587   5.5289587   7.1559365   7.1559365   7.1559365   7.1559365
   7.0632493   7.0632493   7.0632493   7.0632493   7.1341141   7.1341141
   7.1341141   7.1341141   7.0536189   7.0536189   7.0536189   7.0536189
   7.0938218   7.0938218   7.0938218   7.0938218   9.1671753   9.1671753
   9.1671753   9.1671753   9.1652476   9.1652476   9.1652476   9.1652476
  28.9005748  28.9138389
 TTTTTTTTTTTTTTTTTTTTTTTTTTTTTT MOQGAD      TELAPSE      769.93 TCPU      741.74
 TTTTTTTTTTTTTTTTTTTTTTTTTTTTTT SHELLXN     TELAPSE      846.01 TCPU      815.10
 TTTTTTTTTTTTTTTTTTTTTTTTTTTTTT MONMO3      TELAPSE      856.79 TCPU      825.76
 NUMERICALLY INTEGRATED DENSITY    423.9999154421
 TTTTTTTTTTTTTTTTTTTTTTTTTTTTTT NUMDFT      TELAPSE      863.46 TCPU      832.41
 CYC   7 ETOT(AU) -6.366356010961E+03 DETOT -5.02E-03 tst  2.76E-05 PX  1.13E-02
 TTTTTTTTTTTTTTTTTTTTTTTTTTTTTT DIIS        TELAPSE      865.45 TCPU      834.39
 DIIS TEST: 0.96456E-02 AT SCF   CYCLE   7 - DIIS ACTIVE - HISTORY:     7 CYCLES
 TTTTTTTTTTTTTTTTTTTTTTTTTTTTTT FDIK        TELAPSE      876.75 TCPU      844.96
 INSULATING STATE
 TOP OF VALENCE BANDS -    BAND    212; K    2; EIG -2.4638916E-01 AU
 TOP OF VALENCE BANDS -    BAND    212; K    1; EIG -2.4650201E-01 AU
 BOTTOM OF VIRTUAL BANDS - BAND    213; K    1; EIG -1.2679658E-01 AU
 INDIRECT ENERGY BAND GAP:   3.2543 eV
 TTTTTTTTTTTTTTTTTTTTTTTTTTTTTT PDIG        TELAPSE      877.33 TCPU      845.54
 TOTAL ATOMIC CHARGES:
   1.1593059   1.1593059   1.1593059   1.1593059   1.2160218   1.2160218
   1.2160218   1.2160218   6.1696410   6.1696410   6.1696410   6.1696410
   5.8520289   5.8520289   5.8520289   5.8520289   6.2261106   6.2261106
   6.2261106   6.2261106   5.9368254   5.9368254   5.9368254   5.9368254
   5.6401053   5.6401053   5.6401053   5.6401053   5.5245225   5.5245225
   5.5245225   5.5245225   7.1341549   7.1341549   7.1341549   7.1341549
   7.0488423   7.0488423   7.0488423   7.0488423   7.1494567   7.1494567
   7.1494567   7.1494567   7.0724807   7.0724807   7.0724807   7.0724807
   7.0857653   7.0857653   7.0857653   7.0857653   9.1682427   9.1682427
   9.1682427   9.1682427   9.1631685   9.1631685   9.1631685   9.1631685
  28.8985456  28.9147639
 TTTTTTTTTTTTTTTTTTTTTTTTTTTTTT MOQGAD      TELAPSE      877.38 TCPU      845.59
 TTTTTTTTTTTTTTTTTTTTTTTTTTTTTT SHELLXN     TELAPSE      953.37 TCPU      919.07
 TTTTTTTTTTTTTTTTTTTTTTTTTTTTTT MONMO3      TELAPSE      961.87 TCPU      927.53
 NUMERICALLY INTEGRATED DENSITY    423.9999154718
 TTTTTTTTTTTTTTTTTTTTTTTTTTTTTT NUMDFT      TELAPSE      968.62 TCPU      934.26
 CYC   8 ETOT(AU) -6.366357164125E+03 DETOT -1.15E-03 tst  7.66E-06 PX  6.01E-03
 TTTTTTTTTTTTTTTTTTTTTTTTTTTTTT DIIS        TELAPSE      969.07 TCPU      934.70
 DIIS TEST: 0.14581E-02 AT SCF   CYCLE   8 - DIIS ACTIVE - HISTORY:     8 CYCLES
 TTTTTTTTTTTTTTTTTTTTTTTTTTTTTT FDIK        TELAPSE      982.24 TCPU      945.58
 INSULATING STATE
 TOP OF VALENCE BANDS -    BAND    212; K    2; EIG -2.4677040E-01 AU
 TOP OF VALENCE BANDS -    BAND    212; K    1; EIG -2.4690134E-01 AU
 BOTTOM OF VIRTUAL BANDS - BAND    213; K    1; EIG -1.2693499E-01 AU
 INDIRECT ENERGY BAND GAP:   3.2609 eV
 TTTTTTTTTTTTTTTTTTTTTTTTTTTTTT PDIG        TELAPSE      982.82 TCPU      946.16
 TOTAL ATOMIC CHARGES:
   1.1587142   1.1587142   1.1587142   1.1587142   1.2158389   1.2158389
   1.2158389   1.2158389   6.1708480   6.1708480   6.1708480   6.1708480
   5.8472270   5.8472270   5.8472270   5.8472270   6.2271553   6.2271553
   6.2271553   6.2271553   5.9343383   5.9343383   5.9343383   5.9343383
   5.6364783   5.6364783   5.6364783   5.6364783   5.5281665   5.5281665
   5.5281665   5.5281665   7.1423147   7.1423147   7.1423147   7.1423147
   7.0568826   7.0568826   7.0568826   7.0568826   7.1425987   7.1425987
   7.1425987   7.1425987   7.0649768   7.0649768   7.0649768   7.0649768
   7.0868669   7.0868669   7.0868669   7.0868669   9.1679353   9.1679353
   9.1679353   9.1679353   9.1662374   9.1662374   9.1662374   9.1662374
  28.8989835  28.9147011
 TTTTTTTTTTTTTTTTTTTTTTTTTTTTTT MOQGAD      TELAPSE      982.87 TCPU      946.21
 TTTTTTTTTTTTTTTTTTTTTTTTTTTTTT SHELLXN     TELAPSE     1058.88 TCPU     1019.65
 TTTTTTTTTTTTTTTTTTTTTTTTTTTTTT MONMO3      TELAPSE     1069.56 TCPU     1030.31
 NUMERICALLY INTEGRATED DENSITY    423.9999155554
 TTTTTTTTTTTTTTTTTTTTTTTTTTTTTT NUMDFT      TELAPSE     1076.22 TCPU     1036.85
 CYC   9 ETOT(AU) -6.366357329682E+03 DETOT -1.66E-04 tst  1.67E-06 PX  2.45E-03
 TTTTTTTTTTTTTTTTTTTTTTTTTTTTTT DIIS        TELAPSE     1076.52 TCPU     1037.15
 DIIS TEST: 0.49770E-03 AT SCF   CYCLE   9 - DIIS ACTIVE - HISTORY:     9 CYCLES
 TTTTTTTTTTTTTTTTTTTTTTTTTTTTTT FDIK        TELAPSE     1086.96 TCPU     1047.33
 INSULATING STATE
 TOP OF VALENCE BANDS -    BAND    212; K    2; EIG -2.4659596E-01 AU
 TOP OF VALENCE BANDS -    BAND    212; K    1; EIG -2.4672871E-01 AU
 BOTTOM OF VIRTUAL BANDS - BAND    213; K    1; EIG -1.2687084E-01 AU
 INDIRECT ENERGY BAND GAP:   3.2579 eV
 TTTTTTTTTTTTTTTTTTTTTTTTTTTTTT PDIG        TELAPSE     1087.55 TCPU     1047.92
 TOTAL ATOMIC CHARGES:
   1.1591467   1.1591467   1.1591467   1.1591467   1.2162124   1.2162124
   1.2162124   1.2162124   6.1704562   6.1704562   6.1704562   6.1704562
   5.8499011   5.8499011   5.8499011   5.8499011   6.2252649   6.2252649
   6.2252649   6.2252649   5.9310259   5.9310259   5.9310259   5.9310259
   5.6390092   5.6390092   5.6390092   5.6390092   5.5258149   5.5258149
   5.5258149   5.5258149   7.1409334   7.1409334   7.1409334   7.1409334
   7.0515093   7.0515093   7.0515093   7.0515093   7.1468252   7.1468252
   7.1468252   7.1468252   7.0674183   7.0674183   7.0674183   7.0674183
   7.0911790   7.0911790   7.0911790   7.0911790   9.1667516   9.1667516
   9.1667516   9.1667516   9.1655934   9.1655934   9.1655934   9.1655934
  28.8983776  28.9134563
 TTTTTTTTTTTTTTTTTTTTTTTTTTTTTT MOQGAD      TELAPSE     1087.60 TCPU     1047.96
 TTTTTTTTTTTTTTTTTTTTTTTTTTTTTT SHELLXN     TELAPSE     1163.72 TCPU     1121.32
 TTTTTTTTTTTTTTTTTTTTTTTTTTTTTT MONMO3      TELAPSE     1173.98 TCPU     1131.55
 NUMERICALLY INTEGRATED DENSITY    423.9999157044
 TTTTTTTTTTTTTTTTTTTTTTTTTTTTTT NUMDFT      TELAPSE     1180.67 TCPU     1138.21
 CYC  10 ETOT(AU) -6.366357384011E+03 DETOT -5.43E-05 tst  4.07E-07 PX  1.50E-03
 TTTTTTTTTTTTTTTTTTTTTTTTTTTTTT DIIS        TELAPSE     1180.89 TCPU     1138.44
 DIIS TEST: 0.14018E-03 AT SCF   CYCLE  10 - DIIS ACTIVE - HISTORY:    10 CYCLES
 TTTTTTTTTTTTTTTTTTTTTTTTTTTTTT FDIK        TELAPSE     1193.91 TCPU     1149.39
 INSULATING STATE
 TOP OF VALENCE BANDS -    BAND    212; K    2; EIG -2.4655695E-01 AU
 TOP OF VALENCE BANDS -    BAND    212; K    1; EIG -2.4668240E-01 AU
 BOTTOM OF VIRTUAL BANDS - BAND    213; K    1; EIG -1.2682991E-01 AU
 INDIRECT ENERGY BAND GAP:   3.2579 eV
 TTTTTTTTTTTTTTTTTTTTTTTTTTTTTT PDIG        TELAPSE     1194.50 TCPU     1149.97
 TOTAL ATOMIC CHARGES:
   1.1591341   1.1591341   1.1591341   1.1591341   1.2161210   1.2161210
   1.2161210   1.2161210   6.1688372   6.1688372   6.1688372   6.1688372
   5.8502131   5.8502131   5.8502131   5.8502131   6.2263309   6.2263309
   6.2263309   6.2263309   5.9335684   5.9335684   5.9335684   5.9335684
   5.6388566   5.6388566   5.6388566   5.6388566   5.5266402   5.5266402
   5.5266402   5.5266402   7.1398235   7.1398235   7.1398235   7.1398235
   7.0543444   7.0543444   7.0543444   7.0543444   7.1447556   7.1447556
   7.1447556   7.1447556   7.0678532   7.0678532   7.0678532   7.0678532
   7.0880071   7.0880071   7.0880071   7.0880071   9.1674943   9.1674943
   9.1674943   9.1674943   9.1651639   9.1651639   9.1651639   9.1651639
  28.8980285  28.9133972
 TTTTTTTTTTTTTTTTTTTTTTTTTTTTTT MOQGAD      TELAPSE     1194.55 TCPU     1150.02
 TTTTTTTTTTTTTTTTTTTTTTTTTTTTTT SHELLXN     TELAPSE     1270.55 TCPU     1223.55
 TTTTTTTTTTTTTTTTTTTTTTTTTTTTTT MONMO3      TELAPSE     1280.60 TCPU     1233.57
 NUMERICALLY INTEGRATED DENSITY    423.9999155441
 TTTTTTTTTTTTTTTTTTTTTTTTTTTTTT NUMDFT      TELAPSE     1287.29 TCPU     1240.24
 CYC  11 ETOT(AU) -6.366357402752E+03 DETOT -1.87E-05 tst  1.44E-07 PX  8.66E-04
 TTTTTTTTTTTTTTTTTTTTTTTTTTTTTT DIIS        TELAPSE     1287.62 TCPU     1240.58
 DIIS TEST: 0.20863E-04 AT SCF   CYCLE  11 - DIIS ACTIVE - HISTORY:    11 CYCLES
 TTTTTTTTTTTTTTTTTTTTTTTTTTTTTT FDIK        TELAPSE     1300.25 TCPU     1250.91
 INSULATING STATE
 TOP OF VALENCE BANDS -    BAND    212; K    2; EIG -2.4659228E-01 AU
 TOP OF VALENCE BANDS -    BAND    212; K    1; EIG -2.4671977E-01 AU
 BOTTOM OF VIRTUAL BANDS - BAND    213; K    1; EIG -1.2686520E-01 AU
 INDIRECT ENERGY BAND GAP:   3.2579 eV
 TTTTTTTTTTTTTTTTTTTTTTTTTTTTTT PDIG        TELAPSE     1300.84 TCPU     1251.49
 TOTAL ATOMIC CHARGES:
   1.1590579   1.1590579   1.1590579   1.1590579   1.2160180   1.2160180
   1.2160180   1.2160180   6.1700406   6.1700406   6.1700406   6.1700406
   5.8493544   5.8493544   5.8493544   5.8493544   6.2259791   6.2259791
   6.2259791   6.2259791   5.9333156   5.9333156   5.9333156   5.9333156
   5.6380380   5.6380380   5.6380380   5.6380380   5.5265008   5.5265008
   5.5265008   5.5265008   7.1407911   7.1407911   7.1407911   7.1407911
   7.0533351   7.0533351   7.0533351   7.0533351   7.1456468   7.1456468
   7.1456468   7.1456468   7.0670608   7.0670608   7.0670608   7.0670608
   7.0888135   7.0888135   7.0888135   7.0888135   9.1674587   9.1674587
   9.1674587   9.1674587   9.1654717   9.1654717   9.1654717   9.1654717
  28.8984073  28.9140642
 TTTTTTTTTTTTTTTTTTTTTTTTTTTTTT MOQGAD      TELAPSE     1300.89 TCPU     1251.54
 TTTTTTTTTTTTTTTTTTTTTTTTTTTTTT SHELLXN     TELAPSE     1376.35 TCPU     1325.06
 TTTTTTTTTTTTTTTTTTTTTTTTTTTTTT MONMO3      TELAPSE     1386.30 TCPU     1334.99
 NUMERICALLY INTEGRATED DENSITY    423.9999155949
 TTTTTTTTTTTTTTTTTTTTTTTTTTTTTT NUMDFT      TELAPSE     1392.97 TCPU     1341.63
 CYC  12 ETOT(AU) -6.366357405831E+03 DETOT -3.08E-06 tst  3.70E-08 PX  3.11E-04
 TTTTTTTTTTTTTTTTTTTTTTTTTTTTTT DIIS        TELAPSE     1393.16 TCPU     1341.83
 DIIS TEST: 0.44729E-05 AT SCF   CYCLE  12 - DIIS ACTIVE - HISTORY:    12 CYCLES
 TTTTTTTTTTTTTTTTTTTTTTTTTTTTTT FDIK        TELAPSE     1406.08 TCPU     1352.42
 INSULATING STATE
 TOP OF VALENCE BANDS -    BAND    212; K    2; EIG -2.4659517E-01 AU
 TOP OF VALENCE BANDS -    BAND    212; K    1; EIG -2.4672355E-01 AU
 BOTTOM OF VIRTUAL BANDS - BAND    213; K    1; EIG -1.2685275E-01 AU
 INDIRECT ENERGY BAND GAP:   3.2584 eV
 TTTTTTTTTTTTTTTTTTTTTTTTTTTTTT PDIG        TELAPSE     1406.66 TCPU     1353.00
 TOTAL ATOMIC CHARGES:
   1.1590481   1.1590481   1.1590481   1.1590481   1.2160695   1.2160695
   1.2160695   1.2160695   6.1698953   6.1698953   6.1698953   6.1698953
   5.8496536   5.8496536   5.8496536   5.8496536   6.2260744   6.2260744
   6.2260744   6.2260744   5.9329037   5.9329037   5.9329037   5.9329037
   5.6385456   5.6385456   5.6385456   5.6385456   5.5265165   5.5265165
   5.5265165   5.5265165   7.1402670   7.1402670   7.1402670   7.1402670
   7.0536527   7.0536527   7.0536527   7.0536527   7.1451483   7.1451483
   7.1451483   7.1451483   7.0675298   7.0675298   7.0675298   7.0675298
   7.0888001   7.0888001   7.0888001   7.0888001   9.1673884   9.1673884
   9.1673884   9.1673884   9.1654482   9.1654482   9.1654482   9.1654482
  28.8983894  28.9138461
 TTTTTTTTTTTTTTTTTTTTTTTTTTTTTT MOQGAD      TELAPSE     1406.71 TCPU     1353.05
 TTTTTTTTTTTTTTTTTTTTTTTTTTTTTT SHELLXN     TELAPSE     1483.12 TCPU     1426.49
 TTTTTTTTTTTTTTTTTTTTTTTTTTTTTT MONMO3      TELAPSE     1493.12 TCPU     1436.44
 NUMERICALLY INTEGRATED DENSITY    423.9999155882
 TTTTTTTTTTTTTTTTTTTTTTTTTTTTTT NUMDFT      TELAPSE     1499.76 TCPU     1443.06
 CYC  13 ETOT(AU) -6.366357406386E+03 DETOT -5.55E-07 tst  7.37E-09 PX  1.48E-04
 TTTTTTTTTTTTTTTTTTTTTTTTTTTTTT DIIS        TELAPSE     1500.01 TCPU     1443.31
 DIIS TEST: 0.12907E-05 AT SCF   CYCLE  13 - DIIS ACTIVE - HISTORY:    13 CYCLES
 TTTTTTTTTTTTTTTTTTTTTTTTTTTTTT FDIK        TELAPSE     1510.27 TCPU     1453.43
 INSULATING STATE
 TOP OF VALENCE BANDS -    BAND    212; K    2; EIG -2.4658751E-01 AU
 TOP OF VALENCE BANDS -    BAND    212; K    1; EIG -2.4671519E-01 AU
 BOTTOM OF VIRTUAL BANDS - BAND    213; K    1; EIG -1.2685424E-01 AU
 INDIRECT ENERGY BAND GAP:   3.2581 eV
 TTTTTTTTTTTTTTTTTTTTTTTTTTTTTT PDIG        TELAPSE     1510.85 TCPU     1454.01
 TOTAL ATOMIC CHARGES:
   1.1590802   1.1590802   1.1590802   1.1590802   1.2160706   1.2160706
   1.2160706   1.2160706   6.1697210   6.1697210   6.1697210   6.1697210
   5.8496446   5.8496446   5.8496446   5.8496446   6.2260685   6.2260685
[...]
 TTTTTTTTTTTTTTTTTTTTTTTTTTTTTT MOQGAD      TELAPSE   272607.65 TCPU   269747.12
 TTTTTTTTTTTTTTTTTTTTTTTTTTTTTT CP_MONMON   TELAPSE   272624.22 TCPU   269763.64
 DIIS TEST: 0.17465E+02 AT CPHF  CYCLE   3 - DIIS ACTIVE - HISTORY:     3 CYCLES
 CYCLE   3   ALPHA  435.549129  EPSILON    2.150547  DELTA    2.4784E+01
 TTTTTTTTTTTTTTTTTTTTTTTTTTTTTT MOQGAD      TELAPSE   273330.15 TCPU   270462.19
 TTTTTTTTTTTTTTTTTTTTTTTTTTTTTT CP_MONMON   TELAPSE   273346.70 TCPU   270478.70
 DIIS TEST: 0.56296E+01 AT CPHF  CYCLE   4 - DIIS ACTIVE - HISTORY:     4 CYCLES
 CYCLE   4   ALPHA  437.993201  EPSILON    2.157003  DELTA    2.4441E+00
 TTTTTTTTTTTTTTTTTTTTTTTTTTTTTT MOQGAD      TELAPSE   274048.72 TCPU   271173.37
 TTTTTTTTTTTTTTTTTTTTTTTTTTTTTT CP_MONMON   TELAPSE   274065.17 TCPU   271189.78
 DIIS TEST: 0.15648E+00 AT CPHF  CYCLE   5 - DIIS ACTIVE - HISTORY:     5 CYCLES
 CYCLE   5   ALPHA  438.622359  EPSILON    2.158665  DELTA    6.2916E-01
 TTTTTTTTTTTTTTTTTTTTTTTTTTTTTT MOQGAD      TELAPSE   274779.50 TCPU   271886.25
 TTTTTTTTTTTTTTTTTTTTTTTTTTTTTT CP_MONMON   TELAPSE   274796.91 TCPU   271902.99
 DIIS TEST: 0.51917E-01 AT CPHF  CYCLE   6 - DIIS ACTIVE - HISTORY:     6 CYCLES
 CYCLE   6   ALPHA  438.729212  EPSILON    2.158948  DELTA    1.0685E-01
 TTTTTTTTTTTTTTTTTTTTTTTTTTTTTT MOQGAD      TELAPSE   275521.70 TCPU   272616.14
 TTTTTTTTTTTTTTTTTTTTTTTTTTTTTT CP_MONMON   TELAPSE   275538.26 TCPU   272632.63
 DIIS TEST: 0.78195E-01 AT CPHF  CYCLE   7 - DIIS ACTIVE - HISTORY:     7 CYCLES
 CYCLE   7   ALPHA  438.884073  EPSILON    2.159357  DELTA    1.5486E-01
 TTTTTTTTTTTTTTTTTTTTTTTTTTTTTT MOQGAD      TELAPSE   276244.60 TCPU   273326.47
 TTTTTTTTTTTTTTTTTTTTTTTTTTTTTT CP_MONMON   TELAPSE   276261.07 TCPU   273342.89
 DIIS TEST: 0.20658E-01 AT CPHF  CYCLE   8 - DIIS ACTIVE - HISTORY:     8 CYCLES
 CYCLE   8   ALPHA  438.914307  EPSILON    2.159437  DELTA    3.0233E-02
 TTTTTTTTTTTTTTTTTTTTTTTTTTTTTT MOQGAD      TELAPSE   276968.89 TCPU   274039.57
 TTTTTTTTTTTTTTTTTTTTTTTTTTTTTT CP_MONMON   TELAPSE   276985.44 TCPU   274056.09
 DIIS TEST: 0.15338E-02 AT CPHF  CYCLE   9 - DIIS ACTIVE - HISTORY:     9 CYCLES
 CYCLE   9   ALPHA  438.946301  EPSILON    2.159521  DELTA    3.1994E-02
 TTTTTTTTTTTTTTTTTTTTTTTTTTTTTT MOQGAD      TELAPSE   277687.07 TCPU   274751.28
 TTTTTTTTTTTTTTTTTTTTTTTTTTTTTT CP_MONMON   TELAPSE   277703.64 TCPU   274767.81
 DIIS TEST: 0.20617E-03 AT CPHF  CYCLE  10 - DIIS ACTIVE - HISTORY:    10 CYCLES
 CYCLE  10   ALPHA  438.936017  EPSILON    2.159494  DELTA   -1.0284E-02
 TTTTTTTTTTTTTTTTTTTTTTTTTTTTTT MOQGAD      TELAPSE   278408.06 TCPU   275462.73
 TTTTTTTTTTTTTTTTTTTTTTTTTTTTTT CP_MONMON   TELAPSE   278425.24 TCPU   275479.34
 DIIS TEST: 0.27545E-04 AT CPHF  CYCLE  11 - DIIS ACTIVE - HISTORY:    11 CYCLES
 CYCLE  11   ALPHA  438.927027  EPSILON    2.159470  DELTA   -8.9898E-03
 TTTTTTTTTTTTTTTTTTTTTTTTTTTTTT MOQGAD      TELAPSE   279128.40 TCPU   276173.89
 TTTTTTTTTTTTTTTTTTTTTTTTTTTTTT CP_MONMON   TELAPSE   279144.90 TCPU   276190.28
 DIIS TEST: 0.44437E-05 AT CPHF  CYCLE  12 - DIIS ACTIVE - HISTORY:    12 CYCLES
 CYCLE  12   ALPHA  438.924927  EPSILON    2.159465  DELTA   -2.1002E-03
 TTTTTTTTTTTTTTTTTTTTTTTTTTTTTT MOQGAD      TELAPSE   279848.41 TCPU   276885.62
 TTTTTTTTTTTTTTTTTTTTTTTTTTTTTT CP_MONMON   TELAPSE   279864.91 TCPU   276902.06
 DIIS TEST: 0.95125E-06 AT CPHF  CYCLE  13 - DIIS ACTIVE - HISTORY:    13 CYCLES
 CYCLE  13   ALPHA  438.924247  EPSILON    2.159463  DELTA   -6.7985E-04
 TTTTTTTTTTTTTTTTTTTTTTTTTTTTTT CP_SC       TELAPSE   279906.75 TCPU   276936.75

 *******************************************************************************

 POLARIZABILITY (ALPHA), DIELECTRIC (EPSILON) AND FIRST-ORDER ELECTRIC
 SUSCEPTIBILITY (CHI(1)) TENSORS (INDEPENDENT COMPONENTS)

  FR.(eV) COMP.   ALPHA(Re,Im)           EPSILON(Re,Im)                CHI(1)
  1.435   XX     818.5635       0.0000       3.1623       0.0000       2.1623
  1.435   ZZ     438.9242       0.0000       2.1595       0.0000       1.1595

 DIELECTRIC TENSOR

 TENSOR IN PRINCIPAL AXES SYSTEM
 AA  3.162318E+00 BB  3.162318E+00 CC  2.159463E+00

 REFRACTIVE INDICES 
 AA  1.469511E+00 BB  1.778291E+00 CC  1.778291E+00

 OPTICALLY ANISOTROPIC - UNIAXIAL CRYSTAL

 BIREFRINGENCE =  0.3088 (NEGATIVE) - OBLATE OPTICAL ELLIPSOID

 EPSILON=N**2=1+CHI(1)=1+ALPHA*4*PI/V,   4*PI/V=   0.00264 BOHR**(-3)
 ALPHA IN BOHR**3; EPSILON AND CHI(1) ARE DIMENSIONLESS.
 *******************************************************************************

 DYNAMIC FIELD: RUN 10/ 10 - RADIATION WAVELENGTH: 1064.0000 NM

 *******************************************************************************

 ELECTRIC FIELD APPLIED ALONG CARTESIAN DIRECTION X

 *******************************************************************************
 THE NUMBER OF SYMMETRY OPERATORS HAS BEEN REDUCED FROM  4 TO  1

 NEW GRID IN RECIPROCAL SPACE
 *******************************************************************************
 POINTS IN THE IBZ                  14 SHRINKING FACTORS               3  3  3
 *******************************************************************************
 *** K POINTS COORDINATES (OBLIQUE COORDINATES IN UNITS OF SHRINK FAC. )
   1-R(  0  0  0)   2-C(  1  0  0)   3-C(  0  1  2)   4-C(  2  0  1)
   5-C(  0  2  0)   6-C(  1  1  0)   7-C(  1  1  1)   8-C(  1  0  1)
   9-C(  0  1  1)  10-C(  2  1  0)  11-C(  0  0  2)  12-C(  2  1  1)
  13-C(  2  1  2)  14-C(  2  2  1)

 GCALCO - MAX INDICES DIRECT LATTICE VECTOR    14    14    16
 NO.OF VECTORS CREATED 6999 STARS  482 RMAX   200.15221 BOHR
 TTTTTTTTTTTTTTTTTTTTTTTTTTTTTT gordsh1     TELAPSE   279906.77 TCPU   276936.76

 MATRIX SIZE: P(G) 1789656, F(G)  895534, P(G) IRR  897164, F(G) IRR  897164
 MAX G-VECTOR INDEX FOR 1- AND 2-ELECTRON INTEGRALS  63

 TTTTTTTTTTTTTTTTTTTTTTTTTTTTTT INPUT       TELAPSE   279907.13 TCPU   276937.12
 TTTTTTTTTTTTTTTTTTTTTTTTTTTTTT SYMM        TELAPSE   279907.13 TCPU   276937.12

 ***** NEW REFERENCE GEOMETRY *****
 TTTTTTTTTTTTTTTTTTTTTTTTTTTTTT INT_SCREEN  TELAPSE   279907.14 TCPU   276937.14
 INFORMATION **** EXCBUF **** EXCH. BIPO BUFFER: WORDS USED =           0

 DFT PARAMETERS

     ATOM       ELECTRONS   NET CHARGE   R(ANGSTROM)
   1   1  H       1.0000      0.0000     1.11000000
   9   6  C       6.0000      0.0000     0.77000000
  33   7  N       7.0000      0.0000     0.74000000
  53   9  F       9.0000      0.0000     0.72000000
  61  30  ZN     30.0000      0.0000     1.37000000

 SIZE OF GRID=    1909538
 TTTTTTTTTTTTTTTTTTTTTTTTTTTTTT MAKE_GRID2  TELAPSE   279909.49 TCPU   276939.44
 BECKE WEIGHT FUNCTION
 RADSAFE =     2.00
 TOLERANCES - DENSITY:10**- 6; POTENTIAL:10**- 9; GRID WGT:10**-14

 RADIAL INTEGRATION  - INTERVALS (POINTS,UPPER LIMIT):            1( 75,  4.0*R)

 ANGULAR INTEGRATION - INTERVALS (ACCURACY LEVEL [N. POINTS] UPPER LIMIT):
  1(  4[  86]   0.2)  2(  8[ 194]   0.5)  3( 12[ 350]   0.9)  4( 16[ 974]   3.5)
  5( 12[ 350]9999.0)
 TTTTTTTTTTTTTTTTTTTTTTTTTTTTTT INT_CALC    TELAPSE   279909.59 TCPU   276939.55
 CYCLE   0   ALPHA 1174.726398  EPSILON    4.103159  DELTA    1.1747E+03
 TTTTTTTTTTTTTTTTTTTTTTTTTTTTTT MOQGAD      TELAPSE   281289.51 TCPU   278310.78
 TTTTTTTTTTTTTTTTTTTTTTTTTTTTTT CP_MONMON   TELAPSE   281320.47 TCPU   278341.61
 DIIS TEST: 0.34808E+03 AT CPHF  CYCLE   1 - MIX    0 %
 CYCLE   1   ALPHA  -11.563942  EPSILON    0.969453  DELTA   -1.1863E+03
 TTTTTTTTTTTTTTTTTTTTTTTTTTTTTT MOQGAD      TELAPSE   282710.71 TCPU   279724.29
 TTTTTTTTTTTTTTTTTTTTTTTTTTTTTT CP_MONMON   TELAPSE   282741.51 TCPU   279754.96
 DIIS TEST: 0.27829E+04 AT CPHF  CYCLE   2 - DIIS ACTIVE - HISTORY:     2 CYCLES
 CYCLE   2   ALPHA  753.195375  EPSILON    2.989642  DELTA    7.6476E+02
 TTTTTTTTTTTTTTTTTTTTTTTTTTTTTT MOQGAD      TELAPSE   284136.06 TCPU   281137.79
 TTTTTTTTTTTTTTTTTTTTTTTTTTTTTT CP_MONMON   TELAPSE   284166.94 TCPU   281168.58
 DIIS TEST: 0.52418E+02 AT CPHF  CYCLE   3 - DIIS ACTIVE - HISTORY:     3 CYCLES
 CYCLE   3   ALPHA  788.299033  EPSILON    3.082372  DELTA    3.5104E+01
 TTTTTTTTTTTTTTTTTTTTTTTTTTTTTT MOQGAD      TELAPSE   285557.88 TCPU   282549.57
 TTTTTTTTTTTTTTTTTTTTTTTTTTTTTT CP_MONMON   TELAPSE   285588.67 TCPU   282580.24
 DIIS TEST: 0.38149E+01 AT CPHF  CYCLE   4 - DIIS ACTIVE - HISTORY:     4 CYCLES
 CYCLE   4   ALPHA  800.114308  EPSILON    3.113583  DELTA    1.1815E+01
 TTTTTTTTTTTTTTTTTTTTTTTTTTTTTT MOQGAD      TELAPSE   286980.50 TCPU   283960.28
 TTTTTTTTTTTTTTTTTTTTTTTTTTTTTT CP_MONMON   TELAPSE   287011.28 TCPU   283990.95
 DIIS TEST: 0.11378E+01 AT CPHF  CYCLE   5 - DIIS ACTIVE - HISTORY:     5 CYCLES
 CYCLE   5   ALPHA  805.489679  EPSILON    3.127783  DELTA    5.3754E+00
 TTTTTTTTTTTTTTTTTTTTTTTTTTTTTT MOQGAD      TELAPSE   288405.82 TCPU   285376.18
 TTTTTTTTTTTTTTTTTTTTTTTTTTTTTT CP_MONMON   TELAPSE   288436.89 TCPU   285407.16
 DIIS TEST: 0.73321E-01 AT CPHF  CYCLE   6 - DIIS ACTIVE - HISTORY:     6 CYCLES
 CYCLE   6   ALPHA  806.890364  EPSILON    3.131483  DELTA    1.4007E+00
 TTTTTTTTTTTTTTTTTTTTTTTTTTTTTT MOQGAD      TELAPSE   289838.06 TCPU   286798.22
 TTTTTTTTTTTTTTTTTTTTTTTTTTTTTT CP_MONMON   TELAPSE   289868.85 TCPU   286828.64
 DIIS TEST: 0.87119E-02 AT CPHF  CYCLE   7 - DIIS ACTIVE - HISTORY:     7 CYCLES
 CYCLE   7   ALPHA  807.036333  EPSILON    3.131868  DELTA    1.4597E-01
 TTTTTTTTTTTTTTTTTTTTTTTTTTTTTT MOQGAD      TELAPSE   291270.84 TCPU   288223.18
 TTTTTTTTTTTTTTTTTTTTTTTTTTTTTT CP_MONMON   TELAPSE   291301.83 TCPU   288254.08
 DIIS TEST: 0.95505E-03 AT CPHF  CYCLE   8 - DIIS ACTIVE - HISTORY:     8 CYCLES
 CYCLE   8   ALPHA  807.080968  EPSILON    3.131986  DELTA    4.4635E-02
 TTTTTTTTTTTTTTTTTTTTTTTTTTTTTT MOQGAD      TELAPSE   292705.93 TCPU   289650.54
 TTTTTTTTTTTTTTTTTTTTTTTTTTTTTT CP_MONMON   TELAPSE   292736.71 TCPU   289681.24
 DIIS TEST: 0.11603E-03 AT CPHF  CYCLE   9 - DIIS ACTIVE - HISTORY:     9 CYCLES
 CYCLE   9   ALPHA  807.063125  EPSILON    3.131939  DELTA   -1.7844E-02
 TTTTTTTTTTTTTTTTTTTTTTTTTTTTTT MOQGAD      TELAPSE   294166.49 TCPU   291097.39
 TTTTTTTTTTTTTTTTTTTTTTTTTTTTTT CP_MONMON   TELAPSE   294197.27 TCPU   291128.09
 DIIS TEST: 0.12706E-04 AT CPHF  CYCLE  10 - DIIS ACTIVE - HISTORY:    10 CYCLES
 CYCLE  10   ALPHA  807.049526  EPSILON    3.131903  DELTA   -1.3599E-02
 TTTTTTTTTTTTTTTTTTTTTTTTTTTTTT MOQGAD      TELAPSE   295623.15 TCPU   292542.49
 TTTTTTTTTTTTTTTTTTTTTTTTTTTTTT CP_MONMON   TELAPSE   295653.91 TCPU   292573.09
 DIIS TEST: 0.22234E-05 AT CPHF  CYCLE  11 - DIIS ACTIVE - HISTORY:    11 CYCLES
 CYCLE  11   ALPHA  807.043114  EPSILON    3.131886  DELTA   -6.4121E-03
 TTTTTTTTTTTTTTTTTTTTTTTTTTTTTT MOQGAD      TELAPSE   297108.39 TCPU   294015.25
 TTTTTTTTTTTTTTTTTTTTTTTTTTTTTT CP_MONMON   TELAPSE   297139.93 TCPU   294045.81
 DIIS TEST: 0.22360E-06 AT CPHF  CYCLE  12 - DIIS ACTIVE - HISTORY:    12 CYCLES
 CYCLE  12   ALPHA  807.042185  EPSILON    3.131884  DELTA   -9.2815E-04
 TTTTTTTTTTTTTTTTTTTTTTTTTTTTTT CP_SC       TELAPSE   297195.83 TCPU   294090.87

 *******************************************************************************

 ELECTRIC FIELD APPLIED ALONG CARTESIAN DIRECTION Z

 *******************************************************************************
 THE NUMBER OF SYMMETRY OPERATORS HAS BEEN REDUCED FROM  4 TO  2

 NEW GRID IN RECIPROCAL SPACE
 *******************************************************************************
 POINTS IN THE IBZ                  10 SHRINKING FACTORS               3  3  3
 *******************************************************************************
 *** K POINTS COORDINATES (OBLIQUE COORDINATES IN UNITS OF SHRINK FAC. )
   1-R(  0  0  0)   2-C(  1  0  0)   3-C(  2  0  1)   4-C(  1  1  0)
   5-C(  1  0  1)   6-C(  2  1  0)   7-C(  0  0  2)   8-C(  2  1  1)
   9-C(  2  1  2)  10-C(  2  2  1)

 GCALCO - MAX INDICES DIRECT LATTICE VECTOR    14    14    16
 NO.OF VECTORS CREATED 6999 STARS  482 RMAX   200.15221 BOHR
 TTTTTTTTTTTTTTTTTTTTTTTTTTTTTT gordsh1     TELAPSE   297195.84 TCPU   294090.88

 MATRIX SIZE: P(G) 1789656, F(G)  895534, P(G) IRR  451048, F(G) IRR  451048
 MAX G-VECTOR INDEX FOR 1- AND 2-ELECTRON INTEGRALS  63

 TTTTTTTTTTTTTTTTTTTTTTTTTTTTTT INPUT       TELAPSE   297195.94 TCPU   294090.97
 TTTTTTTTTTTTTTTTTTTTTTTTTTTTTT SYMM        TELAPSE   297195.94 TCPU   294090.97

 ***** NEW REFERENCE GEOMETRY *****
 TTTTTTTTTTTTTTTTTTTTTTTTTTTTTT INT_SCREEN  TELAPSE   297195.95 TCPU   294090.98
 INFORMATION **** EXCBUF **** EXCH. BIPO BUFFER: WORDS USED =           0

 DFT PARAMETERS

     ATOM       ELECTRONS   NET CHARGE   R(ANGSTROM)
   1   1  H       1.0000      0.0000     1.11000000
   9   6  C       6.0000      0.0000     0.77000000
  33   7  N       7.0000      0.0000     0.74000000
  53   9  F       9.0000      0.0000     0.72000000
  61  30  ZN     30.0000      0.0000     1.37000000

 SIZE OF GRID=     954884
 TTTTTTTTTTTTTTTTTTTTTTTTTTTTTT MAKE_GRID2  TELAPSE   297197.33 TCPU   294092.36
 BECKE WEIGHT FUNCTION
 RADSAFE =     2.00
 TOLERANCES - DENSITY:10**- 6; POTENTIAL:10**- 9; GRID WGT:10**-14

 RADIAL INTEGRATION  - INTERVALS (POINTS,UPPER LIMIT):            1( 75,  4.0*R)

 ANGULAR INTEGRATION - INTERVALS (ACCURACY LEVEL [N. POINTS] UPPER LIMIT):
  1(  4[  86]   0.2)  2(  8[ 194]   0.5)  3( 12[ 350]   0.9)  4( 16[ 974]   3.5)
  5( 12[ 350]9999.0)
 TTTTTTTTTTTTTTTTTTTTTTTTTTTTTT INT_CALC    TELAPSE   297197.40 TCPU   294092.42
 CYCLE   0   ALPHA  569.515171  EPSILON    2.504432  DELTA    5.6952E+02
 TTTTTTTTTTTTTTTTTTTTTTTTTTTTTT MOQGAD      TELAPSE   297888.66 TCPU   294777.71
 TTTTTTTTTTTTTTTTTTTTTTTTTTTTTT CP_MONMON   TELAPSE   297905.12 TCPU   294794.13
 DIIS TEST: 0.97533E+02 AT CPHF  CYCLE   1 - MIX    0 %
 CYCLE   1   ALPHA  220.651106  EPSILON    1.582872  DELTA   -3.4886E+02
 TTTTTTTTTTTTTTTTTTTTTTTTTTTTTT MOQGAD      TELAPSE   298618.05 TCPU   295497.99
 TTTTTTTTTTTTTTTTTTTTTTTTTTTTTT CP_MONMON   TELAPSE   298634.68 TCPU   295514.56
 DIIS TEST: 0.73443E+03 AT CPHF  CYCLE   2 - DIIS ACTIVE - HISTORY:     2 CYCLES
 CYCLE   2   ALPHA  408.166350  EPSILON    2.078213  DELTA    1.8752E+02
 TTTTTTTTTTTTTTTTTTTTTTTTTTTTTT MOQGAD      TELAPSE   299350.16 TCPU   296223.35
 TTTTTTTTTTTTTTTTTTTTTTTTTTTTTT CP_MONMON   TELAPSE   299366.77 TCPU   296239.88
 DIIS TEST: 0.16884E+02 AT CPHF  CYCLE   3 - DIIS ACTIVE - HISTORY:     3 CYCLES
 CYCLE   3   ALPHA  432.323267  EPSILON    2.142026  DELTA    2.4157E+01
 TTTTTTTTTTTTTTTTTTTTTTTTTTTTTT MOQGAD      TELAPSE   300096.63 TCPU   296940.71
 TTTTTTTTTTTTTTTTTTTTTTTTTTTTTT CP_MONMON   TELAPSE   300113.26 TCPU   296957.23
 DIIS TEST: 0.51178E+01 AT CPHF  CYCLE   4 - DIIS ACTIVE - HISTORY:     4 CYCLES
 CYCLE   4   ALPHA  434.653972  EPSILON    2.148183  DELTA    2.3307E+00
 TTTTTTTTTTTTTTTTTTTTTTTTTTTTTT MOQGAD      TELAPSE   300847.45 TCPU   297686.08
 TTTTTTTTTTTTTTTTTTTTTTTTTTTTTT CP_MONMON   TELAPSE   300863.95 TCPU   297702.53
 DIIS TEST: 0.13201E+00 AT CPHF  CYCLE   5 - DIIS ACTIVE - HISTORY:     5 CYCLES
 CYCLE   5   ALPHA  435.265577  EPSILON    2.149798  DELTA    6.1160E-01
 TTTTTTTTTTTTTTTTTTTTTTTTTTTTTT MOQGAD      TELAPSE   301568.23 TCPU   298399.46
 TTTTTTTTTTTTTTTTTTTTTTTTTTTTTT CP_MONMON   TELAPSE   301584.83 TCPU   298416.02
 DIIS TEST: 0.38891E-01 AT CPHF  CYCLE   6 - DIIS ACTIVE - HISTORY:     6 CYCLES
 CYCLE   6   ALPHA  435.399746  EPSILON    2.150153  DELTA    1.3417E-01
 TTTTTTTTTTTTTTTTTTTTTTTTTTTTTT MOQGAD      TELAPSE   302302.33 TCPU   299117.28
 TTTTTTTTTTTTTTTTTTTTTTTTTTTTTT CP_MONMON   TELAPSE   302318.92 TCPU   299133.84
 DIIS TEST: 0.58996E-01 AT CPHF  CYCLE   7 - DIIS ACTIVE - HISTORY:     7 CYCLES
 CYCLE   7   ALPHA  435.498086  EPSILON    2.150412  DELTA    9.8340E-02
 TTTTTTTTTTTTTTTTTTTTTTTTTTTTTT MOQGAD      TELAPSE   303026.32 TCPU   299833.02
 TTTTTTTTTTTTTTTTTTTTTTTTTTTTTT CP_MONMON   TELAPSE   303042.93 TCPU   299849.54
 DIIS TEST: 0.17337E-01 AT CPHF  CYCLE   8 - DIIS ACTIVE - HISTORY:     8 CYCLES
 CYCLE   8   ALPHA  435.520321  EPSILON    2.150471  DELTA    2.2235E-02
 TTTTTTTTTTTTTTTTTTTTTTTTTTTTTT MOQGAD      TELAPSE   303783.98 TCPU   300582.10
 TTTTTTTTTTTTTTTTTTTTTTTTTTTTTT CP_MONMON   TELAPSE   303800.46 TCPU   300598.55
 DIIS TEST: 0.13764E-02 AT CPHF  CYCLE   9 - DIIS ACTIVE - HISTORY:     9 CYCLES
 CYCLE   9   ALPHA  435.548223  EPSILON    2.150545  DELTA    2.7901E-02
 TTTTTTTTTTTTTTTTTTTTTTTTTTTTTT MOQGAD      TELAPSE   304535.04 TCPU   301323.28
 TTTTTTTTTTTTTTTTTTTTTTTTTTTTTT CP_MONMON   TELAPSE   304551.53 TCPU   301339.68
 DIIS TEST: 0.17852E-03 AT CPHF  CYCLE  10 - DIIS ACTIVE - HISTORY:    10 CYCLES
 CYCLE  10   ALPHA  435.537787  EPSILON    2.150517  DELTA   -1.0436E-02
 TTTTTTTTTTTTTTTTTTTTTTTTTTTTTT MOQGAD      TELAPSE   305288.33 TCPU   302068.52
 TTTTTTTTTTTTTTTTTTTTTTTTTTTTTT CP_MONMON   TELAPSE   305304.94 TCPU   302085.06
 DIIS TEST: 0.21880E-04 AT CPHF  CYCLE  11 - DIIS ACTIVE - HISTORY:    11 CYCLES
 CYCLE  11   ALPHA  435.529774  EPSILON    2.150496  DELTA   -8.0128E-03
 TTTTTTTTTTTTTTTTTTTTTTTTTTTTTT MOQGAD      TELAPSE   306023.08 TCPU   302794.76
 TTTTTTTTTTTTTTTTTTTTTTTTTTTTTT CP_MONMON   TELAPSE   306039.62 TCPU   302811.26
 DIIS TEST: 0.32065E-05 AT CPHF  CYCLE  12 - DIIS ACTIVE - HISTORY:    12 CYCLES
 CYCLE  12   ALPHA  435.527845  EPSILON    2.150491  DELTA   -1.9290E-03
 TTTTTTTTTTTTTTTTTTTTTTTTTTTTTT MOQGAD      TELAPSE   306754.03 TCPU   303516.40
 TTTTTTTTTTTTTTTTTTTTTTTTTTTTTT CP_MONMON   TELAPSE   306770.53 TCPU   303532.86
 DIIS TEST: 0.65439E-06 AT CPHF  CYCLE  13 - DIIS ACTIVE - HISTORY:    13 CYCLES
 CYCLE  13   ALPHA  435.527258  EPSILON    2.150489  DELTA   -5.8736E-04
 TTTTTTTTTTTTTTTTTTTTTTTTTTTTTT CP_SC       TELAPSE   306817.21 TCPU   303571.45

 *******************************************************************************

 POLARIZABILITY (ALPHA), DIELECTRIC (EPSILON) AND FIRST-ORDER ELECTRIC
 SUSCEPTIBILITY (CHI(1)) TENSORS (INDEPENDENT COMPONENTS)

  FR.(eV) COMP.   ALPHA(Re,Im)           EPSILON(Re,Im)                CHI(1)
  1.165   XX     807.0422       0.0000       3.1319       0.0000       2.1319
  1.165   ZZ     435.5273       0.0000       2.1505       0.0000       1.1505

 DIELECTRIC TENSOR

 TENSOR IN PRINCIPAL AXES SYSTEM
 AA  3.131884E+00 BB  3.131884E+00 CC  2.150489E+00

 REFRACTIVE INDICES 
 AA  1.466455E+00 BB  1.769713E+00 CC  1.769713E+00

 OPTICALLY ANISOTROPIC - UNIAXIAL CRYSTAL

 BIREFRINGENCE =  0.3033 (NEGATIVE) - OBLATE OPTICAL ELLIPSOID

 EPSILON=N**2=1+CHI(1)=1+ALPHA*4*PI/V,   4*PI/V=   0.00264 BOHR**(-3)
 ALPHA IN BOHR**3; EPSILON AND CHI(1) ARE DIMENSIONLESS.
 *******************************************************************************


 GCALCO - MAX INDICES DIRECT LATTICE VECTOR    14    14    16
 NO.OF VECTORS CREATED 6999 STARS  482 RMAX   200.15221 BOHR

 CAPPA:IS1  3;IS2  3;IS3  3; K PTS MONK NET   6; SYMMOPS:K SPACE   8;G SPACE   4

 TTTTTTTTTTTTTTTTTTTTTTTTTTTTTT END         TELAPSE   306817.29 TCPU   303571.46
 EEEEEEEEEE TERMINATION  DATE 02 12 2023 TIME 22:51:29.1
NODE    0 CPU TIME =    303571.455
NODE    1 CPU TIME =    304615.851
NODE    2 CPU TIME =    304541.861
NODE    3 CPU TIME =    304534.868
NODE    4 CPU TIME =    304155.883
NODE    5 CPU TIME =    304628.766
NODE    6 CPU TIME =    304371.086
NODE    7 CPU TIME =    304645.077
NODE    8 CPU TIME =    304077.956
NODE    9 CPU TIME =    304577.363
NODE   10 CPU TIME =    303836.788
NODE   11 CPU TIME =    304250.067
NODE   12 CPU TIME =    303633.893
NODE   13 CPU TIME =    304379.265
NODE   14 CPU TIME =    303572.754
NODE   15 CPU TIME =    303747.971
NODE   16 CPU TIME =    303452.783
NODE   17 CPU TIME =    304079.643
NODE   18 CPU TIME =    303524.678
NODE   19 CPU TIME =    303895.970
NODE   20 CPU TIME =    303434.645
NODE   21 CPU TIME =    304129.789
NODE   22 CPU TIME =    303484.617
NODE   23 CPU TIME =    303541.964
    TOTAL CPU TIME =   7296684.994
trying normal rsh (/usr/bin/rsh)
exec: No such file or directory
trying normal rsh (/usr/bin/rsh)
exec: No such file or directory
trying normal rsh (/usr/bin/rsh)
exec: No such file or directory
trying normal rsh (/usr/bin/rsh)
exec: No such file or directory
