Loading crystal17/1.0.2/intel/19.0
  Loading requirement: intel/19.0 ompi/4.0.1/intel/19.0
 PROCESS            2  OF           24  WORKING
 PROCESS            8  OF           24  WORKING
 PROCESS            9  OF           24  WORKING
 PROCESS           10  OF           24  WORKING
 PROCESS           11  OF           24  WORKING
 PROCESS           12  OF           24  WORKING
 PROCESS           13  OF           24  WORKING
 PROCESS           14  OF           24  WORKING
 PROCESS           15  OF           24  WORKING
 PROCESS           16  OF           24  WORKING
 PROCESS           17  OF           24  WORKING
 PROCESS           18  OF           24  WORKING
 PROCESS           19  OF           24  WORKING
 PROCESS           20  OF           24  WORKING
 PROCESS           21  OF           24  WORKING
 PROCESS           22  OF           24  WORKING
 PROCESS            0  OF           24  WORKING
 PROCESS            1  OF           24  WORKING
 PROCESS            3  OF           24  WORKING
 PROCESS            4  OF           24  WORKING
 PROCESS            5  OF           24  WORKING
 PROCESS            6  OF           24  WORKING
 PROCESS            7  OF           24  WORKING
 PROCESS           23  OF           24  WORKING

         
 *******************************************************************************
 *                                                                             *
 *                               CRYSTAL17                                     *
 *                      public : 1.0.2 - March 1st, 2018                       *
 *                       HTTP://WWW.CRYSTAL.UNITO.IT                           *
 *                                                                             *
 *                              MAIN AUTHORS                                   *
 *                                                                             *
 *  R. DOVESI(1,11), V.R. SAUNDERS(2), C. ROETTI(1,11), R. ORLANDO(1,11),      *
 *  C.M. ZICOVICH-WILSON(1,3), F. PASCALE(4), B. CIVALLERI(1,11),              *
 *  K. DOLL(5), N.M. HARRISON(2,6), I.J. BUSH(7), Ph. D'ARCO(8),               *
 *  M. LLUNELL(9), M. CAUSA'(10), Y. NOEL(8), L. MASCHIO(1,11), A. ERBA(1,11)  *
 *  M. RE'RAT(14), S. CASASSA(1,11)                                            *
 *                                                                             *
 *        CONTRIBUTIONS TO THE CODE HAVE ALSO BEEN GIVEN BY                    *
 *                                                                             *
 *  M. FERRABONE(1,11), M. DE LA PIERRE(1,11), M. FERRERO(1,11),               *
 *  J. BAIMA(1,11), E. ALBANESE(1,11), M.F. PEINTINGER(12), R. BAST(13),       *
 *  B. KIRTMAN(15), V. LACIVITA(1,11), R. DEMICHELIS(1,16)                     *
 *  G. BRANDEBURG(17), S. SALUSTRO(1,11), G. SANSONE(1,11)                     *
 *  M.T. RUGGIERO(18)                                                          *
 *                                                                             *
 * (1) THEORETICAL CHEMISTRY GROUP - UNIVERSITA' DI TORINO - TORINO (ITALY)    *
 * (2) COMPUTATIONAL SCIENCE & ENGINEERING DEPARTMENT - STFC DARESBURY (UK)    *
 * (3) UNIVERSIDAD AUTONOMA DEL ESTADO DE MORELOS - CUERNAVACA (MEXICO)        *
 * (4) UNIVERSITE' DE LORRAINE - NANCY (FRANCE)                                *
 * (5) UNIVERSITAET STUTTGART- STUTTGART (GERMANY)                             *
 * (6) IMPERIAL COLLEGE - LONDON (UK)                                          *
 * (7) OXFORD E-RESEARCH CENTRE - OXFORD (UK)                                  *
 * (8) UPMC - SORBONNE UNIVERSITES - PARIS (FRANCE)                            *
 * (9) UNIVERSIDAD DE BARCELONA - BARCELONA (SPAIN)                            *
 *(10) UNIVERSITA' DI NAPOLI "FEDERICO II" - NAPOLI (ITALY)                    *
 *(11) NIS - NANOSTRUCTURED INTERFACES AND SURFACES - TORINO (ITALY)           *
 *(12) MPI FUER CHEMISCHE ENERGIEKONVERSION - MUELHEIM AN DER RUHR (GERMANY)   *
 *(13) UNIVERSITY OF TROMSO - TROMSO (NORWAY)                                  *
 *(14) UNIVERSITE' DE PAU ET DES PAYS DE L'ADOUR - PAU (FRANCE)                *
 *(15) UNIVERSITY OF CALIFORNIA SANTA BARBARA - SANTA BARBARA (USA)            *
 *(16) CURTIN UNIVERSITY - PERTH (AUSTRALIA)                                   *
 *(17) UNIVERSITY COLLEGE LONDON - LONDON (UK)                                 *
 *(18) CAMBRIDGE UNIVERSITY - CAMBRIDGE (UK)                                   *
 *                                                                             *
 *******************************************************************************
 EEEEEEEEEE STARTING  DATE 18 11 2023 TIME 09:25:05.4
 C:\Users\wilso\AppData\Local\Temp\tmp_p\newconn.mol                             

 CRYSTAL CALCULATION
 (INPUT ACCORDING TO THE INTERNATIONAL TABLES FOR X-RAY CRYSTALLOGRAPHY)
 CRYSTAL FAMILY                       :  TETRAGONAL  
 CRYSTAL CLASS  (GROTH - 1921)        :  TETRAGONAL DISPHENOIDAL              

 SPACE GROUP (NONCENTROSYMMETRIC)     :  I -4            

 LATTICE PARAMETERS  (ANGSTROMS AND DEGREES) - CONVENTIONAL CELL
        A           B           C        ALPHA        BETA       GAMMA
    10.15800    10.15800    13.29400    90.00000    90.00000    90.00000


 NUMBER OF IRREDUCIBLE ATOMS IN THE CONVENTIONAL CELL:  124

 INPUT COORDINATES

 ATOM AT. N.              COORDINATES
   1   1     5.576100000000E-01  7.373700000000E-01  1.366700000000E-01
   2   1     4.423900000000E-01  2.626300000000E-01  1.366700000000E-01
   3   1     7.373700000000E-01  4.423900000000E-01  8.633300000000E-01
   4   1     2.626300000000E-01  5.576100000000E-01  8.633300000000E-01
   5   1     5.761000000000E-02  2.373700000000E-01  6.366700000000E-01
   6   1     9.423900000000E-01  7.626300000000E-01  6.366700000000E-01
   7   1     2.373700000000E-01  9.423900000000E-01  3.633300000000E-01
   8   1     7.626300000000E-01  5.761000000000E-02  3.633300000000E-01
   9   1     9.759200000000E-01  6.751900000000E-01  9.083000000000E-02
  10   1     2.408000000000E-02  3.248100000000E-01  9.083000000000E-02
  11   1     6.751900000000E-01  2.408000000000E-02  9.091700000000E-01
  12   1     3.248100000000E-01  9.759200000000E-01  9.091700000000E-01
  13   1     4.759200000000E-01  1.751900000000E-01  5.908300000000E-01
  14   1     5.240800000000E-01  8.248100000000E-01  5.908300000000E-01
  15   1     1.751900000000E-01  5.240800000000E-01  4.091700000000E-01
  16   1     8.248100000000E-01  4.759200000000E-01  4.091700000000E-01
  17   9     6.058200000000E-01  9.805800000000E-01  1.369900000000E-01
  18   9     3.941800000000E-01  1.942000000000E-02  1.369900000000E-01
  19   9     9.805800000000E-01  3.941800000000E-01  8.630100000000E-01
  20   9     1.942000000000E-02  6.058200000000E-01  8.630100000000E-01
  21   9     1.058200000000E-01  4.805800000000E-01  6.369900000000E-01
  22   9     8.941800000000E-01  5.194200000000E-01  6.369900000000E-01
  23   9     4.805800000000E-01  8.941800000000E-01  3.630100000000E-01
  24   9     5.194200000000E-01  1.058200000000E-01  3.630100000000E-01
  25   9     8.420800000000E-01  5.709000000000E-02  1.240200000000E-01
  26   9     1.579200000000E-01  9.429100000000E-01  1.240200000000E-01
  27   9     5.709000000000E-02  1.579200000000E-01  8.759800000000E-01
  28   9     9.429100000000E-01  8.420800000000E-01  8.759800000000E-01
  29   9     3.420800000000E-01  5.570900000000E-01  6.240200000000E-01
  30   9     6.579200000000E-01  4.429100000000E-01  6.240200000000E-01
  31   9     5.570900000000E-01  6.579200000000E-01  3.759800000000E-01
  32   9     4.429100000000E-01  3.420800000000E-01  3.759800000000E-01
  33   6     2.646500000000E-01  1.859800000000E-01  6.165500000000E-01
  34   6     7.353500000000E-01  8.140200000000E-01  6.165500000000E-01
  35   6     1.859800000000E-01  7.353500000000E-01  3.834500000000E-01
  36   6     8.140200000000E-01  2.646500000000E-01  3.834500000000E-01
  37   6     7.646500000000E-01  6.859800000000E-01  1.165500000000E-01
  38   6     2.353500000000E-01  3.140200000000E-01  1.165500000000E-01
  39   6     6.859800000000E-01  2.353500000000E-01  8.834500000000E-01
  40   6     3.140200000000E-01  7.646500000000E-01  8.834500000000E-01
  41   6     2.514000000000E-01  4.317000000000E-02  6.230000000000E-01
  42   6     7.486000000000E-01  9.568300000000E-01  6.230000000000E-01
  43   6     4.317000000000E-02  7.486000000000E-01  3.770000000000E-01
  44   6     9.568300000000E-01  2.514000000000E-01  3.770000000000E-01
  45   6     7.514000000000E-01  5.431700000000E-01  1.230000000000E-01
  46   6     2.486000000000E-01  4.568300000000E-01  1.230000000000E-01
  47   6     5.431700000000E-01  2.486000000000E-01  8.770000000000E-01
  48   6     4.568300000000E-01  7.514000000000E-01  8.770000000000E-01
  49   6     6.583700000000E-01  7.736700000000E-01  1.273400000000E-01
  50   6     3.416300000000E-01  2.263300000000E-01  1.273400000000E-01
  51   6     7.736700000000E-01  3.416300000000E-01  8.726600000000E-01
  52   6     2.263300000000E-01  6.583700000000E-01  8.726600000000E-01
  53   6     1.583700000000E-01  2.736700000000E-01  6.273400000000E-01
  54   6     8.416300000000E-01  7.263300000000E-01  6.273400000000E-01
  55   6     2.736700000000E-01  8.416300000000E-01  3.726600000000E-01
  56   6     7.263300000000E-01  1.583700000000E-01  3.726600000000E-01
  57   6     8.156900000000E-01  9.525900000000E-01  1.204300000000E-01
  58   6     1.843100000000E-01  4.741000000000E-02  1.204300000000E-01
  59   6     9.525900000000E-01  1.843100000000E-01  8.795700000000E-01
  60   6     4.741000000000E-02  8.156900000000E-01  8.795700000000E-01
  61   6     3.156900000000E-01  4.525900000000E-01  6.204300000000E-01
  62   6     6.843100000000E-01  5.474100000000E-01  6.204300000000E-01
  63   6     4.525900000000E-01  6.843100000000E-01  3.795700000000E-01
  64   6     5.474100000000E-01  3.156900000000E-01  3.795700000000E-01
  65   6     3.914300000000E-01  2.396500000000E-01  6.044300000000E-01
  66   6     6.085700000000E-01  7.603500000000E-01  6.044300000000E-01
  67   6     2.396500000000E-01  6.085700000000E-01  3.955700000000E-01
  68   6     7.603500000000E-01  3.914300000000E-01  3.955700000000E-01
  69   6     8.914300000000E-01  7.396500000000E-01  1.044300000000E-01
  70   6     1.085700000000E-01  2.603500000000E-01  1.044300000000E-01
  71   6     7.396500000000E-01  1.085700000000E-01  8.955700000000E-01
  72   6     2.603500000000E-01  8.914300000000E-01  8.955700000000E-01
  73   6     3.150000000000E-01  9.141000000000E-02  1.282200000000E-01
  74   6     6.850000000000E-01  9.085900000000E-01  1.282200000000E-01
  75   6     9.141000000000E-02  6.850000000000E-01  8.717800000000E-01
  76   6     9.085900000000E-01  3.150000000000E-01  8.717800000000E-01
  77   6     8.150000000000E-01  5.914100000000E-01  6.282200000000E-01
  78   6     1.850000000000E-01  4.085900000000E-01  6.282200000000E-01
  79   6     5.914100000000E-01  1.850000000000E-01  3.717800000000E-01
  80   6     4.085900000000E-01  8.150000000000E-01  3.717800000000E-01
  81   7     8.407700000000E-01  4.628300000000E-01  1.672900000000E-01
  82   7     1.592300000000E-01  5.371700000000E-01  1.672900000000E-01
  83   7     4.628300000000E-01  1.592300000000E-01  8.327100000000E-01
  84   7     5.371700000000E-01  8.407700000000E-01  8.327100000000E-01
  85   7     3.407700000000E-01  9.628300000000E-01  6.672900000000E-01
  86   7     6.592300000000E-01  3.717000000000E-02  6.672900000000E-01
  87   7     9.628300000000E-01  6.592300000000E-01  3.327100000000E-01
  88   7     3.717000000000E-02  3.407700000000E-01  3.327100000000E-01
  89   7     2.940400000000E-01  8.358500000000E-01  6.597700000000E-01
  90   7     7.059600000000E-01  1.641500000000E-01  6.597700000000E-01
  91   7     8.358500000000E-01  7.059600000000E-01  3.402300000000E-01
  92   7     1.641500000000E-01  2.940400000000E-01  3.402300000000E-01
  93   7     7.940400000000E-01  3.358500000000E-01  1.597700000000E-01
  94   7     2.059600000000E-01  6.641500000000E-01  1.597700000000E-01
  95   7     3.358500000000E-01  2.059600000000E-01  8.402300000000E-01
  96   7     6.641500000000E-01  7.940400000000E-01  8.402300000000E-01
  97   7     1.518600000000E-01  9.677900000000E-01  5.884000000000E-01
  98   7     8.481400000000E-01  3.221000000000E-02  5.884000000000E-01
  99   7     9.677900000000E-01  8.481400000000E-01  4.116000000000E-01
 100   7     3.221000000000E-02  1.518600000000E-01  4.116000000000E-01
 101   7     6.518600000000E-01  4.677900000000E-01  8.840000000000E-02
 102   7     3.481400000000E-01  5.322100000000E-01  8.840000000000E-02
 103   7     4.677900000000E-01  3.481400000000E-01  9.116000000000E-01
 104   7     5.322100000000E-01  6.518600000000E-01  9.116000000000E-01
 105   7     1.800200000000E-01  8.388700000000E-01  6.128200000000E-01
 106   7     8.199800000000E-01  1.611300000000E-01  6.128200000000E-01
 107   7     8.388700000000E-01  8.199800000000E-01  3.871800000000E-01
 108   7     1.611300000000E-01  1.800200000000E-01  3.871800000000E-01
 109   7     6.800200000000E-01  3.388700000000E-01  1.128200000000E-01
 110   7     3.199800000000E-01  6.611300000000E-01  1.128200000000E-01
 111   7     3.388700000000E-01  3.199800000000E-01  8.871800000000E-01
 112   7     6.611300000000E-01  6.800200000000E-01  8.871800000000E-01
 113   7     9.174200000000E-01  8.687700000000E-01  1.079100000000E-01
 114   7     8.258000000000E-02  1.312300000000E-01  1.079100000000E-01
 115   7     8.687700000000E-01  8.258000000000E-02  8.920900000000E-01
 116   7     1.312300000000E-01  9.174200000000E-01  8.920900000000E-01
 117   7     4.174200000000E-01  3.687700000000E-01  6.079100000000E-01
 118   7     5.825800000000E-01  6.312300000000E-01  6.079100000000E-01
 119   7     3.687700000000E-01  5.825800000000E-01  3.920900000000E-01
 120   7     6.312300000000E-01  4.174200000000E-01  3.920900000000E-01
 121  30     0.000000000000E+00  5.000000000000E-01  2.500000000000E-01
 122  30     5.000000000000E-01  0.000000000000E+00  7.500000000000E-01
 123  30     0.000000000000E+00  0.000000000000E+00  5.000000000000E-01
 124  30     5.000000000000E-01  5.000000000000E-01  0.000000000000E+00

 *******************************************************************************

 << INFORMATION >>: FROM NOW ON, ALL COORDINATES REFER TO THE PRIMITIVE CELL

 *******************************************************************************

 LATTICE PARAMETERS  (ANGSTROMS AND DEGREES) - PRIMITIVE CELL
       A          B          C        ALPHA      BETA     GAMMA        VOLUME
    9.78647    9.78647    9.78647   117.47208 117.47208  94.43726    685.870456

 INPUT LIST - ATOM N.   2 NOT IRREDUCIBLE

 INPUT LIST - ATOM N.   3 NOT IRREDUCIBLE

 INPUT LIST - ATOM N.   4 NOT IRREDUCIBLE

 INPUT LIST - ATOM N.   1 NOT IRREDUCIBLE

 INPUT LIST - ATOM N.   2 NOT IRREDUCIBLE

 INPUT LIST - ATOM N.   3 NOT IRREDUCIBLE

 INPUT LIST - ATOM N.   4 NOT IRREDUCIBLE

 INPUT LIST - ATOM N.   6 NOT IRREDUCIBLE

 INPUT LIST - ATOM N.   7 NOT IRREDUCIBLE

 INPUT LIST - ATOM N.   8 NOT IRREDUCIBLE

 INPUT LIST - ATOM N.   5 NOT IRREDUCIBLE

 INPUT LIST - ATOM N.   6 NOT IRREDUCIBLE

 INPUT LIST - ATOM N.   7 NOT IRREDUCIBLE

 INPUT LIST - ATOM N.   8 NOT IRREDUCIBLE

 INPUT LIST - ATOM N.  10 NOT IRREDUCIBLE

 INPUT LIST - ATOM N.  11 NOT IRREDUCIBLE

 INPUT LIST - ATOM N.  12 NOT IRREDUCIBLE

 INPUT LIST - ATOM N.   9 NOT IRREDUCIBLE

 INPUT LIST - ATOM N.  10 NOT IRREDUCIBLE

 INPUT LIST - ATOM N.  11 NOT IRREDUCIBLE

 INPUT LIST - ATOM N.  12 NOT IRREDUCIBLE

 INPUT LIST - ATOM N.  14 NOT IRREDUCIBLE

 INPUT LIST - ATOM N.  15 NOT IRREDUCIBLE

 INPUT LIST - ATOM N.  16 NOT IRREDUCIBLE

 INPUT LIST - ATOM N.  13 NOT IRREDUCIBLE

 INPUT LIST - ATOM N.  14 NOT IRREDUCIBLE

 INPUT LIST - ATOM N.  15 NOT IRREDUCIBLE

 INPUT LIST - ATOM N.  16 NOT IRREDUCIBLE

 INPUT LIST - ATOM N.  18 NOT IRREDUCIBLE

 INPUT LIST - ATOM N.  19 NOT IRREDUCIBLE

 INPUT LIST - ATOM N.  20 NOT IRREDUCIBLE

 INPUT LIST - ATOM N.  17 NOT IRREDUCIBLE

 INPUT LIST - ATOM N.  18 NOT IRREDUCIBLE

 INPUT LIST - ATOM N.  19 NOT IRREDUCIBLE

 INPUT LIST - ATOM N.  20 NOT IRREDUCIBLE

 INPUT LIST - ATOM N.  22 NOT IRREDUCIBLE

 INPUT LIST - ATOM N.  23 NOT IRREDUCIBLE

 INPUT LIST - ATOM N.  24 NOT IRREDUCIBLE

 INPUT LIST - ATOM N.  21 NOT IRREDUCIBLE

 INPUT LIST - ATOM N.  22 NOT IRREDUCIBLE

 INPUT LIST - ATOM N.  23 NOT IRREDUCIBLE

 INPUT LIST - ATOM N.  24 NOT IRREDUCIBLE

 INPUT LIST - ATOM N.  26 NOT IRREDUCIBLE

 INPUT LIST - ATOM N.  27 NOT IRREDUCIBLE

 INPUT LIST - ATOM N.  28 NOT IRREDUCIBLE

 INPUT LIST - ATOM N.  25 NOT IRREDUCIBLE

 INPUT LIST - ATOM N.  26 NOT IRREDUCIBLE

 INPUT LIST - ATOM N.  27 NOT IRREDUCIBLE

 INPUT LIST - ATOM N.  28 NOT IRREDUCIBLE

 INPUT LIST - ATOM N.  30 NOT IRREDUCIBLE

 INPUT LIST - ATOM N.  31 NOT IRREDUCIBLE

 INPUT LIST - ATOM N.  32 NOT IRREDUCIBLE

 INPUT LIST - ATOM N.  29 NOT IRREDUCIBLE

 INPUT LIST - ATOM N.  30 NOT IRREDUCIBLE

 INPUT LIST - ATOM N.  31 NOT IRREDUCIBLE

 INPUT LIST - ATOM N.  32 NOT IRREDUCIBLE

 INPUT LIST - ATOM N.  34 NOT IRREDUCIBLE

 INPUT LIST - ATOM N.  35 NOT IRREDUCIBLE

 INPUT LIST - ATOM N.  36 NOT IRREDUCIBLE

 INPUT LIST - ATOM N.  33 NOT IRREDUCIBLE

 INPUT LIST - ATOM N.  34 NOT IRREDUCIBLE

 INPUT LIST - ATOM N.  35 NOT IRREDUCIBLE

 INPUT LIST - ATOM N.  36 NOT IRREDUCIBLE

 INPUT LIST - ATOM N.  38 NOT IRREDUCIBLE

 INPUT LIST - ATOM N.  39 NOT IRREDUCIBLE

 INPUT LIST - ATOM N.  40 NOT IRREDUCIBLE

 INPUT LIST - ATOM N.  37 NOT IRREDUCIBLE

 INPUT LIST - ATOM N.  38 NOT IRREDUCIBLE

 INPUT LIST - ATOM N.  39 NOT IRREDUCIBLE

 INPUT LIST - ATOM N.  40 NOT IRREDUCIBLE

 INPUT LIST - ATOM N.  42 NOT IRREDUCIBLE

 INPUT LIST - ATOM N.  43 NOT IRREDUCIBLE

 INPUT LIST - ATOM N.  44 NOT IRREDUCIBLE

 INPUT LIST - ATOM N.  41 NOT IRREDUCIBLE

 INPUT LIST - ATOM N.  42 NOT IRREDUCIBLE

 INPUT LIST - ATOM N.  43 NOT IRREDUCIBLE

 INPUT LIST - ATOM N.  44 NOT IRREDUCIBLE

 INPUT LIST - ATOM N.  46 NOT IRREDUCIBLE

 INPUT LIST - ATOM N.  47 NOT IRREDUCIBLE

 INPUT LIST - ATOM N.  48 NOT IRREDUCIBLE

 INPUT LIST - ATOM N.  45 NOT IRREDUCIBLE

 INPUT LIST - ATOM N.  46 NOT IRREDUCIBLE

 INPUT LIST - ATOM N.  47 NOT IRREDUCIBLE

 INPUT LIST - ATOM N.  48 NOT IRREDUCIBLE

 INPUT LIST - ATOM N.  50 NOT IRREDUCIBLE

 INPUT LIST - ATOM N.  51 NOT IRREDUCIBLE

 INPUT LIST - ATOM N.  52 NOT IRREDUCIBLE

 INPUT LIST - ATOM N.  49 NOT IRREDUCIBLE

 INPUT LIST - ATOM N.  50 NOT IRREDUCIBLE

 INPUT LIST - ATOM N.  51 NOT IRREDUCIBLE

 INPUT LIST - ATOM N.  52 NOT IRREDUCIBLE

 INPUT LIST - ATOM N.  54 NOT IRREDUCIBLE

 INPUT LIST - ATOM N.  55 NOT IRREDUCIBLE

 INPUT LIST - ATOM N.  56 NOT IRREDUCIBLE

 INPUT LIST - ATOM N.  53 NOT IRREDUCIBLE

 INPUT LIST - ATOM N.  54 NOT IRREDUCIBLE

 INPUT LIST - ATOM N.  55 NOT IRREDUCIBLE

 INPUT LIST - ATOM N.  56 NOT IRREDUCIBLE

 INPUT LIST - ATOM N.  58 NOT IRREDUCIBLE

 INPUT LIST - ATOM N.  59 NOT IRREDUCIBLE

 INPUT LIST - ATOM N.  60 NOT IRREDUCIBLE

 INPUT LIST - ATOM N.  57 NOT IRREDUCIBLE

 INPUT LIST - ATOM N.  58 NOT IRREDUCIBLE

 INPUT LIST - ATOM N.  59 NOT IRREDUCIBLE

 INPUT LIST - ATOM N.  60 NOT IRREDUCIBLE

 INPUT LIST - ATOM N.  61 NOT IRREDUCIBLE

 INPUT LIST - ATOM N.  62 NOT IRREDUCIBLE

 COORDINATES OF THE EQUIVALENT ATOMS (FRACTIONAL UNITS)

 N. ATOM EQUIV AT. N.          X                  Y                  Z

   1   1   1    1 H    -1.25960000000E-01 -3.05720000000E-01  2.94980000000E-01
   2   1   2    1 H     3.99300000000E-01 -4.20940000000E-01 -2.94980000000E-01
   3   1   3    1 H     3.05720000000E-01 -3.99300000000E-01  1.79760000000E-01
   4   1   4    1 H     4.20940000000E-01  1.25960000000E-01 -1.79760000000E-01








   5   9   1    1 H    -2.33980000000E-01  6.67500000000E-02 -3.48890000000E-01
   6   9   2    1 H     4.15640000000E-01  1.14910000000E-01  3.48890000000E-01
   7   9   3    1 H    -6.67500000000E-02 -4.15640000000E-01 -3.00730000000E-01
   8   9   4    1 H    -1.14910000000E-01  2.33980000000E-01  3.00730000000E-01








   9  17   1    9 F     1.17570000000E-01 -2.57190000000E-01 -4.13600000000E-01
  10  17   2    9 F     1.56410000000E-01 -4.68830000000E-01  4.13600000000E-01
  11  17   3    9 F     2.57190000000E-01 -1.56410000000E-01  3.74760000000E-01
  12  17   4    9 F     4.68830000000E-01 -1.17570000000E-01 -3.74760000000E-01

 NUMBER OF SYMMETRY OPERATORS         :    4
 *******************************************************************************
 * GEOMETRY EDITING - INPUT COORDINATES ARE GIVEN IN ANGSTROM         
 *******************************************************************************

 GEOMETRY NOW FULLY CONSISTENT WITH THE GROUP
 *******************************************************************************
 *  GEOMETRY EDITING
 *  THE SYMMETRY OF THE CRYSTAL IS KEPT AND APPLIED TO THE PERTURBATION
 *******************************************************************************
 INFORMATION **** NEW DEFAULT **** FINALRUN 4 FOR GEOMETRY OPTIMIZATIONS
 INFORMATION **** NEW DEFAULT **** OPTGEOM OPTIMIZES BOTH ATOMIC COORDINATES AND CELL PARAMETERS
 INFORMATION **** NEW DEFAULT **** TOL. ON ATOMIC DISP TO REDEFINE REF. GEOMETRY: 0.8 Angs
 INFORMATION **** NEW DEFAULT **** N POINTS TO REDEFINE REF. GEOMETRY: N OF OPT DEGS OF FREEDOM
 INFORMATION **** NEW DEFAULT **** TOL. ON ENERGY TO REDEFINE REF. GEOMETRY: 10**-3*(5*N. ATOMS)

 IMPORTANT INFORMATION:
 THE COORDINATE SYSTEM ADOPTED IN THE OPTIMIZATION IS NOT IN
 GENERAL HOMOGENEOUS UNITS. FOR THIS REASON THE GRADIENT AND 
 HESSIAN MATRIX IN TERMS OF THIS SYSTEM ARE GIVEN WITHOUT
 UNITS. FOR MORE DETAILS SEE THE MANUAL.

 *******************************************************************************
 COMBINED CELL/ATOM OPTIMIZATION CONTROL

 INITIAL TRUST RADIUS         0.50000 MAXIMUM TRUST RADIUS               4.00000
 MAXIMUM GRADIENT COMPONENT   0.00045 MAXIMUM DISPLACEMENT COMPONENT     0.00180
 R.M.S. OF GRADIENT COMPONENT 0.00030 R.M.S. OF DISPLACEMENT COMPONENTS  0.00120
 THRESHOLD ON ENERGY CHANGE 0.100E-06 EXTRAPOLATING POLYNOMIAL ORDER           2
 MAXIMUM ALLOWED NUMBER OF STEPS   -1 SORTING OF ENERGY POINTS:               NO
 ANALYTICAL  GRADIENT                 HESSIAN UPDATING                      BFGS
 STEP SIZE NUMERICAL GRADIENT 0.00100
 INITIAL HESSIAN MATRIX: SCHLEGEL MODEL 2
 *******************************************************************************


 GCALCO - MAX INDICES DIRECT LATTICE VECTOR    14    14    16
 NO.OF VECTORS CREATED 6999 STARS  481 RMAX   197.96270 BOHR

 GEOMETRY FOR WAVE FUNCTION - DIMENSIONALITY OF THE SYSTEM    3
 (NON PERIODIC DIRECTION: LATTICE PARAMETER FORMALLY SET TO 500)
 *******************************************************************************
 LATTICE PARAMETERS (ANGSTROMS AND DEGREES) - BOHR = 0.5291772083 ANGSTROM
 PRIMITIVE CELL - CENTRING CODE 6/0 VOLUME=   685.870456 - DENSITY  2.072 g/cm^3
         A              B              C           ALPHA      BETA       GAMMA 
     9.78647490     9.78647490     9.78647490   117.472078 117.472078  94.437262
 *******************************************************************************
 ATOMS IN THE ASYMMETRIC UNIT   17 - ATOMS IN THE UNIT CELL:   62
     ATOM                 X/A                 Y/B                 Z/C    
 *******************************************************************************
      1 T   1 H    -1.259600000000E-01 -3.057200000000E-01  2.949800000000E-01
      2 F   1 H     3.993000000000E-01 -4.209400000000E-01 -2.949800000000E-01
      3 F   1 H     3.057200000000E-01 -3.993000000000E-01  1.797600000000E-01
      4 F   1 H     4.209400000000E-01  1.259600000000E-01 -1.797600000000E-01
      5 T   1 H    -2.339800000000E-01  6.675000000000E-02 -3.488900000000E-01
      6 F   1 H     4.156400000000E-01  1.149100000000E-01  3.488900000000E-01
      7 F   1 H    -6.675000000000E-02 -4.156400000000E-01 -3.007300000000E-01
      8 F   1 H    -1.149100000000E-01  2.339800000000E-01  3.007300000000E-01
      9 T   9 F     1.175700000000E-01 -2.571900000000E-01 -4.136000000000E-01
     10 F   9 F     1.564100000000E-01 -4.688300000000E-01  4.136000000000E-01
     11 F   9 F     2.571900000000E-01 -1.564100000000E-01  3.747600000000E-01
     12 F   9 F     4.688300000000E-01 -1.175700000000E-01 -3.747600000000E-01
     13 T   9 F     1.811100000000E-01 -3.390000000000E-02 -1.008300000000E-01
     14 F   9 F     6.693000000000E-02  2.819400000000E-01  1.008300000000E-01
     15 F   9 F     3.390000000000E-02 -6.693000000000E-02  2.150100000000E-01
     16 F   9 F    -2.819400000000E-01 -1.811100000000E-01 -2.150100000000E-01
     17 T   6 C    -1.974700000000E-01 -1.188000000000E-01  4.506300000000E-01
     18 F   6 C     4.305700000000E-01  3.519000000000E-01 -4.506300000000E-01
     19 F   6 C     1.188000000000E-01 -4.305700000000E-01 -7.867000000000E-02
     20 F   6 C    -3.519000000000E-01  1.974700000000E-01  7.867000000000E-02
     21 T   6 C    -3.338300000000E-01 -1.256000000000E-01  2.945700000000E-01
     22 F   6 C    -4.201700000000E-01  3.716000000000E-01 -2.945700000000E-01
     23 F   6 C     1.256000000000E-01  4.201700000000E-01 -2.082300000000E-01
     24 F   6 C    -3.716000000000E-01  3.338300000000E-01  2.082300000000E-01
     25 T   6 C    -9.899000000000E-02 -2.142900000000E-01  4.320400000000E-01
     26 F   6 C     3.536700000000E-01  4.689700000000E-01 -4.320400000000E-01
     27 F   6 C     2.142900000000E-01 -3.536700000000E-01  1.153000000000E-01
     28 F   6 C    -4.689700000000E-01  9.899000000000E-02 -1.153000000000E-01
     29 T   6 C     7.302000000000E-02 -6.388000000000E-02 -2.317200000000E-01
     30 F   6 C     1.678400000000E-01  3.047400000000E-01  2.317200000000E-01
     31 F   6 C     6.388000000000E-02 -1.678400000000E-01  1.369000000000E-01
     32 F   6 C    -3.047400000000E-01 -7.302000000000E-02 -1.369000000000E-01
     33 T   6 C    -1.559200000000E-01 -4.140000000000E-03 -3.689200000000E-01
     34 F   6 C     3.647800000000E-01  2.130000000000E-01  3.689200000000E-01
     35 F   6 C     4.140000000000E-03 -3.647800000000E-01 -1.517800000000E-01
     36 F   6 C    -2.130000000000E-01  1.559200000000E-01  1.517800000000E-01
     37 T   6 C     2.196300000000E-01  4.432200000000E-01  4.064100000000E-01
     38 F   6 C     3.681000000000E-02 -1.867800000000E-01 -4.064100000000E-01
     39 F   6 C    -4.432200000000E-01 -3.681000000000E-02 -2.235900000000E-01
     40 F   6 C     1.867800000000E-01 -2.196300000000E-01  2.235900000000E-01
     41 T   7 N    -3.698800000000E-01  8.060000000000E-03  3.036000000000E-01
     42 F   7 N    -2.955400000000E-01  3.265200000000E-01 -3.036000000000E-01
     43 F   7 N    -8.060000000000E-03  2.955400000000E-01 -3.779400000000E-01
     44 F   7 N    -3.265200000000E-01  3.698800000000E-01  3.779400000000E-01
     45 T   7 N     4.956200000000E-01 -4.619000000000E-02  1.298900000000E-01
     46 F   7 N    -1.760800000000E-01  3.657300000000E-01 -1.298900000000E-01
     47 F   7 N     4.619000000000E-02  1.760800000000E-01 -4.581900000000E-01
     48 F   7 N    -3.657300000000E-01 -4.956200000000E-01  4.581900000000E-01
     49 T   7 N    -4.438100000000E-01 -2.597400000000E-01  1.196500000000E-01
     50 F   7 N    -3.793900000000E-01  4.365400000000E-01 -1.196500000000E-01
     51 F   7 N     2.597400000000E-01  3.793900000000E-01 -1.840700000000E-01
     52 F   7 N    -4.365400000000E-01  4.438100000000E-01  1.840700000000E-01
     53 T   7 N     4.516900000000E-01 -2.071600000000E-01  1.889000000000E-02
     54 F   7 N    -2.260500000000E-01  4.328000000000E-01 -1.889000000000E-02
     55 F   7 N     2.071600000000E-01  2.260500000000E-01 -3.411500000000E-01
     56 F   7 N    -4.328000000000E-01 -4.516900000000E-01  3.411500000000E-01
     57 T   7 N    -2.332000000000E-02  2.533000000000E-02 -2.138100000000E-01
     58 F   7 N     2.391400000000E-01  1.904900000000E-01  2.138100000000E-01
     59 F   7 N    -2.533000000000E-02 -2.391400000000E-01 -4.865000000000E-02
     60 F   7 N    -1.904900000000E-01  2.332000000000E-02  4.865000000000E-02
     61 T  30 ZN   -2.500000000000E-01  2.500000000000E-01  5.000000000000E-01
     62 T  30 ZN   -5.000000000000E-01  5.000000000000E-01  0.000000000000E+00

 TRANSFORMATION MATRIX PRIMITIVE-CRYSTALLOGRAPHIC CELL
  0.0000  1.0000  1.0000  1.0000  0.0000  1.0000  1.0000  1.0000  0.0000

 *******************************************************************************
 CRYSTALLOGRAPHIC CELL (VOLUME=       1371.74091142)
         A              B              C           ALPHA      BETA       GAMMA 
    10.15800000    10.15800000    13.29400000    90.000000  90.000000  90.000000

 COORDINATES IN THE CRYSTALLOGRAPHIC CELL
     ATOM                 X/A                 Y/B                 Z/C    
 *******************************************************************************
      1 T   1 H     5.761000000000E-02  2.373700000000E-01 -3.633300000000E-01
      2 F   1 H    -5.761000000000E-02 -2.373700000000E-01 -3.633300000000E-01
      3 F   1 H     2.373700000000E-01 -5.761000000000E-02  3.633300000000E-01
      4 F   1 H    -2.373700000000E-01  5.761000000000E-02  3.633300000000E-01
      5 T   1 H    -2.408000000000E-02 -3.248100000000E-01  9.083000000000E-02
      6 F   1 H     2.408000000000E-02  3.248100000000E-01  9.083000000000E-02
      7 F   1 H    -3.248100000000E-01  2.408000000000E-02 -9.083000000000E-02
      8 F   1 H     3.248100000000E-01 -2.408000000000E-02 -9.083000000000E-02
      9 T   9 F    -3.941800000000E-01 -1.942000000000E-02  1.369900000000E-01
     10 F   9 F     3.941800000000E-01  1.942000000000E-02  1.369900000000E-01
     11 F   9 F    -1.942000000000E-02  3.941800000000E-01 -1.369900000000E-01
     12 F   9 F     1.942000000000E-02 -3.941800000000E-01 -1.369900000000E-01
     13 T   9 F    -1.579200000000E-01  5.709000000000E-02  1.240200000000E-01
     14 F   9 F     1.579200000000E-01 -5.709000000000E-02  1.240200000000E-01
     15 F   9 F     5.709000000000E-02  1.579200000000E-01 -1.240200000000E-01
     16 F   9 F    -5.709000000000E-02 -1.579200000000E-01 -1.240200000000E-01
     17 T   6 C    -2.353500000000E-01 -3.140200000000E-01  1.165500000000E-01
     18 F   6 C     2.353500000000E-01  3.140200000000E-01  1.165500000000E-01
     19 F   6 C    -3.140200000000E-01  2.353500000000E-01 -1.165500000000E-01
     20 F   6 C     3.140200000000E-01 -2.353500000000E-01 -1.165500000000E-01
     21 T   6 C    -2.486000000000E-01 -4.568300000000E-01  1.230000000000E-01
     22 F   6 C     2.486000000000E-01  4.568300000000E-01  1.230000000000E-01
     23 F   6 C    -4.568300000000E-01  2.486000000000E-01 -1.230000000000E-01
     24 F   6 C     4.568300000000E-01 -2.486000000000E-01 -1.230000000000E-01
     25 T   6 C    -3.416300000000E-01 -2.263300000000E-01  1.273400000000E-01
     26 F   6 C     3.416300000000E-01  2.263300000000E-01  1.273400000000E-01
     27 F   6 C    -2.263300000000E-01  3.416300000000E-01 -1.273400000000E-01
     28 F   6 C     2.263300000000E-01 -3.416300000000E-01 -1.273400000000E-01
     29 T   6 C    -1.843100000000E-01 -4.741000000000E-02  1.204300000000E-01
     30 F   6 C     1.843100000000E-01  4.741000000000E-02  1.204300000000E-01
     31 F   6 C    -4.741000000000E-02  1.843100000000E-01 -1.204300000000E-01
     32 F   6 C     4.741000000000E-02 -1.843100000000E-01 -1.204300000000E-01
     33 T   6 C    -1.085700000000E-01 -2.603500000000E-01  1.044300000000E-01
     34 F   6 C     1.085700000000E-01  2.603500000000E-01  1.044300000000E-01
     35 F   6 C    -2.603500000000E-01  1.085700000000E-01 -1.044300000000E-01
     36 F   6 C     2.603500000000E-01 -1.085700000000E-01 -1.044300000000E-01
     37 T   6 C     3.150000000000E-01  9.141000000000E-02  1.282200000000E-01
     38 F   6 C    -3.150000000000E-01 -9.141000000000E-02  1.282200000000E-01
     39 F   6 C     9.141000000000E-02 -3.150000000000E-01 -1.282200000000E-01
     40 F   6 C    -9.141000000000E-02  3.150000000000E-01 -1.282200000000E-01
     41 T   7 N    -1.592300000000E-01  4.628300000000E-01  1.672900000000E-01
     42 F   7 N     1.592300000000E-01 -4.628300000000E-01  1.672900000000E-01
     43 F   7 N     4.628300000000E-01  1.592300000000E-01 -1.672900000000E-01
     44 F   7 N    -4.628300000000E-01 -1.592300000000E-01 -1.672900000000E-01
     45 T   7 N    -2.059600000000E-01  3.358500000000E-01  1.597700000000E-01
     46 F   7 N     2.059600000000E-01 -3.358500000000E-01  1.597700000000E-01
     47 F   7 N     3.358500000000E-01  2.059600000000E-01 -1.597700000000E-01
     48 F   7 N    -3.358500000000E-01 -2.059600000000E-01 -1.597700000000E-01
     49 T   7 N     1.518600000000E-01 -3.221000000000E-02 -4.116000000000E-01
     50 F   7 N    -1.518600000000E-01  3.221000000000E-02 -4.116000000000E-01
     51 F   7 N    -3.221000000000E-02 -1.518600000000E-01  4.116000000000E-01
     52 F   7 N     3.221000000000E-02  1.518600000000E-01  4.116000000000E-01
     53 T   7 N    -3.199800000000E-01  3.388700000000E-01  1.128200000000E-01
     54 F   7 N     3.199800000000E-01 -3.388700000000E-01  1.128200000000E-01
     55 F   7 N     3.388700000000E-01  3.199800000000E-01 -1.128200000000E-01
     56 F   7 N    -3.388700000000E-01 -3.199800000000E-01 -1.128200000000E-01
     57 T   7 N    -8.258000000000E-02 -1.312300000000E-01  1.079100000000E-01
     58 F   7 N     8.258000000000E-02  1.312300000000E-01  1.079100000000E-01
     59 F   7 N    -1.312300000000E-01  8.258000000000E-02 -1.079100000000E-01
     60 F   7 N     1.312300000000E-01 -8.258000000000E-02 -1.079100000000E-01
     61 T  30 ZN    4.626932236752E-17  5.000000000000E-01  2.500000000000E-01
     62 T  30 ZN    0.000000000000E+00  0.000000000000E+00  5.000000000000E-01

 T = ATOM BELONGING TO THE ASYMMETRIC UNIT

 ****    4 SYMMOPS - TRANSLATORS IN FRACTIONAL UNITS
 **** MATRICES AND TRANSLATORS IN THE CRYSTALLOGRAPHIC REFERENCE FRAME
   V INV                    ROTATION MATRICES                   TRANSLATORS
   1   1  1.00  0.00  0.00  0.00  1.00  0.00  0.00  0.00  1.00  0.00  0.00  0.00
   2   2  0.00  1.00 -1.00  1.00 -0.00 -1.00 -0.00  0.00 -1.00  0.00  0.00  0.00
   3   4 -0.00 -1.00  0.00  0.00 -1.00  1.00  1.00 -1.00  0.00  0.00  0.00  0.00
   4   3 -1.00 -0.00  1.00 -1.00  0.00 -0.00 -1.00  1.00 -0.00  0.00  0.00  0.00

 DIRECT LATTICE VECTORS CARTESIAN COMPONENTS (ANGSTROM)
          X                    Y                    Z
  -0.507900000000E+01   0.507900000000E+01   0.664700000000E+01
   0.507900000000E+01  -0.507900000000E+01   0.664700000000E+01
   0.507900000000E+01   0.507900000000E+01  -0.664700000000E+01


 CARTESIAN COORDINATES - PRIMITIVE CELL
 *******************************************************************************
 *      ATOM          X(ANGSTROM)         Y(ANGSTROM)         Z(ANGSTROM)
 *******************************************************************************
    1     1 H     5.852023800000E-01  2.411204460000E+00 -4.830109020000E+00
    2     1 H    -5.852023800000E-01 -2.411204460000E+00 -4.830109020000E+00
    3     1 H     2.411204460000E+00 -5.852023800000E-01  4.830109020000E+00
    4     1 H    -2.411204460000E+00  5.852023800000E-01  4.830109020000E+00
    5     1 H    -2.446046400000E-01 -3.299419980000E+00  1.207494020000E+00
    6     1 H     2.446046400000E-01  3.299419980000E+00  1.207494020000E+00
    7     1 H    -3.299419980000E+00  2.446046400000E-01 -1.207494020000E+00
    8     1 H     3.299419980000E+00 -2.446046400000E-01 -1.207494020000E+00
    9     9 F    -4.004080440000E+00 -1.972683600000E-01  1.821145060000E+00
   10     9 F     4.004080440000E+00  1.972683600000E-01  1.821145060000E+00
   11     9 F    -1.972683600000E-01  4.004080440000E+00 -1.821145060000E+00
   12     9 F     1.972683600000E-01 -4.004080440000E+00 -1.821145060000E+00
   13     9 F    -1.604151360000E+00  5.799202200000E-01  1.648721880000E+00
   14     9 F     1.604151360000E+00 -5.799202200000E-01  1.648721880000E+00
   15     9 F     5.799202200000E-01  1.604151360000E+00 -1.648721880000E+00
   16     9 F    -5.799202200000E-01 -1.604151360000E+00 -1.648721880000E+00
   17     6 C    -2.390685300000E+00 -3.189815160000E+00  1.549415700000E+00
   18     6 C     2.390685300000E+00  3.189815160000E+00  1.549415700000E+00
   19     6 C    -3.189815160000E+00  2.390685300000E+00 -1.549415700000E+00
   20     6 C     3.189815160000E+00 -2.390685300000E+00 -1.549415700000E+00
   21     6 C    -2.525278800000E+00 -4.640479140000E+00  1.635162000000E+00
   22     6 C     2.525278800000E+00  4.640479140000E+00  1.635162000000E+00
   23     6 C    -4.640479140000E+00  2.525278800000E+00 -1.635162000000E+00
   24     6 C     4.640479140000E+00 -2.525278800000E+00 -1.635162000000E+00
   25     6 C    -3.470277540000E+00 -2.299060140000E+00  1.692857960000E+00
   26     6 C     3.470277540000E+00  2.299060140000E+00  1.692857960000E+00
   27     6 C    -2.299060140000E+00  3.470277540000E+00 -1.692857960000E+00
   28     6 C     2.299060140000E+00 -3.470277540000E+00 -1.692857960000E+00
   29     6 C    -1.872220980000E+00 -4.815907800000E-01  1.600996420000E+00
   30     6 C     1.872220980000E+00  4.815907800000E-01  1.600996420000E+00
   31     6 C    -4.815907800000E-01  1.872220980000E+00 -1.600996420000E+00
   32     6 C     4.815907800000E-01 -1.872220980000E+00 -1.600996420000E+00
   33     6 C    -1.102854060000E+00 -2.644635300000E+00  1.388292420000E+00
   34     6 C     1.102854060000E+00  2.644635300000E+00  1.388292420000E+00
   35     6 C    -2.644635300000E+00  1.102854060000E+00 -1.388292420000E+00
   36     6 C     2.644635300000E+00 -1.102854060000E+00 -1.388292420000E+00
   37     6 C     3.199770000000E+00  9.285427800000E-01  1.704556680000E+00
   38     6 C    -3.199770000000E+00 -9.285427800000E-01  1.704556680000E+00
   39     6 C     9.285427800000E-01 -3.199770000000E+00 -1.704556680000E+00
   40     6 C    -9.285427800000E-01  3.199770000000E+00 -1.704556680000E+00
   41     7 N    -1.617458340000E+00  4.701427140000E+00  2.223953260000E+00
   42     7 N     1.617458340000E+00 -4.701427140000E+00  2.223953260000E+00
   43     7 N     4.701427140000E+00  1.617458340000E+00 -2.223953260000E+00
   44     7 N    -4.701427140000E+00 -1.617458340000E+00 -2.223953260000E+00
   45     7 N    -2.092141680000E+00  3.411564300000E+00  2.123982380000E+00
   46     7 N     2.092141680000E+00 -3.411564300000E+00  2.123982380000E+00
   47     7 N     3.411564300000E+00  2.092141680000E+00 -2.123982380000E+00
   48     7 N    -3.411564300000E+00 -2.092141680000E+00 -2.123982380000E+00
   49     7 N     1.542593880000E+00 -3.271891800000E-01 -5.471810400000E+00
   50     7 N    -1.542593880000E+00  3.271891800000E-01 -5.471810400000E+00
   51     7 N    -3.271891800000E-01 -1.542593880000E+00  5.471810400000E+00
   52     7 N     3.271891800000E-01  1.542593880000E+00  5.471810400000E+00
   53     7 N    -3.250356840000E+00  3.442241460000E+00  1.499829080000E+00
   54     7 N     3.250356840000E+00 -3.442241460000E+00  1.499829080000E+00
   55     7 N     3.442241460000E+00  3.250356840000E+00 -1.499829080000E+00
   56     7 N    -3.442241460000E+00 -3.250356840000E+00 -1.499829080000E+00
   57     7 N    -8.388476400000E-01 -1.333034340000E+00  1.434555540000E+00
   58     7 N     8.388476400000E-01  1.333034340000E+00  1.434555540000E+00
   59     7 N    -1.333034340000E+00  8.388476400000E-01 -1.434555540000E+00
   60     7 N     1.333034340000E+00 -8.388476400000E-01 -1.434555540000E+00
   61    30 ZN    4.700037766092E-16  5.079000000000E+00 -9.970500000000E+00
   62    30 ZN    0.000000000000E+00  0.000000000000E+00  6.647000000000E+00

 *******************************************************************************
 STARTING BASIS SET HANDLING 
 *******************************************************************************

 Loading internal basis set: POB-DZVPP           

 Please cite in your publication:
 Peintinger, M. F., Oliveira, D. V. and Bredow, T. (2013), Generally applicable 
 solid-state Gaussian basis sets, in preparation                                
                                                                                
                    

 *******************************************************************************
 LOCAL ATOMIC FUNCTIONS BASIS SET
 *******************************************************************************
   ATOM   X(AU)   Y(AU)   Z(AU)  N. TYPE  EXPONENT  S COEF   P COEF   D/F/G COEF
 *******************************************************************************
   1 H    1.106   4.557  -9.128
                                  1 S  
                                         2.263E+01 1.441E-02 0.000E+00 0.000E+00
                                         3.236E+00 1.072E-01 0.000E+00 0.000E+00
                                         7.304E-01 3.846E-01 0.000E+00 0.000E+00
                                  2 S  
                                         1.417E-01 1.000E+00 0.000E+00 0.000E+00
                           3-     5 P  
                                         3.944E-01 0.000E+00 1.000E+00 0.000E+00
                           6-     8 P  
                                         1.006E-01 0.000E+00 1.000E+00 0.000E+00
   2 H   -1.106  -4.557  -9.128
   3 H    4.557  -1.106   9.128
   4 H   -4.557   1.106   9.128
   5 H   -0.462  -6.235   2.282
   6 H    0.462   6.235   2.282
   7 H   -6.235   0.462  -2.282
   8 H    6.235  -0.462  -2.282
   9 F   -7.567  -0.373   3.441
                                 65 S  
                                         2.895E+03-5.341E-03 0.000E+00 0.000E+00
                                         4.354E+02-3.990E-02 0.000E+00 0.000E+00
                                         9.884E+01-1.791E-01 0.000E+00 0.000E+00
                                         2.749E+01-4.676E-01 0.000E+00 0.000E+00
                                         8.541E+00-4.465E-01 0.000E+00 0.000E+00
                                 66 S  
                                         1.123E+00 1.000E+00 0.000E+00 0.000E+00
                                 67 S  
                                         3.743E-01 1.000E+00 0.000E+00 0.000E+00
                          68-    70 P  
                                         2.270E+01 0.000E+00-4.521E-02 0.000E+00
                                         4.987E+00 0.000E+00-2.375E-01 0.000E+00
                                         1.349E+00 0.000E+00-5.129E-01 0.000E+00
                          71-    73 P  
                                         3.474E-01 0.000E+00 1.000E+00 0.000E+00
                          74-    78 D  
                                         9.203E-01 0.000E+00 0.000E+00 1.000E+00
                          79-    83 D  
                                         3.977E-01 0.000E+00 0.000E+00 1.000E+00
  10 F    7.567   0.373   3.441
  11 F   -0.373   7.567  -3.441
  12 F    0.373  -7.567  -3.441
  13 F   -3.031   1.096   3.116
  14 F    3.031  -1.096   3.116
  15 F    1.096   3.031  -3.116
  16 F   -1.096  -3.031  -3.116
  17 C   -4.518  -6.028   2.928
                                217 S  
                                         1.238E+03 5.457E-03 0.000E+00 0.000E+00
                                         1.863E+02 4.064E-02 0.000E+00 0.000E+00
                                         4.225E+01 1.803E-01 0.000E+00 0.000E+00
                                         1.168E+01 4.632E-01 0.000E+00 0.000E+00
                                         3.593E+00 4.409E-01 0.000E+00 0.000E+00
                                218 S  
                                         5.281E+00 1.000E+00 0.000E+00 0.000E+00
                                219 S  
                                         4.447E-01 1.000E+00 0.000E+00 0.000E+00
                         220-   222 P  
                                         9.468E+00 0.000E+00 3.839E-02 0.000E+00
                                         2.010E+00 0.000E+00 2.112E-01 0.000E+00
                                         5.477E-01 0.000E+00 5.133E-01 0.000E+00
                         223-   225 P  
                                         1.604E-01 0.000E+00 1.000E+00 0.000E+00
                         226-   230 D  
                                         6.070E-01 0.000E+00 0.000E+00 1.000E+00
                         231-   235 D  
                                         2.939E-01 0.000E+00 0.000E+00 1.000E+00
  18 C    4.518   6.028   2.928
  19 C   -6.028   4.518  -2.928
  20 C    6.028  -4.518  -2.928
  21 C   -4.772  -8.769   3.090
  22 C    4.772   8.769   3.090
  23 C   -8.769   4.772  -3.090
  24 C    8.769  -4.772  -3.090
  25 C   -6.558  -4.345   3.199
  26 C    6.558   4.345   3.199
  27 C   -4.345   6.558  -3.199
  28 C    4.345  -6.558  -3.199
  29 C   -3.538  -0.910   3.025
  30 C    3.538   0.910   3.025
  31 C   -0.910   3.538  -3.025
  32 C    0.910  -3.538  -3.025
  33 C   -2.084  -4.998   2.623
  34 C    2.084   4.998   2.623
  35 C   -4.998   2.084  -2.623
  36 C    4.998  -2.084  -2.623
  37 C    6.047   1.755   3.221
  38 C   -6.047  -1.755   3.221
  39 C    1.755  -6.047  -3.221
  40 C   -1.755   6.047  -3.221
  41 N   -3.057   8.884   4.203
                                673 S  
                                         1.713E+03-5.393E-03 0.000E+00 0.000E+00
                                         2.576E+02-4.022E-02 0.000E+00 0.000E+00
                                         5.846E+01-1.793E-01 0.000E+00 0.000E+00
                                         1.620E+01-4.638E-01 0.000E+00 0.000E+00
                                         5.005E+00-4.417E-01 0.000E+00 0.000E+00
                                674 S  
                                         6.217E-01 1.000E+00 0.000E+00 0.000E+00
                                675 S  
                                         2.921E-01 1.000E+00 0.000E+00 0.000E+00
                         676-   678 P  
                                         1.357E+01 0.000E+00-4.007E-02 0.000E+00
                                         2.926E+00 0.000E+00-2.181E-01 0.000E+00
                                         7.993E-01 0.000E+00-5.129E-01 0.000E+00
                         679-   681 P  
                                         2.244E-01 0.000E+00 1.000E+00 0.000E+00
                         682-   686 D  
                                         3.118E-01 0.000E+00 0.000E+00 1.000E+00
  42 N    3.057  -8.884   4.203
  43 N    8.884   3.057  -4.203
  44 N   -8.884  -3.057  -4.203
  45 N   -3.954   6.447   4.014
  46 N    3.954  -6.447   4.014
  47 N    6.447   3.954  -4.014
  48 N   -6.447  -3.954  -4.014
  49 N    2.915  -0.618 -10.340
  50 N   -2.915   0.618 -10.340
  51 N   -0.618  -2.915  10.340
  52 N    0.618   2.915  10.340
  53 N   -6.142   6.505   2.834
  54 N    6.142  -6.505   2.834
  55 N    6.505   6.142  -2.834
  56 N   -6.505  -6.142  -2.834
  57 N   -1.585  -2.519   2.711
  58 N    1.585   2.519   2.711
  59 N   -2.519   1.585  -2.711
  60 N    2.519  -1.585  -2.711
  61 ZN   0.000   9.598 -18.842
                                953 S  
                                         8.200E+04 1.421E-03 0.000E+00 0.000E+00
                                         1.231E+04 1.089E-02 0.000E+00 0.000E+00
                                         2.801E+03 5.406E-02 0.000E+00 0.000E+00
                                         7.910E+02 1.885E-01 0.000E+00 0.000E+00
                                         2.576E+02 3.835E-01 0.000E+00 0.000E+00
                                         8.881E+01 2.972E-01 0.000E+00 0.000E+00
                                954 S  
                                         1.719E+02-1.105E-01 0.000E+00 0.000E+00
                                         2.030E+01 6.461E-01 0.000E+00 0.000E+00
                                         8.346E+00 4.422E-01 0.000E+00 0.000E+00
                                955 S  
                                         1.485E+01-2.271E-01 0.000E+00 0.000E+00
                                         2.450E+00 7.243E-01 0.000E+00 0.000E+00
                                         9.985E-01 4.484E-01 0.000E+00 0.000E+00
                                956 S  
                                         1.493E+00 1.000E+00 0.000E+00 0.000E+00
                                957 S  
                                         1.830E-01 1.000E+00 0.000E+00 0.000E+00
                         958-   960 P  
                                         1.072E+03 0.000E+00 9.277E-03 0.000E+00
                                         2.527E+02 0.000E+00 6.954E-02 0.000E+00
                                         8.010E+01 0.000E+00 2.716E-01 0.000E+00
                                         2.890E+01 0.000E+00 5.340E-01 0.000E+00
                                         1.077E+01 0.000E+00 3.450E-01 0.000E+00
                         961-   963 P  
                                         5.645E+00 0.000E+00 3.413E-01 0.000E+00
                                         2.168E+00 0.000E+00 5.639E-01 0.000E+00
                                         8.054E-01 0.000E+00 2.368E-01 0.000E+00
                         964-   966 P  
                                         2.721E-01 0.000E+00 1.000E+00 0.000E+00
                         967-   971 D  
                                         5.609E+01 0.000E+00 0.000E+00 2.959E-02
                                         1.575E+01 0.000E+00 0.000E+00 1.587E-01
                                         5.312E+00 0.000E+00 0.000E+00 3.798E-01
                                         1.774E+00 0.000E+00 0.000E+00 4.690E-01
                         972-   976 D  
                                         5.073E-01 0.000E+00 0.000E+00 1.000E+00
                         977-   983 F  
                                         2.814E+00 0.000E+00 0.000E+00 1.000E+00
                         984-   990 F  
                                         1.300E+00 0.000E+00 0.000E+00 1.000E+00
  62 ZN   0.000   0.000  12.561

 *******************************************************************************
 FINISHED BASIS SET HANDLING 
 *******************************************************************************

 INFORMATION **** SET_MPP **** PCRYSTAL CALCULATION
 INFORMATION **** READM2 **** NEW DEFAULT: FOCK/KS MATRIX MIXING SET TO 30 %
 INFORMATION **** READM2 **** NEW DEFAULT: FULL DIRECT SCF MODE
 INFORMATION **** READM2 **** NEW DEFAULT: COULOMB BIPOLAR BUFFER SET TO 32 Mb
 INFORMATION **** READM2 **** NEW DEFAULT: EXCHANGE BIPOLAR BUFFER SET TO 32 Mb

 *******************************************************************************
 NEW DEFAULT: DFT INTEGRATION GRID INCREASED TO XLGRID
 NEW DEFAULT: DIIS ACCELERATOR ACTIVE
 USE KEYWORD NODIIS TO TURN IT OFF
 *******************************************************************************

 INFORMATION **** DFTD3_INPUT **** PERFORM DISPERSION CORRECTION DFT-D3(BJ) IN THE BECKE-JOHNSON DAMPING SCHEME

 PLEASE CITE:
 (1) DFT-D3 Reference
  S. Grimme, J. Antony, S. Ehrlich, and H. Krieg, J. Chem. Phys. 132 (2010), 154104
 (2) BJ-Damping Reference
  S. Grimme, S. Ehrlich, and L. Goerigk, J. Comput. Chem. 32 (2011), 1456-1465
 (3) General DFT-D Review
  S. Grimme, A. Hansen, J. G. Brandenburg, and C. Bannwarth,
  Chem. Rev. 116 (2016), 5105-5154

 INFORMATION **** BIPOSIZE **** COULOMB BIPOLAR BUFFER SET TO    30000000
 INFORMATION **** EXCHSIZE **** EXCHANGE BIPOLAR BUFFER SIZE SET TO    30000000
 INFORMATION **** TOLINTEG **** COULOMB AND EXCHANGE SERIES TOLERANCES MODIFIED
 INFORMATION **** MAXCYCLE **** MAX NUMBER OF SCF CYCLES SET TO          50
 *******************************************************************************
 N. OF ATOMS PER CELL        62  COULOMB OVERLAP TOL         (T1) 10**  -12
 NUMBER OF SHELLS           400  COULOMB PENETRATION TOL     (T2) 10**  -12
 NUMBER OF AO              1028  EXCHANGE OVERLAP TOL        (T3) 10**   20
 N. OF ELECTRONS PER CELL   424  EXCHANGE PSEUDO OVP (F(G))  (T4) 10**   20
 CORE ELECTRONS PER CELL    140  EXCHANGE PSEUDO OVP (P(G))  (T5) 10**   20
 N. OF SYMMETRY OPERATORS     4  POLE ORDER IN MONO ZONE                  4
 *******************************************************************************
 TYPE OF CALCULATION :  RESTRICTED CLOSED SHELL
 KOHN-SHAM HAMILTONIAN

 (EXCHANGE)[CORRELATION] FUNCTIONAL:(PERDEW-BURKE-ERNZERHOF)[PERDEW-BURKE-ERNZERHOF]


 CAPPA:IS1  3;IS2  3;IS3  3; K PTS MONK NET   6; SYMMOPS:K SPACE   8;G SPACE   4

 *******************************************************************************
 MAX NUMBER OF SCF CYCLES      50  CONVERGENCE ON DELTAP        10**-16
 WEIGHT OF F(I) IN F(I+1)      30% CONVERGENCE ON ENERGY        10**- 7
 SHRINK. FACT.(MONKH.)    3  3  3  NUMBER OF K POINTS IN THE IBZ      6
 SHRINKING FACTOR(GILAT NET)    3  NUMBER OF K POINTS(GILAT NET)      6
 *******************************************************************************
 *** K POINTS COORDINATES (OBLIQUE COORDINATES IN UNITS OF IS =  3)
   1-R(  0  0  0)   2-C(  1  0  0)   3-C(  1  1  0)   4-C(  2  1  0)
   5-C(  2  1  1)   6-C(  2  2  1)

 DIRECT LATTICE VECTORS COMPON. (A.U.)     RECIP. LATTICE VECTORS COMPON. (A.U.) 
        X            Y            Z              X            Y            Z
   -9.5979190    9.5979190   12.5610096      0.0000000    0.3273202    0.2501067
    9.5979190   -9.5979190   12.5610096      0.3273202    0.0000000    0.2501067
    9.5979190    9.5979190  -12.5610096      0.3273202    0.3273202    0.0000000

 DISK SPACE FOR EIGENVECTORS (FTN 10)    11624624 REALS

 SYMMETRY ADAPTION OF THE BLOCH FUNCTIONS ENABLED
 TTTTTTTTTTTTTTTTTTTTTTTTTTTTTT gordsh1     TELAPSE        1.22 TCPU        0.04

 MATRIX SIZE: P(G) 1828176, F(G)  915082, P(G) IRR  231422, F(G) IRR  231422
 MAX G-VECTOR INDEX FOR 1- AND 2-ELECTRON INTEGRALS  63

 TTTTTTTTTTTTTTTTTTTTTTTTTTTTTT INPUT       TELAPSE        1.31 TCPU        0.13

 NEIGHBORS OF THE NON-EQUIVALENT ATOMS

 N = NUMBER OF NEIGHBORS AT DISTANCE R
    ATOM  N     R/ANG      R/AU   NEIGHBORS (ATOM LABELS AND CELL INDICES)
   1 H    1     1.0950     2.0692   25 C    0 0 1
   1 H    1     2.1707     4.1021   38 C    0 0 1
   1 H    1     2.1834     4.1260   17 C    0 0 1
   1 H    1     2.5186     4.7595    9 F    0 0 1
   1 H    1     2.5548     4.8279   54 N    0-1 0
   1 H    1     2.7928     5.2776   21 C    0 0 1

   5 H    1     1.0945     2.0684   33 C    0 0 0
   5 H    1     2.0667     3.9055   57 N    0 0 0
   5 H    1     2.1759     4.1119   17 C    0 0 0
   5 H    1     2.5126     4.7480   46 N    0 0 0
   5 H    1     2.5429     4.8053   42 N    0 0 0
   5 H    1     2.6801     5.0646   21 C    0 0 0

   9 F    1     1.0933     2.0660   38 C    0 0 0
   9 F    1     2.1620     4.0855   29 C    0 0 0
   9 F    1     2.1723     4.1051   25 C    0 0 0
   9 F    1     2.1857     4.1305   10 F    0-1-1
   9 F    1     2.5186     4.7595    1 H    0 0-1
   9 F    1     2.5285     4.7782   13 F    0 0 0

  13 F    1     1.0959     2.0709   29 C    0 0 0
  13 F    1     2.0715     3.9145   57 N    0 0 0
  13 F    1     2.1965     4.1508   38 C    0 0 0
  13 F    1     2.5285     4.7782    9 F    0 0 0
  13 F    1     2.5654     4.8479   58 N    0 0 0
  13 F    1     2.9124     5.5037   45 N    0 0 0

  17 C    1     1.4070     2.6588   25 C    0 0 0
  17 C    1     1.4077     2.6602   33 C    0 0 0
  17 C    1     1.4594     2.7579   21 C    0 0 0
  17 C    1     2.1759     4.1119    5 H    0 0 0
  17 C    1     2.1834     4.1260    1 H    0 0-1
  17 C    1     2.4067     4.5479   38 C    0 0 0

  21 C    1     1.3492     2.5496   49 N    0 0-1
  21 C    1     1.3553     2.5611   41 N   -1 0-1
  21 C    1     1.4594     2.7579   17 C    0 0 0
  21 C    1     2.2025     4.1620   53 N   -1 0-1
  21 C    1     2.2049     4.1667   45 N   -1 0-1
  21 C    1     2.4633     4.6549   33 C    0 0 0

  25 C    1     1.0950     2.0692    1 H    0 0-1
  25 C    1     1.3970     2.6400   38 C    0 0 0
  25 C    1     1.4070     2.6588   17 C    0 0 0
  25 C    1     2.1723     4.1051    9 F    0 0 0
  25 C    1     2.4118     4.5577   33 C    0 0 0
  25 C    1     2.4219     4.5767   29 C    0 0 0

  29 C    1     1.0959     2.0709   13 F    0 0 0
  29 C    1     1.3493     2.5497   57 N    0 0 0
  29 C    1     1.4046     2.6543   38 C    0 0 0
  29 C    1     2.1620     4.0855    9 F    0 0 0
  29 C    1     2.3056     4.3570   33 C    0 0 0
  29 C    1     2.4219     4.5767   25 C    0 0 0

  33 C    1     1.0945     2.0684    5 H    0 0 0
  33 C    1     1.3387     2.5298   57 N    0 0 0
  33 C    1     1.4077     2.6602   17 C    0 0 0
  33 C    1     2.3056     4.3570   29 C    0 0 0
  33 C    1     2.4118     4.5577   25 C    0 0 0
  33 C    1     2.4633     4.6549   21 C    0 0 0

  37 C    1     1.0933     2.0660   10 F    0 0 0
  37 C    1     1.3970     2.6400   26 C    0 0 0
  37 C    1     1.4046     2.6543   30 C    0 0 0
  37 C    1     2.1707     4.1021    2 H    1 1 1
  37 C    1     2.1965     4.1508   14 F    0 0 0
  37 C    1     2.4067     4.5479   18 C    0 0 0

  41 N    1     1.3553     2.5611   21 C    1 0 1
  41 N    1     1.3781     2.6042   45 N    0 0 0
  41 N    1     1.9919     3.7642   61 ZN   1 1 0
  41 N    1     2.1855     4.1299   53 N    0 0 0
  41 N    1     2.1874     4.1336   49 N    1 0 0
  41 N    1     2.4882     4.7020   17 C    1 0 1

  45 N    1     1.3160     2.4870   53 N    0 0 0
  45 N    1     1.3781     2.6042   41 N    0 0 0
  45 N    1     2.1869     4.1326   49 N    1 0 0
  45 N    1     2.2049     4.1667   21 C    1 0 1
  45 N    1     2.5126     4.7480    6 H    0 0 0
  45 N    1     2.9124     5.5037   13 F    0 0 0

  49 N    1     1.3492     2.5496   21 C    0 0 1
  49 N    1     1.3792     2.6063   53 N   -1 0 0
  49 N    1     1.9667     3.7164   62 ZN  -1-1 0
  49 N    1     2.1869     4.1326   45 N   -1 0 0
  49 N    1     2.1874     4.1336   41 N   -1 0 0
  49 N    1     2.5229     4.7676   17 C    0 0 1

  53 N    1     1.3160     2.4870   45 N    0 0 0
  53 N    1     1.3792     2.6063   49 N    1 0 0
  53 N    1     2.1855     4.1299   41 N    0 0 0
  53 N    1     2.2025     4.1620   21 C    1 0 1
  53 N    1     2.5548     4.8279    2 H    1 0 0
  53 N    1     2.8762     5.4352   62 ZN   0-1 0

  57 N    1     1.3387     2.5298   33 C    0 0 0
  57 N    1     1.3493     2.5497   29 C    0 0 0
  57 N    1     2.0667     3.9055    5 H    0 0 0
  57 N    1     2.0715     3.9145   13 F    0 0 0
  57 N    1     2.4105     4.5552   38 C    0 0 0
  57 N    1     2.4226     4.5781   17 C    0 0 0

  61 ZN   4     1.9919     3.7642   41 N   -1-1 0   42 N    0-1 1   43 N    0-1 0
                                    44 N    0 0 1
  61 ZN   4     2.7756     5.2452    5 H    0-1 1    6 H   -1-1 0    7 H    0 0 1
                                     8 H    0-1 0
  61 ZN   4     2.9319     5.5406   45 N   -1-1 0   46 N    0-1 1   47 N    0-1 0
                                    48 N    0 0 1
  61 ZN   4     3.0692     5.7999   21 C    0-1 1   22 C   -1-1 0   23 C    0 0 1
                                    24 C    0-1 0
  61 ZN   4     3.2996     6.2354   33 C    0-1 1   34 C   -1-1 0   35 C    0 0 1
                                    36 C    0-1 0
  61 ZN   4     3.5259     6.6629   17 C    0-1 1   18 C   -1-1 0   19 C    0 0 1
                                    20 C    0-1 0

  62 ZN   4     1.9667     3.7164   49 N    1 1 0   50 N    1 1 0   51 N    0 0 0
                                    52 N    0 0 0
  62 ZN   4     2.8762     5.4352   53 N    0 1 0   54 N    1 0 0   55 N    0 0-1
                                    56 N    1 1 1
  62 ZN   4     3.0639     5.7900   21 C    1 1 1   22 C    0 0-1   23 C    0 1 0
                                    24 C    1 0 0
  62 ZN   4     3.0753     5.8115    1 H    1 1 0    2 H    1 1 0    3 H    0 0 0
                                     4 H    0 0 0
  62 ZN   4     3.6307     6.8610   25 C    1 1 1   26 C    0 0-1   27 C    0 1 0
                                    28 C    1 0 0
  62 ZN   4     3.6327     6.8649   17 C    1 1 1   18 C    0 0-1   19 C    0 1 0
                                    20 C    1 0 0


 SYMMETRY ALLOWED ELASTIC DISTORTION 1
  0.5773503  0.0000000  0.0000000
  0.0000000  0.5773503  0.0000000
  0.0000000  0.0000000  0.5773503

 SYMMETRY ALLOWED ELASTIC DISTORTION 2
  0.4082483  0.0000000  0.0000000
  0.0000000  0.4082483  0.0000000
  0.0000000  0.0000000 -0.8164966

 SYMMETRY ALLOWED INTERNAL DEGREE(S) OF FREEDOM:  45
 TTTTTTTTTTTTTTTTTTTTTTTTTTTTTT SYMM        TELAPSE        3.58 TCPU        2.35
 TTTTTTTTTTTTTTTTTTTTTTTTTTTTTT INT_SCREEN  TELAPSE        3.60 TCPU        2.37

 *******************************************************************************
 *                             OPTIMIZATION STARTS                             *
 *******************************************************************************
 RECLASIFICATION OF INDICES FOR INTEGRAL CALC ACCORDING TO DIFFERENT CRITERIA:
           FIXDELTE                  FIXDELTX              FIXDELTN
          0.10000000               0.80000000                 47
 DEFAULT MAX NUM OF POINTS  100
 *******************************************************************************

 *******************************************************************************
 COORDINATE AND CELL OPTIMIZATION - POINT    1
 INFORMATION **** EXCBUF **** EXCH. BIPO BUFFER: WORDS USED =           0

 DFT PARAMETERS

     ATOM       ELECTRONS   NET CHARGE   R(ANGSTROM)
   1   1  H       1.0000      0.0000     1.11000000
   9   9  F       9.0000      0.0000     0.72000000
  17   6  C       6.0000      0.0000     0.77000000
  41   7  N       7.0000      0.0000     0.74000000
  61  30  ZN     30.0000      0.0000     1.37000000

 SIZE OF GRID=     472416
 TTTTTTTTTTTTTTTTTTTTTTTTTTTTTT MAKE_GRID2  TELAPSE        9.67 TCPU        8.41
 BECKE WEIGHT FUNCTION
 RADSAFE =     2.00
 TOLERANCES - DENSITY:10**- 6; POTENTIAL:10**- 9; GRID WGT:10**-14

 RADIAL INTEGRATION  - INTERVALS (POINTS,UPPER LIMIT):            1( 75,  4.0*R)

 ANGULAR INTEGRATION - INTERVALS (ACCURACY LEVEL [N. POINTS] UPPER LIMIT):
  1(  4[  86]   0.2)  2(  8[ 194]   0.5)  3( 12[ 350]   0.9)  4( 16[ 974]   3.5)
  5( 12[ 350]9999.0)
 TTTTTTTTTTTTTTTTTTTTTTTTTTTTTT INT_CALC    TELAPSE        9.78 TCPU        8.52

 *******************************************************************************
 C:\Users\wilso\AppData\Local\Temp\tmp_p\newconn.mol                             
 CRYSTAL - SCF - TYPE OF CALCULATION :  RESTRICTED CLOSED SHELL
 *******************************************************************************

 CAPPA:IS1  3;IS2  3;IS3  3; K PTS MONK NET   6; SYMMOPS:K SPACE   8;G SPACE   4

 TTTTTTTTTTTTTTTTTTTTTTTTTTTTTT SDIK        TELAPSE       10.13 TCPU        8.87

 AAAAAAAAAAAAAAAAAAAAAAAAAAAAAAAAAAAAAAAAAAAAAAAAAAAAAAAAAAAAAAAAAAAAAAAAAAAAAAA
         ATOMIC WAVEFUNCTION(S)


 NUCLEAR CHARGE  1.0  SYMMETRY SPECIES            S
 N. ELECTRONS    1.0  NUMBER OF PRIMITIVE GTOS    4
                      NUMBER OF CONTRACTED GTOS   2
                      NUMBER OF CLOSED SHELLS     0
                      OPEN SHELL OCCUPATION       1

  ZNUC SCFIT  TOTAL HF ENERGY   KINETIC ENERGY   VIRIAL THEOREM ACCURACY
   1.0   1   -4.946643675E-01  4.917913167E-01 -2.005842012E+00  9.4E-17

 NUCLEAR CHARGE  9.0  SYMMETRY SPECIES            S    P
 N. ELECTRONS    9.0  NUMBER OF PRIMITIVE GTOS    7    4
                      NUMBER OF CONTRACTED GTOS   3    2
                      NUMBER OF CLOSED SHELLS     2    0
                      OPEN SHELL OCCUPATION       0    5

  ZNUC SCFIT  TOTAL HF ENERGY   KINETIC ENERGY   VIRIAL THEOREM ACCURACY
   9.0  14   -9.927886620E+01  9.927374065E+01 -2.000051630E+00  4.0E-06

 NUCLEAR CHARGE  6.0  SYMMETRY SPECIES            S    P
 N. ELECTRONS    6.0  NUMBER OF PRIMITIVE GTOS    7    4
                      NUMBER OF CONTRACTED GTOS   3    2
                      NUMBER OF CLOSED SHELLS     2    0
                      OPEN SHELL OCCUPATION       0    2

  ZNUC SCFIT  TOTAL HF ENERGY   KINETIC ENERGY   VIRIAL THEOREM ACCURACY
   6.0   6   -3.750912652E+01  3.905246519E+01 -1.960480378E+00  3.7E-06

 NUCLEAR CHARGE  7.0  SYMMETRY SPECIES            S    P
 N. ELECTRONS    7.0  NUMBER OF PRIMITIVE GTOS    7    4
                      NUMBER OF CONTRACTED GTOS   3    2
                      NUMBER OF CLOSED SHELLS     2    0
                      OPEN SHELL OCCUPATION       0    3

  ZNUC SCFIT  TOTAL HF ENERGY   KINETIC ENERGY   VIRIAL THEOREM ACCURACY
   7.0   9   -5.432196661E+01  5.425066284E+01 -2.001314339E+00  1.2E-06

 NUCLEAR CHARGE 30.0  SYMMETRY SPECIES            S    P    D
 N. ELECTRONS   30.0  NUMBER OF PRIMITIVE GTOS   14    9    5
                      NUMBER OF CONTRACTED GTOS   5    3    2
                      NUMBER OF CLOSED SHELLS     4    2    1
                      OPEN SHELL OCCUPATION       0    0    0

  ZNUC SCFIT  TOTAL HF ENERGY   KINETIC ENERGY   VIRIAL THEOREM ACCURACY
  30.0  10   -1.777404290E+03  1.777325716E+03 -2.000044209E+00  2.5E-06

 AAAAAAAAAAAAAAAAAAAAAAAAAAAAAAAAAAAAAAAAAAAAAAAAAAAAAAAAAAAAAAAAAAAAAAAAAAAAAAA

 CHARGE NORMALIZATION FACTOR   1.00000000
 TOTAL ATOMIC CHARGES:
   1.0000000   1.0000000   1.0000000   1.0000000   1.0000000   1.0000000
   1.0000000   1.0000000   9.0000000   9.0000000   9.0000000   9.0000000
   9.0000000   9.0000000   9.0000000   9.0000000   6.0000000   6.0000000
   6.0000000   6.0000000   6.0000000   6.0000000   6.0000000   6.0000000
   6.0000000   6.0000000   6.0000000   6.0000000   6.0000000   6.0000000
   6.0000000   6.0000000   6.0000000   6.0000000   6.0000000   6.0000000
   6.0000000   6.0000000   6.0000000   6.0000000   7.0000000   7.0000000
   7.0000000   7.0000000   7.0000000   7.0000000   7.0000000   7.0000000
   7.0000000   7.0000000   7.0000000   7.0000000   7.0000000   7.0000000
   7.0000000   7.0000000   7.0000000   7.0000000   7.0000000   7.0000000
  30.0000000  30.0000000
 TTTTTTTTTTTTTTTTTTTTTTTTTTTTTT MOQGAD      TELAPSE       11.99 TCPU       10.72
 TTTTTTTTTTTTTTTTTTTTTTTTTTTTTT SHELLXN     TELAPSE       85.43 TCPU       75.66
 TTTTTTTTTTTTTTTTTTTTTTTTTTTTTT MONMO3      TELAPSE       95.34 TCPU       85.55
 NUMERICALLY INTEGRATED DENSITY    424.0000254090
 TTTTTTTTTTTTTTTTTTTTTTTTTTTTTT NUMDFT      TELAPSE       97.73 TCPU       87.94
 CYC   0 ETOT(AU) -6.373208400161E+03 DETOT -6.37E+03 tst  0.00E+00 PX  1.00E+00
 TTTTTTTTTTTTTTTTTTTTTTTTTTTTTT DIIS        TELAPSE       97.82 TCPU       88.02
 TTTTTTTTTTTTTTTTTTTTTTTTTTTTTT FDIK        TELAPSE      138.01 TCPU      121.57
 INSULATING STATE
 TOP OF VALENCE BANDS -    BAND    212; K    4; EIG -1.3198206E-01 AU
 TOP OF VALENCE BANDS -    BAND    212; K    1; EIG -1.3331696E-01 AU
 BOTTOM OF VIRTUAL BANDS - BAND    213; K    5; EIG -8.6050098E-02 AU
 INDIRECT ENERGY BAND GAP:   1.2499 eV
 BOTTOM OF VIRTUAL BANDS - BAND    213; K    1; EIG -8.5197379E-02 AU
 TTTTTTTTTTTTTTTTTTTTTTTTTTTTTT PDIG        TELAPSE      138.63 TCPU      122.19
 CHARGE NORMALIZATION FACTOR   1.00000000
 TOTAL ATOMIC CHARGES:
   1.2185325   1.2185325   1.2185325   1.2185325   1.3343821   1.3343821
   1.3343821   1.3343821   8.9284937   8.9284937   8.9284937   8.9284937
   8.9204259   8.9204259   8.9204259   8.9204259   6.1177378   6.1177378
   6.1177378   6.1177378   5.4918322   5.4918322   5.4918322   5.4918322
   6.4884252   6.4884252   6.4884252   6.4884252   5.2949440   5.2949440
   5.2949440   5.2949440   5.9259034   5.9259034   5.9259034   5.9259034
   5.5480130   5.5480130   5.5480130   5.5480130   7.3736083   7.3736083
   7.3736083   7.3736083   7.1950387   7.1950387   7.1950387   7.1950387
   7.3807510   7.3807510   7.3807510   7.3807510   7.1638749   7.1638749
   7.1638749   7.1638749   7.7191375   7.7191375   7.7191375   7.7191375
  27.7477612  27.8478376
 TTTTTTTTTTTTTTTTTTTTTTTTTTTTTT MOQGAD      TELAPSE      138.68 TCPU      122.24
 TTTTTTTTTTTTTTTTTTTTTTTTTTTTTT SHELLXN     TELAPSE      217.01 TCPU      198.23
 TTTTTTTTTTTTTTTTTTTTTTTTTTTTTT MONMO3      TELAPSE      227.85 TCPU      209.04
 NUMERICALLY INTEGRATED DENSITY    424.0000347251
 TTTTTTTTTTTTTTTTTTTTTTTTTTTTTT NUMDFT      TELAPSE      234.83 TCPU      215.98
 CYC   1 ETOT(AU) -6.363417728797E+03 DETOT  9.79E+00 tst  0.00E+00 PX  1.00E+00
 TTTTTTTTTTTTTTTTTTTTTTTTTTTTTT DIIS        TELAPSE      235.00 TCPU      216.15
 DIIS TEST: 0.14198E+02 AT SCF   CYCLE   1 - MIX   30 %
 TTTTTTTTTTTTTTTTTTTTTTTTTTTTTT FDIK        TELAPSE      248.85 TCPU      227.66
 INSULATING STATE
 TOP OF VALENCE BANDS -    BAND    212; K    6; EIG -1.1536057E-01 AU
 TOP OF VALENCE BANDS -    BAND    212; K    1; EIG -1.1551991E-01 AU
 BOTTOM OF VIRTUAL BANDS - BAND    213; K    6; EIG -8.9294596E-02 AU
 DIRECT ENERGY BAND GAP:   0.7093 eV
 BOTTOM OF VIRTUAL BANDS - BAND    213; K    1; EIG -8.6856863E-02 AU
 TTTTTTTTTTTTTTTTTTTTTTTTTTTTTT PDIG        TELAPSE      249.46 TCPU      228.27
 CHARGE NORMALIZATION FACTOR   1.00000000
 TOTAL ATOMIC CHARGES:
   1.2612579   1.2612579   1.2612579   1.2612579   1.3991029   1.3991029
   1.3991029   1.3991029   8.8239292   8.8239292   8.8239292   8.8239292
   8.7653869   8.7653869   8.7653869   8.7653869   6.0887019   6.0887019
   6.0887019   6.0887019   6.2014639   6.2014639   6.2014639   6.2014639
   6.2382546   6.2382546   6.2382546   6.2382546   6.3190528   6.3190528
   6.3190528   6.3190528   6.1065566   6.1065566   6.1065566   6.1065566
   6.1700558   6.1700558   6.1700558   6.1700558   6.9438421   6.9438421
   6.9438421   6.9438421   6.8019731   6.8019731   6.8019731   6.8019731
   6.9700676   6.9700676   6.9700676   6.9700676   6.8543993   6.8543993
   6.8543993   6.8543993   6.1396334   6.1396334   6.1396334   6.1396334
  29.8605884  29.8046999
 TTTTTTTTTTTTTTTTTTTTTTTTTTTTTT MOQGAD      TELAPSE      249.51 TCPU      228.32
 TTTTTTTTTTTTTTTTTTTTTTTTTTTTTT SHELLXN     TELAPSE      327.10 TCPU      303.60
 TTTTTTTTTTTTTTTTTTTTTTTTTTTTTT MONMO3      TELAPSE      338.75 TCPU      315.21
 NUMERICALLY INTEGRATED DENSITY    424.0000452231
 TTTTTTTTTTTTTTTTTTTTTTTTTTTTTT NUMDFT      TELAPSE      345.61 TCPU      322.06
 CYC   2 ETOT(AU) -6.362436903261E+03 DETOT  9.81E-01 tst  9.95E-02 PX  7.80E-01
 TTTTTTTTTTTTTTTTTTTTTTTTTTTTTT DIIS        TELAPSE      345.78 TCPU      322.22
 DIIS TEST: 0.18091E+02 AT SCF   CYCLE   2 - DIIS ACTIVE - HISTORY:     2 CYCLES
 TTTTTTTTTTTTTTTTTTTTTTTTTTTTTT FDIK        TELAPSE      359.59 TCPU      333.86
 INSULATING STATE
 TOP OF VALENCE BANDS -    BAND    212; K    2; EIG -2.1599573E-01 AU
 TOP OF VALENCE BANDS -    BAND    212; K    1; EIG -2.1647909E-01 AU
 BOTTOM OF VIRTUAL BANDS - BAND    213; K    6; EIG -9.5955360E-02 AU
 INDIRECT ENERGY BAND GAP:   3.2665 eV
 BOTTOM OF VIRTUAL BANDS - BAND    213; K    1; EIG -9.5099579E-02 AU
 TTTTTTTTTTTTTTTTTTTTTTTTTTTTTT PDIG        TELAPSE      360.20 TCPU      334.47
 CHARGE NORMALIZATION FACTOR   1.00000000
 TOTAL ATOMIC CHARGES:
   1.2086354   1.2086354   1.2086354   1.2086354   1.2711516   1.2711516
   1.2711516   1.2711516   8.8132177   8.8132177   8.8132177   8.8132177
   8.8253081   8.8253081   8.8253081   8.8253081   5.9282264   5.9282264
   5.9282264   5.9282264   5.7698186   5.7698186   5.7698186   5.7698186
   6.1456740   6.1456740   6.1456740   6.1456740   5.8398236   5.8398236
   5.8398236   5.8398236   6.0199697   6.0199697   6.0199697   6.0199697
   5.7345331   5.7345331   5.7345331   5.7345331   7.0619939   7.0619939
   7.0619939   7.0619939   7.1900393   7.1900393   7.1900393   7.1900393
   6.9846869   6.9846869   6.9846869   6.9846869   7.0724470   7.0724470
   7.0724470   7.0724470   7.5836098   7.5836098   7.5836098   7.5836098
  29.1043585  29.0991014
 TTTTTTTTTTTTTTTTTTTTTTTTTTTTTT MOQGAD      TELAPSE      360.25 TCPU      334.51
 TTTTTTTTTTTTTTTTTTTTTTTTTTTTTT SHELLXN     TELAPSE      437.16 TCPU      410.04
 TTTTTTTTTTTTTTTTTTTTTTTTTTTTTT MONMO3      TELAPSE      448.41 TCPU      421.26
 NUMERICALLY INTEGRATED DENSITY    424.0000344289
 TTTTTTTTTTTTTTTTTTTTTTTTTTTTTT NUMDFT      TELAPSE      455.29 TCPU      428.11
 CYC   3 ETOT(AU) -6.365198254532E+03 DETOT -2.76E+00 tst  1.04E-02 PX  6.86E-01
 TTTTTTTTTTTTTTTTTTTTTTTTTTTTTT DIIS        TELAPSE      455.44 TCPU      428.26
 DIIS TEST: 0.34605E+01 AT SCF   CYCLE   3 - DIIS ACTIVE - HISTORY:     3 CYCLES
 TTTTTTTTTTTTTTTTTTTTTTTTTTTTTT FDIK        TELAPSE      469.37 TCPU      440.01
 INSULATING STATE
 TOP OF VALENCE BANDS -    BAND    212; K    1; EIG -1.9840494E-01 AU
 BOTTOM OF VIRTUAL BANDS - BAND    213; K    4; EIG -9.9456597E-02 AU
 INDIRECT ENERGY BAND GAP:   2.6925 eV
 BOTTOM OF VIRTUAL BANDS - BAND    213; K    1; EIG -9.7819761E-02 AU
 TTTTTTTTTTTTTTTTTTTTTTTTTTTTTT PDIG        TELAPSE      469.98 TCPU      440.62
 CHARGE NORMALIZATION FACTOR   1.00000000
 TOTAL ATOMIC CHARGES:
   1.1805814   1.1805814   1.1805814   1.1805814   1.2984238   1.2984238
   1.2984238   1.2984238   8.9106147   8.9106147   8.9106147   8.9106147
   8.8456320   8.8456320   8.8456320   8.8456320   6.1772361   6.1772361
   6.1772361   6.1772361   5.7816556   5.7816556   5.7816556   5.7816556
   6.4900264   6.4900264   6.4900264   6.4900264   5.6416977   5.6416977
   5.6416977   5.6416977   5.9351248   5.9351248   5.9351248   5.9351248
   5.7948872   5.7948872   5.7948872   5.7948872   7.1524061   7.1524061
   7.1524061   7.1524061   6.9649664   6.9649664   6.9649664   6.9649664
   7.2649282   7.2649282   7.2649282   7.2649282   7.0960808   7.0960808
   7.0960808   7.0960808   7.0569643   7.0569643   7.0569643   7.0569643
  28.7877987  28.8472990
 TTTTTTTTTTTTTTTTTTTTTTTTTTTTTT MOQGAD      TELAPSE      470.03 TCPU      440.66
 TTTTTTTTTTTTTTTTTTTTTTTTTTTTTT SHELLXN     TELAPSE      547.89 TCPU      516.06
 TTTTTTTTTTTTTTTTTTTTTTTTTTTTTT MONMO3      TELAPSE      558.10 TCPU      526.24
 NUMERICALLY INTEGRATED DENSITY    424.0000399826
 TTTTTTTTTTTTTTTTTTTTTTTTTTTTTT NUMDFT      TELAPSE      564.95 TCPU      533.08
 CYC   4 ETOT(AU) -6.365467809920E+03 DETOT -2.70E-01 tst  4.40E-03 PX  1.61E-01
 TTTTTTTTTTTTTTTTTTTTTTTTTTTTTT DIIS        TELAPSE      565.11 TCPU      533.24
 DIIS TEST: 0.13960E+01 AT SCF   CYCLE   4 - DIIS ACTIVE - HISTORY:     4 CYCLES
 TTTTTTTTTTTTTTTTTTTTTTTTTTTTTT FDIK        TELAPSE      577.87 TCPU      543.87
 INSULATING STATE
 TOP OF VALENCE BANDS -    BAND    212; K    6; EIG -2.2165671E-01 AU
 TOP OF VALENCE BANDS -    BAND    212; K    1; EIG -2.2176309E-01 AU
 BOTTOM OF VIRTUAL BANDS - BAND    213; K    6; EIG -9.5874460E-02 AU
 DIRECT ENERGY BAND GAP:   3.4227 eV
 BOTTOM OF VIRTUAL BANDS - BAND    213; K    1; EIG -9.5528796E-02 AU
 TTTTTTTTTTTTTTTTTTTTTTTTTTTTTT PDIG        TELAPSE      578.47 TCPU      544.48
 CHARGE NORMALIZATION FACTOR   1.00000000
 TOTAL ATOMIC CHARGES:
   1.1893194   1.1893194   1.1893194   1.1893194   1.2918476   1.2918476
   1.2918476   1.2918476   8.9047618   8.9047618   8.9047618   8.9047618
   8.8786034   8.8786034   8.8786034   8.8786034   6.0663769   6.0663769
   6.0663769   6.0663769   5.7929571   5.7929571   5.7929571   5.7929571
   6.3352930   6.3352930   6.3352930   6.3352930   5.7526083   5.7526083
   5.7526083   5.7526083   6.0180515   6.0180515   6.0180515   6.0180515
   5.8147507   5.8147507   5.8147507   5.8147507   7.2104312   7.2104312
   7.2104312   7.2104312   7.1152557   7.1152557   7.1152557   7.1152557
   7.0667008   7.0667008   7.0667008   7.0667008   6.9867652   6.9867652
   6.9867652   6.9867652   7.1403705   7.1403705   7.1403705   7.1403705
  28.8679345  28.8756928
 TTTTTTTTTTTTTTTTTTTTTTTTTTTTTT MOQGAD      TELAPSE      578.52 TCPU      544.52
 TTTTTTTTTTTTTTTTTTTTTTTTTTTTTT SHELLXN     TELAPSE      656.40 TCPU      620.09
 TTTTTTTTTTTTTTTTTTTTTTTTTTTTTT MONMO3      TELAPSE      667.88 TCPU      631.54
 NUMERICALLY INTEGRATED DENSITY    424.0000378126
 TTTTTTTTTTTTTTTTTTTTTTTTTTTTTT NUMDFT      TELAPSE      674.65 TCPU      638.29
 CYC   5 ETOT(AU) -6.365630987673E+03 DETOT -1.63E-01 tst  1.06E-03 PX  1.11E-01
 TTTTTTTTTTTTTTTTTTTTTTTTTTTTTT DIIS        TELAPSE      674.81 TCPU      638.45
 DIIS TEST: 0.26549E+00 AT SCF   CYCLE   5 - DIIS ACTIVE - HISTORY:     5 CYCLES
 TTTTTTTTTTTTTTTTTTTTTTTTTTTTTT FDIK        TELAPSE      687.44 TCPU      650.97
 INSULATING STATE
 TOP OF VALENCE BANDS -    BAND    212; K    2; EIG -2.1951699E-01 AU
 TOP OF VALENCE BANDS -    BAND    212; K    1; EIG -2.2012516E-01 AU
 BOTTOM OF VIRTUAL BANDS - BAND    213; K    4; EIG -9.6510578E-02 AU
 INDIRECT ENERGY BAND GAP:   3.3472 eV
 BOTTOM OF VIRTUAL BANDS - BAND    213; K    1; EIG -9.5130724E-02 AU
 TTTTTTTTTTTTTTTTTTTTTTTTTTTTTT PDIG        TELAPSE      688.05 TCPU      651.57
 CHARGE NORMALIZATION FACTOR   1.00000000
 TOTAL ATOMIC CHARGES:
   1.1910374   1.1910374   1.1910374   1.1910374   1.2876638   1.2876638
   1.2876638   1.2876638   8.8801907   8.8801907   8.8801907   8.8801907
   8.8522520   8.8522520   8.8522520   8.8522520   6.0834328   6.0834328
   6.0834328   6.0834328   5.8041086   5.8041086   5.8041086   5.8041086
   6.3376754   6.3376754   6.3376754   6.3376754   5.7636771   5.7636771
   5.7636771   5.7636771   5.9880729   5.9880729   5.9880729   5.9880729
   5.8021102   5.8021102   5.8021102   5.8021102   7.0973852   7.0973852
   7.0973852   7.0973852   7.0246419   7.0246419   7.0246419   7.0246419
   7.1583333   7.1583333   7.1583333   7.1583333   7.0852571   7.0852571
   7.0852571   7.0852571   7.1945902   7.1945902   7.1945902   7.1945902
  28.8841500  28.9141350
 TTTTTTTTTTTTTTTTTTTTTTTTTTTTTT MOQGAD      TELAPSE      688.10 TCPU      651.62
 TTTTTTTTTTTTTTTTTTTTTTTTTTTTTT SHELLXN     TELAPSE      765.91 TCPU      727.08
 TTTTTTTTTTTTTTTTTTTTTTTTTTTTTT MONMO3      TELAPSE      777.85 TCPU      738.99
 NUMERICALLY INTEGRATED DENSITY    424.0000379878
 TTTTTTTTTTTTTTTTTTTTTTTTTTTTTT NUMDFT      TELAPSE      784.71 TCPU      745.84
 CYC   6 ETOT(AU) -6.365663386159E+03 DETOT -3.24E-02 tst  1.77E-04 PX  3.22E-02
 TTTTTTTTTTTTTTTTTTTTTTTTTTTTTT DIIS        TELAPSE      784.90 TCPU      746.02
 DIIS TEST: 0.49266E-01 AT SCF   CYCLE   6 - DIIS ACTIVE - HISTORY:     6 CYCLES
 TTTTTTTTTTTTTTTTTTTTTTTTTTTTTT FDIK        TELAPSE      797.37 TCPU      756.37
 INSULATING STATE
 TOP OF VALENCE BANDS -    BAND    212; K    2; EIG -2.1773295E-01 AU
 TOP OF VALENCE BANDS -    BAND    212; K    1; EIG -2.1828678E-01 AU
 BOTTOM OF VIRTUAL BANDS - BAND    213; K    4; EIG -9.6083035E-02 AU
 INDIRECT ENERGY BAND GAP:   3.3103 eV
 BOTTOM OF VIRTUAL BANDS - BAND    213; K    1; EIG -9.4878282E-02 AU
 TTTTTTTTTTTTTTTTTTTTTTTTTTTTTT PDIG        TELAPSE      797.98 TCPU      756.98
 CHARGE NORMALIZATION FACTOR   1.00000000
 TOTAL ATOMIC CHARGES:
   1.1895406   1.1895406   1.1895406   1.1895406   1.2893437   1.2893437
   1.2893437   1.2893437   8.8717069   8.8717069   8.8717069   8.8717069
   8.8368574   8.8368574   8.8368574   8.8368574   6.1011795   6.1011795
   6.1011795   6.1011795   5.8062520   5.8062520   5.8062520   5.8062520
   6.3438964   6.3438964   6.3438964   6.3438964   5.7534304   5.7534304
   5.7534304   5.7534304   5.9894127   5.9894127   5.9894127   5.9894127
   5.7981754   5.7981754   5.7981754   5.7981754   7.1498327   7.1498327
   7.1498327   7.1498327   7.0653101   7.0653101   7.0653101   7.0653101
   7.1223671   7.1223671   7.1223671   7.1223671   7.0417684   7.0417684
   7.0417684   7.0417684   7.1894999   7.1894999   7.1894999   7.1894999
  28.8904901  28.9152173
 TTTTTTTTTTTTTTTTTTTTTTTTTTTTTT MOQGAD      TELAPSE      798.03 TCPU      757.03
 TTTTTTTTTTTTTTTTTTTTTTTTTTTTTT SHELLXN     TELAPSE      875.78 TCPU      832.41
 TTTTTTTTTTTTTTTTTTTTTTTTTTTTTT MONMO3      TELAPSE      887.85 TCPU      844.45
 NUMERICALLY INTEGRATED DENSITY    424.0000377529
 TTTTTTTTTTTTTTTTTTTTTTTTTTTTTT NUMDFT      TELAPSE      894.73 TCPU      851.32
 CYC   7 ETOT(AU) -6.365668658201E+03 DETOT -5.27E-03 tst  3.84E-05 PX  1.45E-02
[...]
  61 ZN   4     2.8367     5.3607    5 H    0-1 1    6 H   -1-1 0    7 H    0 0 1
                                     8 H    0-1 0
  61 ZN   4     2.9561     5.5863   45 N   -1-1 0   46 N    0-1 1   47 N    0-1 0
                                    48 N    0 0 1
  61 ZN   4     3.1058     5.8690   21 C    0-1 1   22 C   -1-1 0   23 C    0 0 1
                                    24 C    0-1 0
  61 ZN   4     3.3101     6.2551   33 C    0-1 1   34 C   -1-1 0   35 C    0 0 1
                                    36 C    0-1 0
  61 ZN   4     3.5419     6.6933   17 C    0-1 1   18 C   -1-1 0   19 C    0 0 1
                                    20 C    0-1 0

  62 ZN   4     2.0043     3.7876   49 N    1 1 0   50 N    1 1 0   51 N    0 0 0
                                    52 N    0 0 0
  62 ZN   4     2.8837     5.4495   53 N    0 1 0   54 N    1 0 0   55 N    0 0-1
                                    56 N    1 1 1
  62 ZN   4     3.1072     5.8717    1 H    1 1 0    2 H    1 1 0    3 H    0 0 0
                                     4 H    0 0 0
  62 ZN   4     3.1214     5.8985   21 C    1 1 1   22 C    0 0-1   23 C    0 1 0
                                    24 C    1 0 0
  62 ZN   4     3.6878     6.9689   25 C    1 1 1   26 C    0 0-1   27 C    0 1 0
                                    28 C    1 0 0
  62 ZN   4     3.7175     7.0250   17 C    1 1 1   18 C    0 0-1   19 C    0 1 0
                                    20 C    1 0 0


 FINAL OPTIMIZED GEOMETRY - DIMENSIONALITY OF THE SYSTEM      3
 (NON PERIODIC DIRECTION: LATTICE PARAMETER FORMALLY SET TO 500)
 *******************************************************************************
 LATTICE PARAMETERS (ANGSTROMS AND DEGREES) - BOHR = 0.5291772083 ANGSTROM
 PRIMITIVE CELL - CENTRING CODE 6/0 VOLUME=   689.738073 - DENSITY  2.061 g/cm^3
         A              B              C           ALPHA      BETA       GAMMA 
     9.66079572     9.66079572     9.66079572   112.169968 112.169968 104.198922
 *******************************************************************************
 ATOMS IN THE ASYMMETRIC UNIT   17 - ATOMS IN THE UNIT CELL:   62
     ATOM                 X/A                 Y/B                 Z/C    
 *******************************************************************************
      1 T   1 H    -1.274628394191E-01 -2.775164379639E-01  3.035040464841E-01
      2 F   1 H     4.189795155520E-01 -4.309668859032E-01 -3.035040464841E-01
      3 F   1 H     2.775164379639E-01 -4.189795155520E-01  1.500535985448E-01
      4 F   1 H     4.309668859032E-01  1.274628394191E-01 -1.500535985448E-01
      5 T   1 H    -2.662263568582E-01  3.384016458066E-02 -3.671388783438E-01
      6 F   1 H     4.009790429245E-01  1.009125214856E-01  3.671388783438E-01
      7 F   1 H    -3.384016458066E-02 -4.009790429245E-01 -3.000665214388E-01
      8 F   1 H    -1.009125214856E-01  2.662263568582E-01  3.000665214388E-01
      9 T   9 F     1.236783160113E-01 -2.356950363745E-01 -4.204662386064E-01
     10 F   9 F     1.847712022319E-01 -4.558554453823E-01  4.204662386064E-01
     11 F   9 F     2.356950363745E-01 -1.847712022319E-01  3.593733523858E-01
     12 F   9 F     4.558554453823E-01 -1.236783160113E-01 -3.593733523858E-01
     13 T   9 F     1.896229858808E-01 -5.590903267449E-03 -1.097860000460E-01
     14 F   9 F     1.041950967785E-01  2.994089859268E-01  1.097860000460E-01
     15 F   9 F     5.590903267449E-03 -1.041950967785E-01  1.952138891483E-01
     16 F   9 F    -2.994089859268E-01 -1.896229858808E-01 -1.952138891483E-01
     17 T   6 C    -2.132596535142E-01 -1.200133404242E-01  4.470733347451E-01
     18 F   6 C     4.329133248307E-01  3.396670117407E-01 -4.470733347451E-01
     19 F   6 C     1.200133404242E-01 -4.329133248307E-01 -9.324631309001E-02
     20 F   6 C    -3.396670117407E-01  2.132596535142E-01  9.324631309001E-02
     21 T   6 C    -3.391264065953E-01 -1.270937349222E-01  2.986574116098E-01
     22 F   6 C    -4.257511465320E-01  3.622161817949E-01 -2.986574116098E-01
     23 F   6 C     1.270937349222E-01  4.257511465320E-01 -2.120326716731E-01
     24 F   6 C    -3.622161817949E-01  3.391264065953E-01  2.120326716731E-01
     25 T   6 C    -1.105856867700E-01 -1.983691419576E-01  4.302224696195E-01
     26 F   6 C     3.714083884229E-01  4.591918436105E-01 -4.302224696195E-01
     27 F   6 C     1.983691419576E-01 -3.714083884229E-01  8.778345518761E-02
     28 F   6 C    -4.591918436105E-01  1.105856867700E-01 -8.778345518761E-02
     29 T   6 C     4.952075262730E-02 -5.146217284991E-02 -2.546656119034E-01
     30 F   6 C     2.032034390535E-01  3.041863645307E-01  2.546656119034E-01
     31 F   6 C     5.146217284991E-02 -2.032034390535E-01  1.009829254772E-01
     32 F   6 C    -3.041863645307E-01 -4.952075262730E-02 -1.009829254772E-01
     33 T   6 C    -1.828313382306E-01 -2.033099419305E-02 -3.848994609111E-01
     34 F   6 C     3.645684667181E-01  2.020681226806E-01  3.848994609111E-01
     35 F   6 C     2.033099419305E-02 -3.645684667181E-01 -1.625003440375E-01
     36 F   6 C    -2.020681226806E-01  1.828313382306E-01  1.625003440375E-01
     37 T   6 C     2.517708092659E-01  4.373851956131E-01  4.173377592028E-01
     38 F   6 C     2.004743641035E-02 -1.655669499369E-01 -4.173377592028E-01
     39 F   6 C    -4.373851956131E-01 -2.004743641035E-02 -1.856143863472E-01
     40 F   6 C     1.655669499369E-01 -2.517708092659E-01  1.856143863472E-01
     41 T   7 N    -3.753823431099E-01  2.729816835147E-03  3.113300460409E-01
     42 F   7 N    -3.086002292057E-01  3.132876108493E-01 -3.113300460409E-01
     43 F   7 N    -2.729816835147E-03  3.086002292057E-01 -3.781121599450E-01
     44 F   7 N    -3.132876108493E-01  3.753823431099E-01  3.781121599450E-01
     45 T   7 N    -4.961235997252E-01 -4.739783761764E-02  1.446195646821E-01
     46 F   7 N    -1.920174022998E-01  3.592568355927E-01 -1.446195646821E-01
     47 F   7 N     4.739783761764E-02  1.920174022998E-01 -4.487257621075E-01
     48 F   7 N    -3.592568355927E-01  4.961235997252E-01  4.487257621075E-01
     49 T   7 N    -4.331552323868E-01 -2.541637485211E-01  1.290651775157E-01
     50 F   7 N    -3.832289260368E-01  4.377795900976E-01 -1.290651775157E-01
     51 F   7 N     2.541637485211E-01  3.832289260368E-01 -1.789914838657E-01
     52 F   7 N    -4.377795900976E-01  4.331552323868E-01  1.789914838657E-01
     53 T   7 N     4.707871684044E-01 -2.001630430426E-01  3.520677588208E-02
     54 F   7 N    -2.353698189247E-01  4.355803925223E-01 -3.520677588208E-02
     55 F   7 N     2.001630430426E-01  2.353698189247E-01 -3.290497885530E-01
     56 F   7 N    -4.355803925223E-01 -4.707871684044E-01  3.290497885530E-01
     57 T   7 N    -5.097041976735E-02  1.532334988130E-02 -2.383786523206E-01
     58 F   7 N     2.537020022019E-01  1.874082325532E-01  2.383786523206E-01
     59 F   7 N    -1.532334988130E-02 -2.537020022019E-01 -6.629376964865E-02
     60 F   7 N    -1.874082325532E-01  5.097041976735E-02  6.629376964865E-02
     61 T  30 ZN   -2.500000000000E-01  2.500000000000E-01 -5.000000000000E-01
     62 T  30 ZN    5.000000000000E-01 -5.000000000000E-01 -2.542763447969E-19

 TRANSFORMATION MATRIX PRIMITIVE-CRYSTALLOGRAPHIC CELL
  0.0000  1.0000  1.0000  1.0000  0.0000  1.0000  1.0000  1.0000  0.0000

 *******************************************************************************
 CRYSTALLOGRAPHIC CELL (VOLUME=       1379.47614667)
         A              B              C           ALPHA      BETA       GAMMA 
    10.78072579    10.78072579    11.86911112    90.000000  90.000000  90.000000

 COORDINATES IN THE CRYSTALLOGRAPHIC CELL
     ATOM                 X/A                 Y/B                 Z/C    
 *******************************************************************************
      1 T   1 H     7.672522396967E-02  2.267788225144E-01 -3.542416619336E-01
      2 F   1 H    -7.672522396967E-02 -2.267788225144E-01 -3.542416619336E-01
      3 F   1 H     2.267788225144E-01 -7.672522396967E-02  3.542416619336E-01
      4 F   1 H    -2.267788225144E-01  7.672522396967E-02  3.542416619336E-01
      5 T   1 H    -3.353617845248E-02 -3.336026998913E-01  6.737634303314E-02
      6 F   1 H     3.353617845248E-02  3.336026998913E-01  6.737634303314E-02
      7 F   1 H    -3.336026998913E-01  3.353617845248E-02 -6.737634303314E-02
      8 F   1 H     3.336026998913E-01 -3.353617845248E-02 -6.737634303314E-02
      9 T   9 F    -3.899197954961E-01 -3.054644311033E-02  1.542247591216E-01
     10 F   9 F     3.899197954961E-01  3.054644311033E-02  1.542247591216E-01
     11 F   9 F    -3.054644311033E-02  3.899197954961E-01 -1.542247591216E-01
     12 F   9 F     3.054644311033E-02 -3.899197954961E-01 -1.542247591216E-01
     13 T   9 F    -1.524999445971E-01  4.271394455114E-02  1.469090413297E-01
     14 F   9 F     1.524999445971E-01 -4.271394455114E-02  1.469090413297E-01
     15 F   9 F     4.271394455114E-02  1.524999445971E-01 -1.469090413297E-01
     16 F   9 F    -4.271394455114E-02 -1.524999445971E-01 -1.469090413297E-01
     17 T   6 C    -2.298401760824E-01 -3.230864891725E-01  1.098268356582E-01
     18 F   6 C     2.298401760824E-01  3.230864891725E-01  1.098268356582E-01
     19 F   6 C    -3.230864891725E-01  2.298401760824E-01 -1.098268356582E-01
     20 F   6 C     3.230864891725E-01 -2.298401760824E-01 -1.098268356582E-01
     21 T   6 C    -2.446549583585E-01 -4.566876300316E-01  1.175612234363E-01
     22 F   6 C     2.446549583585E-01  4.566876300316E-01  1.175612234363E-01
     23 F   6 C    -4.566876300316E-01  2.446549583585E-01 -1.175612234363E-01
     24 F   6 C     4.566876300316E-01 -2.446549583585E-01 -1.175612234363E-01
     25 T   6 C    -3.287804927840E-01 -2.409970375964E-01  1.304113508265E-01
     26 F   6 C     3.287804927840E-01  2.409970375964E-01  1.304113508265E-01
     27 F   6 C    -2.409970375964E-01  3.287804927840E-01 -1.304113508265E-01
     28 F   6 C     2.409970375964E-01 -3.287804927840E-01 -1.304113508265E-01
     29 T   6 C    -1.778242686903E-01 -7.684134321310E-02  1.263620958404E-01
     30 F   6 C     1.778242686903E-01  7.684134321310E-02  1.263620958404E-01
     31 F   6 C    -7.684134321310E-02  1.778242686903E-01 -1.263620958404E-01
     32 F   6 C     7.684134321310E-02 -1.778242686903E-01 -1.263620958404E-01
     33 T   6 C    -1.111995584368E-01 -2.736999024743E-01  9.086856424376E-02
     34 F   6 C     1.111995584368E-01  2.736999024743E-01  9.086856424376E-02
     35 F   6 C    -2.736999024743E-01  1.111995584368E-01 -9.086856424376E-02
     36 F   6 C     2.736999024743E-01 -1.111995584368E-01 -9.086856424376E-02
     37 T   6 C     3.014760727750E-01  1.158616864278E-01  1.359091228381E-01
     38 F   6 C    -3.014760727750E-01 -1.158616864278E-01  1.359091228381E-01
     39 F   6 C     1.158616864278E-01 -3.014760727750E-01 -1.359091228381E-01
     40 F   6 C    -1.158616864278E-01  3.014760727750E-01 -1.359091228381E-01
     41 T   7 N    -1.552788970071E-01  4.666089430479E-01  1.580087138422E-01
     42 F   7 N     1.552788970071E-01 -4.666089430479E-01  1.580087138422E-01
     43 F   7 N     4.666089430479E-01  1.552788970071E-01 -1.580087138422E-01
     44 F   7 N    -4.666089430479E-01 -1.552788970071E-01 -1.580087138422E-01
     45 T   7 N    -2.033273366052E-01  3.479469012873E-01  1.559294989875E-01
     46 F   7 N     2.033273366052E-01 -3.479469012873E-01  1.559294989875E-01
     47 F   7 N     3.479469012873E-01  2.033273366052E-01 -1.559294989875E-01
     48 F   7 N    -3.479469012873E-01 -2.033273366052E-01 -1.559294989875E-01
     49 T   7 N     1.540283306907E-01 -2.496315317501E-02 -4.081920792118E-01
     50 F   7 N    -1.540283306907E-01  2.496315317501E-02 -4.081920792118E-01
     51 F   7 N    -2.496315317501E-02 -1.540283306907E-01  4.081920792118E-01
     52 F   7 N     2.496315317501E-02  1.540283306907E-01  4.081920792118E-01
     53 T   7 N    -3.178717177825E-01  3.530784936645E-01  1.177086747398E-01
     54 F   7 N     3.178717177825E-01 -3.530784936645E-01  1.177086747398E-01
     55 F   7 N     3.530784936645E-01  3.178717177825E-01 -1.177086747398E-01
     56 F   7 N    -3.530784936645E-01 -3.178717177825E-01 -1.177086747398E-01
     57 T   7 N    -8.604244133597E-02 -1.523362109846E-01  1.013657912173E-01
     58 F   7 N     8.604244133597E-02  1.523362109846E-01  1.013657912173E-01
     59 F   7 N    -1.523362109846E-01  8.604244133597E-02 -1.013657912173E-01
     60 F   7 N     1.523362109846E-01 -8.604244133597E-02 -1.013657912173E-01
     61 T  30 ZN    4.626932236752E-17  5.000000000000E-01  2.500000000000E-01
     62 T  30 ZN    0.000000000000E+00 -2.542763447969E-19 -5.000000000000E-01

 T = ATOM BELONGING TO THE ASYMMETRIC UNIT
 INFORMATION **** fort.34 **** GEOMETRY OUTPUT FILE

 DIRECT LATTICE VECTORS CARTESIAN COMPONENTS (ANGSTROM)
          X                    Y                    Z
  -0.539036289328E+01   0.539036289328E+01   0.593455556169E+01
   0.539036289328E+01  -0.539036289328E+01   0.593455556169E+01
   0.539036289328E+01   0.539036289328E+01  -0.593455556169E+01


 CARTESIAN COORDINATES - PRIMITIVE CELL
 *******************************************************************************
 *      ATOM          X(ANGSTROM)         Y(ANGSTROM)         Z(ANGSTROM)
 *******************************************************************************
    1     1 H     8.271536005289E-01  2.444840299726E+00 -4.204533650017E+00
    2     1 H    -8.271536005289E-01 -2.444840299726E+00 -4.204533650017E+00
    3     1 H     2.444840299726E+00 -8.271536005289E-01  4.204533650017E+00
    4     1 H    -2.444840299726E+00  8.271536005289E-01  4.204533650017E+00
    5     1 H    -3.615443438251E-01 -3.596479229182E+00  7.996973025467E-01
    6     1 H     3.615443438251E-01  3.596479229182E+00  7.996973025467E-01
    7     1 H    -3.596479229182E+00  3.615443438251E-01 -7.996973025467E-01
    8     1 H     3.596479229182E+00 -3.615443438251E-01 -7.996973025467E-01
    9     9 F    -4.203618393992E+00 -3.293128269270E-01  1.830510803989E+00
   10     9 F     4.203618393992E+00  3.293128269270E-01  1.830510803989E+00
   11     9 F    -3.293128269270E-01  4.203618393992E+00 -1.830510803989E+00
   12     9 F     3.293128269270E-01 -4.203618393992E+00 -1.830510803989E+00
   13     9 F    -1.644060085166E+00  4.604873234679E-01  1.743679736570E+00
   14     9 F     1.644060085166E+00 -4.604873234679E-01  1.743679736570E+00
   15     9 F     4.604873234679E-01  1.644060085166E+00 -1.743679736570E+00
   16     9 F    -4.604873234679E-01 -1.644060085166E+00 -1.743679736570E+00
   17     6 C    -2.477843913078E+00 -3.483106845108E+00  1.303546916756E+00
   18     6 C     2.477843913078E+00  3.483106845108E+00  1.303546916756E+00
   19     6 C    -3.483106845108E+00  2.477843913078E+00 -1.303546916756E+00
   20     6 C     3.483106845108E+00 -2.477843913078E+00 -1.303546916756E+00
   21     6 C    -2.637558018384E+00 -4.923424109482E+00  1.395347224765E+00
   22     6 C     2.637558018384E+00  4.923424109482E+00  1.395347224765E+00
   23     6 C    -4.923424109482E+00  2.637558018384E+00 -1.395347224765E+00
   24     6 C     4.923424109482E+00 -2.637558018384E+00 -1.395347224765E+00
   25     6 C    -3.544492336672E+00 -2.598122977699E+00  1.547866814708E+00
   26     6 C     3.544492336672E+00  2.598122977699E+00  1.547866814708E+00
   27     6 C    -2.598122977699E+00  3.544492336672E+00 -1.547866814708E+00
   28     6 C     2.598122977699E+00 -3.544492336672E+00 -1.547866814708E+00
   29     6 C    -1.917074678945E+00 -8.284054502508E-01  1.499805757312E+00
   30     6 C     1.917074678945E+00  8.284054502508E-01  1.499805757312E+00
   31     6 C    -8.284054502508E-01  1.917074678945E+00 -1.499805757312E+00
   32     6 C     8.284054502508E-01 -1.917074678945E+00 -1.499805757312E+00
   33     6 C    -1.198811947093E+00 -2.950683596382E+00  1.078529086630E+00
   34     6 C     1.198811947093E+00  2.950683596382E+00  1.078529086630E+00
   35     6 C    -2.950683596382E+00  1.198811947093E+00 -1.078529086630E+00
   36     6 C     2.950683596382E+00 -1.198811947093E+00 -1.078529086630E+00
   37     6 C     3.250130871794E+00  1.249073070545E+00  1.613120481645E+00
   38     6 C    -3.250130871794E+00 -1.249073070545E+00  1.613120481645E+00
   39     6 C     1.249073070545E+00 -3.250130871794E+00 -1.613120481645E+00
   40     6 C    -1.249073070545E+00  3.250130871794E+00 -1.613120481645E+00
   41     7 N    -1.674019209072E+00  5.030383064553E+00  1.875422983054E+00
   42     7 N     1.674019209072E+00 -5.030383064553E+00  1.875422983054E+00
   43     7 N     5.030383064553E+00  1.674019209072E+00 -1.875422983054E+00
   44     7 N    -5.030383064553E+00 -1.674019209072E+00 -1.875422983054E+00
   45     7 N    -2.192016260851E+00  3.751120131059E+00  1.850744550895E+00
   46     7 N     2.192016260851E+00 -3.751120131059E+00  1.850744550895E+00
   47     7 N     3.751120131059E+00  2.192016260851E+00 -1.850744550895E+00
   48     7 N    -3.751120131059E+00 -2.192016260851E+00 -1.850744550895E+00
   49     7 N     1.660537196537E+00 -2.691209091475E-01 -4.844877147844E+00
   50     7 N    -1.660537196537E+00  2.691209091475E-01 -4.844877147844E+00
   51     7 N    -2.691209091475E-01 -1.660537196537E+00  4.844877147844E+00
   52     7 N     2.691209091475E-01  1.660537196537E+00  4.844877147844E+00
   53     7 N    -3.426887824713E+00  3.806442421327E+00  1.397097340672E+00
   54     7 N     3.426887824713E+00 -3.806442421327E+00  1.397097340672E+00
   55     7 N     3.806442421327E+00  3.426887824713E+00 -1.397097340672E+00
   56     7 N    -3.806442421327E+00 -3.426887824713E+00 -1.397097340672E+00
   57     7 N    -9.275999660486E-01 -1.642294917988E+00  1.203121840066E+00
   58     7 N     9.275999660486E-01  1.642294917988E+00  1.203121840066E+00
   59     7 N    -1.642294917988E+00  9.275999660486E-01 -1.203121840066E+00
   60     7 N     1.642294917988E+00 -9.275999660486E-01 -1.203121840066E+00
   61    30 ZN    4.988168767738E-16  5.390362893276E+00 -8.901833342528E+00
   62    30 ZN    0.000000000000E+00 -2.741283547263E-18  5.934555561685E+00

 ****    4 SYMMOPS - TRANSLATORS IN FRACTIONAL UNITS
 **** MATRICES AND TRANSLATORS IN THE CRYSTALLOGRAPHIC REFERENCE FRAME
   V INV                    ROTATION MATRICES                   TRANSLATORS
   1   1  1.00  0.00  0.00  0.00  1.00  0.00  0.00  0.00  1.00  0.00  0.00  0.00
   2   2 -0.00  1.00 -1.00  1.00  0.00 -1.00 -0.00  0.00 -1.00  0.00  0.00  0.00
   3   4  0.00 -1.00 -0.00  0.00 -1.00  1.00  1.00 -1.00  0.00  0.00  0.00  0.00
   4   3 -1.00  0.00  1.00 -1.00  0.00 -0.00 -1.00  1.00 -0.00  0.00  0.00  0.00
 TTTTTTTTTTTTTTTTTTTTTTTTTTTTTT END         TELAPSE    67713.30 TCPU    65558.33
 EEEEEEEEEE TERMINATION  DATE 19 11 2023 TIME 04:13:38.7
NODE    0 CPU TIME =     65558.335
NODE    1 CPU TIME =     65917.736
NODE    2 CPU TIME =     66143.616
NODE    3 CPU TIME =     65827.842
NODE    4 CPU TIME =     66155.955
NODE    5 CPU TIME =     65934.081
NODE    6 CPU TIME =     66231.320
NODE    7 CPU TIME =     65892.859
NODE    8 CPU TIME =     65915.055
NODE    9 CPU TIME =     65954.754
NODE   10 CPU TIME =     66046.503
NODE   11 CPU TIME =     65733.241
NODE   12 CPU TIME =     65857.274
NODE   13 CPU TIME =     65743.708
NODE   14 CPU TIME =     65925.324
NODE   15 CPU TIME =     65647.710
NODE   16 CPU TIME =     65720.923
NODE   17 CPU TIME =     65675.455
NODE   18 CPU TIME =     65818.080
NODE   19 CPU TIME =     65678.747
NODE   20 CPU TIME =     65630.142
NODE   21 CPU TIME =     65595.918
NODE   22 CPU TIME =     65757.457
NODE   23 CPU TIME =     65650.589
    TOTAL CPU TIME =   1580012.623
trying normal rsh (/usr/bin/rsh)
exec: No such file or directory
trying normal rsh (/usr/bin/rsh)
exec: No such file or directory
trying normal rsh (/usr/bin/rsh)
exec: No such file or directory
trying normal rsh (/usr/bin/rsh)
exec: No such file or directory
