Loading crystal17/1.0.2/intel/19.0
  Loading requirement: intel/19.0 ompi/4.0.1/intel/19.0
 PROCESS            1  OF           24  WORKING
 PROCESS            2  OF           24  WORKING
 PROCESS            3  OF           24  WORKING
 PROCESS            4  OF           24  WORKING
 PROCESS            5  OF           24  WORKING
 PROCESS            7  OF           24  WORKING
 PROCESS            8  OF           24  WORKING
 PROCESS            9  OF           24  WORKING
 PROCESS           10  OF           24  WORKING
 PROCESS           11  OF           24  WORKING
 PROCESS           12  OF           24  WORKING
 PROCESS           13  OF           24  WORKING
 PROCESS           14  OF           24  WORKING
 PROCESS           15  OF           24  WORKING
 PROCESS           16  OF           24  WORKING
 PROCESS           18  OF           24  WORKING
 PROCESS           19  OF           24  WORKING
 PROCESS           20  OF           24  WORKING
 PROCESS           21  OF           24  WORKING
 PROCESS           22  OF           24  WORKING
 PROCESS           23  OF           24  WORKING
 PROCESS            0  OF           24  WORKING
 PROCESS            6  OF           24  WORKING
 PROCESS           17  OF           24  WORKING

         
 *******************************************************************************
 *                                                                             *
 *                               CRYSTAL17                                     *
 *                      public : 1.0.2 - March 1st, 2018                       *
 *                       HTTP://WWW.CRYSTAL.UNITO.IT                           *
 *                                                                             *
 *                              MAIN AUTHORS                                   *
 *                                                                             *
 *  R. DOVESI(1,11), V.R. SAUNDERS(2), C. ROETTI(1,11), R. ORLANDO(1,11),      *
 *  C.M. ZICOVICH-WILSON(1,3), F. PASCALE(4), B. CIVALLERI(1,11),              *
 *  K. DOLL(5), N.M. HARRISON(2,6), I.J. BUSH(7), Ph. D'ARCO(8),               *
 *  M. LLUNELL(9), M. CAUSA'(10), Y. NOEL(8), L. MASCHIO(1,11), A. ERBA(1,11)  *
 *  M. RE'RAT(14), S. CASASSA(1,11)                                            *
 *                                                                             *
 *        CONTRIBUTIONS TO THE CODE HAVE ALSO BEEN GIVEN BY                    *
 *                                                                             *
 *  M. FERRABONE(1,11), M. DE LA PIERRE(1,11), M. FERRERO(1,11),               *
 *  J. BAIMA(1,11), E. ALBANESE(1,11), M.F. PEINTINGER(12), R. BAST(13),       *
 *  B. KIRTMAN(15), V. LACIVITA(1,11), R. DEMICHELIS(1,16)                     *
 *  G. BRANDEBURG(17), S. SALUSTRO(1,11), G. SANSONE(1,11)                     *
 *  M.T. RUGGIERO(18)                                                          *
 *                                                                             *
 * (1) THEORETICAL CHEMISTRY GROUP - UNIVERSITA' DI TORINO - TORINO (ITALY)    *
 * (2) COMPUTATIONAL SCIENCE & ENGINEERING DEPARTMENT - STFC DARESBURY (UK)    *
 * (3) UNIVERSIDAD AUTONOMA DEL ESTADO DE MORELOS - CUERNAVACA (MEXICO)        *
 * (4) UNIVERSITE' DE LORRAINE - NANCY (FRANCE)                                *
 * (5) UNIVERSITAET STUTTGART- STUTTGART (GERMANY)                             *
 * (6) IMPERIAL COLLEGE - LONDON (UK)                                          *
 * (7) OXFORD E-RESEARCH CENTRE - OXFORD (UK)                                  *
 * (8) UPMC - SORBONNE UNIVERSITES - PARIS (FRANCE)                            *
 * (9) UNIVERSIDAD DE BARCELONA - BARCELONA (SPAIN)                            *
 *(10) UNIVERSITA' DI NAPOLI "FEDERICO II" - NAPOLI (ITALY)                    *
 *(11) NIS - NANOSTRUCTURED INTERFACES AND SURFACES - TORINO (ITALY)           *
 *(12) MPI FUER CHEMISCHE ENERGIEKONVERSION - MUELHEIM AN DER RUHR (GERMANY)   *
 *(13) UNIVERSITY OF TROMSO - TROMSO (NORWAY)                                  *
 *(14) UNIVERSITE' DE PAU ET DES PAYS DE L'ADOUR - PAU (FRANCE)                *
 *(15) UNIVERSITY OF CALIFORNIA SANTA BARBARA - SANTA BARBARA (USA)            *
 *(16) CURTIN UNIVERSITY - PERTH (AUSTRALIA)                                   *
 *(17) UNIVERSITY COLLEGE LONDON - LONDON (UK)                                 *
 *(18) CAMBRIDGE UNIVERSITY - CAMBRIDGE (UK)                                   *
 *                                                                             *
 *******************************************************************************
 EEEEEEEEEE STARTING  DATE 18 11 2023 TIME 09:50:58.6
 C:\Users\wilso\AppData\Local\Temp\tmp_p\newconn.mol                             

 CRYSTAL CALCULATION
 (INPUT ACCORDING TO THE INTERNATIONAL TABLES FOR X-RAY CRYSTALLOGRAPHY)
 CRYSTAL FAMILY                       :  TETRAGONAL  
 CRYSTAL CLASS  (GROTH - 1921)        :  TETRAGONAL DISPHENOIDAL              

 SPACE GROUP (NONCENTROSYMMETRIC)     :  I -4            

 LATTICE PARAMETERS  (ANGSTROMS AND DEGREES) - CONVENTIONAL CELL
        A           B           C        ALPHA        BETA       GAMMA
    10.15800    10.15800    13.29400    90.00000    90.00000    90.00000


 NUMBER OF IRREDUCIBLE ATOMS IN THE CONVENTIONAL CELL:  124

 INPUT COORDINATES

 ATOM AT. N.              COORDINATES
   1   9     5.576100000000E-01  7.373700000000E-01  1.366700000000E-01
   2   9     4.423900000000E-01  2.626300000000E-01  1.366700000000E-01
   3   9     7.373700000000E-01  4.423900000000E-01  8.633300000000E-01
   4   9     2.626300000000E-01  5.576100000000E-01  8.633300000000E-01
   5   9     5.761000000000E-02  2.373700000000E-01  6.366700000000E-01
   6   9     9.423900000000E-01  7.626300000000E-01  6.366700000000E-01
   7   9     2.373700000000E-01  9.423900000000E-01  3.633300000000E-01
   8   9     7.626300000000E-01  5.761000000000E-02  3.633300000000E-01
   9   9     9.759200000000E-01  6.751900000000E-01  9.083000000000E-02
  10   9     2.408000000000E-02  3.248100000000E-01  9.083000000000E-02
  11   9     6.751900000000E-01  2.408000000000E-02  9.091700000000E-01
  12   9     3.248100000000E-01  9.759200000000E-01  9.091700000000E-01
  13   9     4.759200000000E-01  1.751900000000E-01  5.908300000000E-01
  14   9     5.240800000000E-01  8.248100000000E-01  5.908300000000E-01
  15   9     1.751900000000E-01  5.240800000000E-01  4.091700000000E-01
  16   9     8.248100000000E-01  4.759200000000E-01  4.091700000000E-01
  17   9     6.058200000000E-01  9.805800000000E-01  1.369900000000E-01
  18   9     3.941800000000E-01  1.942000000000E-02  1.369900000000E-01
  19   9     9.805800000000E-01  3.941800000000E-01  8.630100000000E-01
  20   9     1.942000000000E-02  6.058200000000E-01  8.630100000000E-01
  21   9     1.058200000000E-01  4.805800000000E-01  6.369900000000E-01
  22   9     8.941800000000E-01  5.194200000000E-01  6.369900000000E-01
  23   9     4.805800000000E-01  8.941800000000E-01  3.630100000000E-01
  24   9     5.194200000000E-01  1.058200000000E-01  3.630100000000E-01
  25   1     8.420800000000E-01  5.709000000000E-02  1.240200000000E-01
  26   1     1.579200000000E-01  9.429100000000E-01  1.240200000000E-01
  27   1     5.709000000000E-02  1.579200000000E-01  8.759800000000E-01
  28   1     9.429100000000E-01  8.420800000000E-01  8.759800000000E-01
  29   1     3.420800000000E-01  5.570900000000E-01  6.240200000000E-01
  30   1     6.579200000000E-01  4.429100000000E-01  6.240200000000E-01
  31   1     5.570900000000E-01  6.579200000000E-01  3.759800000000E-01
  32   1     4.429100000000E-01  3.420800000000E-01  3.759800000000E-01
  33   6     2.646500000000E-01  1.859800000000E-01  6.165500000000E-01
  34   6     7.353500000000E-01  8.140200000000E-01  6.165500000000E-01
  35   6     1.859800000000E-01  7.353500000000E-01  3.834500000000E-01
  36   6     8.140200000000E-01  2.646500000000E-01  3.834500000000E-01
  37   6     7.646500000000E-01  6.859800000000E-01  1.165500000000E-01
  38   6     2.353500000000E-01  3.140200000000E-01  1.165500000000E-01
  39   6     6.859800000000E-01  2.353500000000E-01  8.834500000000E-01
  40   6     3.140200000000E-01  7.646500000000E-01  8.834500000000E-01
  41   6     2.514000000000E-01  4.317000000000E-02  6.230000000000E-01
  42   6     7.486000000000E-01  9.568300000000E-01  6.230000000000E-01
  43   6     4.317000000000E-02  7.486000000000E-01  3.770000000000E-01
  44   6     9.568300000000E-01  2.514000000000E-01  3.770000000000E-01
  45   6     7.514000000000E-01  5.431700000000E-01  1.230000000000E-01
  46   6     2.486000000000E-01  4.568300000000E-01  1.230000000000E-01
  47   6     5.431700000000E-01  2.486000000000E-01  8.770000000000E-01
  48   6     4.568300000000E-01  7.514000000000E-01  8.770000000000E-01
  49   6     6.583700000000E-01  7.736700000000E-01  1.273400000000E-01
  50   6     3.416300000000E-01  2.263300000000E-01  1.273400000000E-01
  51   6     7.736700000000E-01  3.416300000000E-01  8.726600000000E-01
  52   6     2.263300000000E-01  6.583700000000E-01  8.726600000000E-01
  53   6     1.583700000000E-01  2.736700000000E-01  6.273400000000E-01
  54   6     8.416300000000E-01  7.263300000000E-01  6.273400000000E-01
  55   6     2.736700000000E-01  8.416300000000E-01  3.726600000000E-01
  56   6     7.263300000000E-01  1.583700000000E-01  3.726600000000E-01
  57   6     8.156900000000E-01  9.525900000000E-01  1.204300000000E-01
  58   6     1.843100000000E-01  4.741000000000E-02  1.204300000000E-01
  59   6     9.525900000000E-01  1.843100000000E-01  8.795700000000E-01
  60   6     4.741000000000E-02  8.156900000000E-01  8.795700000000E-01
  61   6     3.156900000000E-01  4.525900000000E-01  6.204300000000E-01
  62   6     6.843100000000E-01  5.474100000000E-01  6.204300000000E-01
  63   6     4.525900000000E-01  6.843100000000E-01  3.795700000000E-01
  64   6     5.474100000000E-01  3.156900000000E-01  3.795700000000E-01
  65   6     3.914300000000E-01  2.396500000000E-01  6.044300000000E-01
  66   6     6.085700000000E-01  7.603500000000E-01  6.044300000000E-01
  67   6     2.396500000000E-01  6.085700000000E-01  3.955700000000E-01
  68   6     7.603500000000E-01  3.914300000000E-01  3.955700000000E-01
  69   6     8.914300000000E-01  7.396500000000E-01  1.044300000000E-01
  70   6     1.085700000000E-01  2.603500000000E-01  1.044300000000E-01
  71   6     7.396500000000E-01  1.085700000000E-01  8.955700000000E-01
  72   6     2.603500000000E-01  8.914300000000E-01  8.955700000000E-01
  73   6     3.150000000000E-01  9.141000000000E-02  1.282200000000E-01
  74   6     6.850000000000E-01  9.085900000000E-01  1.282200000000E-01
  75   6     9.141000000000E-02  6.850000000000E-01  8.717800000000E-01
  76   6     9.085900000000E-01  3.150000000000E-01  8.717800000000E-01
  77   6     8.150000000000E-01  5.914100000000E-01  6.282200000000E-01
  78   6     1.850000000000E-01  4.085900000000E-01  6.282200000000E-01
  79   6     5.914100000000E-01  1.850000000000E-01  3.717800000000E-01
  80   6     4.085900000000E-01  8.150000000000E-01  3.717800000000E-01
  81   7     8.407700000000E-01  4.628300000000E-01  1.672900000000E-01
  82   7     1.592300000000E-01  5.371700000000E-01  1.672900000000E-01
  83   7     4.628300000000E-01  1.592300000000E-01  8.327100000000E-01
  84   7     5.371700000000E-01  8.407700000000E-01  8.327100000000E-01
  85   7     3.407700000000E-01  9.628300000000E-01  6.672900000000E-01
  86   7     6.592300000000E-01  3.717000000000E-02  6.672900000000E-01
  87   7     9.628300000000E-01  6.592300000000E-01  3.327100000000E-01
  88   7     3.717000000000E-02  3.407700000000E-01  3.327100000000E-01
  89   7     2.940400000000E-01  8.358500000000E-01  6.597700000000E-01
  90   7     7.059600000000E-01  1.641500000000E-01  6.597700000000E-01
  91   7     8.358500000000E-01  7.059600000000E-01  3.402300000000E-01
  92   7     1.641500000000E-01  2.940400000000E-01  3.402300000000E-01
  93   7     7.940400000000E-01  3.358500000000E-01  1.597700000000E-01
  94   7     2.059600000000E-01  6.641500000000E-01  1.597700000000E-01
  95   7     3.358500000000E-01  2.059600000000E-01  8.402300000000E-01
  96   7     6.641500000000E-01  7.940400000000E-01  8.402300000000E-01
  97   7     1.518600000000E-01  9.677900000000E-01  5.884000000000E-01
  98   7     8.481400000000E-01  3.221000000000E-02  5.884000000000E-01
  99   7     9.677900000000E-01  8.481400000000E-01  4.116000000000E-01
 100   7     3.221000000000E-02  1.518600000000E-01  4.116000000000E-01
 101   7     6.518600000000E-01  4.677900000000E-01  8.840000000000E-02
 102   7     3.481400000000E-01  5.322100000000E-01  8.840000000000E-02
 103   7     4.677900000000E-01  3.481400000000E-01  9.116000000000E-01
 104   7     5.322100000000E-01  6.518600000000E-01  9.116000000000E-01
 105   7     1.800200000000E-01  8.388700000000E-01  6.128200000000E-01
 106   7     8.199800000000E-01  1.611300000000E-01  6.128200000000E-01
 107   7     8.388700000000E-01  8.199800000000E-01  3.871800000000E-01
 108   7     1.611300000000E-01  1.800200000000E-01  3.871800000000E-01
 109   7     6.800200000000E-01  3.388700000000E-01  1.128200000000E-01
 110   7     3.199800000000E-01  6.611300000000E-01  1.128200000000E-01
 111   7     3.388700000000E-01  3.199800000000E-01  8.871800000000E-01
 112   7     6.611300000000E-01  6.800200000000E-01  8.871800000000E-01
 113   7     9.174200000000E-01  8.687700000000E-01  1.079100000000E-01
 114   7     8.258000000000E-02  1.312300000000E-01  1.079100000000E-01
 115   7     8.687700000000E-01  8.258000000000E-02  8.920900000000E-01
 116   7     1.312300000000E-01  9.174200000000E-01  8.920900000000E-01
 117   7     4.174200000000E-01  3.687700000000E-01  6.079100000000E-01
 118   7     5.825800000000E-01  6.312300000000E-01  6.079100000000E-01
 119   7     3.687700000000E-01  5.825800000000E-01  3.920900000000E-01
 120   7     6.312300000000E-01  4.174200000000E-01  3.920900000000E-01
 121  30     0.000000000000E+00  5.000000000000E-01  2.500000000000E-01
 122  30     5.000000000000E-01  0.000000000000E+00  7.500000000000E-01
 123  30     0.000000000000E+00  0.000000000000E+00  5.000000000000E-01
 124  30     5.000000000000E-01  5.000000000000E-01  0.000000000000E+00

 *******************************************************************************

 << INFORMATION >>: FROM NOW ON, ALL COORDINATES REFER TO THE PRIMITIVE CELL

 *******************************************************************************

 LATTICE PARAMETERS  (ANGSTROMS AND DEGREES) - PRIMITIVE CELL
       A          B          C        ALPHA      BETA     GAMMA        VOLUME
    9.78647    9.78647    9.78647   117.47208 117.47208  94.43726    685.870456

 INPUT LIST - ATOM N.   2 NOT IRREDUCIBLE

 INPUT LIST - ATOM N.   3 NOT IRREDUCIBLE

 INPUT LIST - ATOM N.   4 NOT IRREDUCIBLE

 INPUT LIST - ATOM N.   1 NOT IRREDUCIBLE

 INPUT LIST - ATOM N.   2 NOT IRREDUCIBLE

 INPUT LIST - ATOM N.   3 NOT IRREDUCIBLE

 INPUT LIST - ATOM N.   4 NOT IRREDUCIBLE

 INPUT LIST - ATOM N.   6 NOT IRREDUCIBLE

 INPUT LIST - ATOM N.   7 NOT IRREDUCIBLE

 INPUT LIST - ATOM N.   8 NOT IRREDUCIBLE

 INPUT LIST - ATOM N.   5 NOT IRREDUCIBLE

 INPUT LIST - ATOM N.   6 NOT IRREDUCIBLE

 INPUT LIST - ATOM N.   7 NOT IRREDUCIBLE

 INPUT LIST - ATOM N.   8 NOT IRREDUCIBLE

 INPUT LIST - ATOM N.  10 NOT IRREDUCIBLE

 INPUT LIST - ATOM N.  11 NOT IRREDUCIBLE

 INPUT LIST - ATOM N.  12 NOT IRREDUCIBLE

 INPUT LIST - ATOM N.   9 NOT IRREDUCIBLE

 INPUT LIST - ATOM N.  10 NOT IRREDUCIBLE

 INPUT LIST - ATOM N.  11 NOT IRREDUCIBLE

 INPUT LIST - ATOM N.  12 NOT IRREDUCIBLE

 INPUT LIST - ATOM N.  14 NOT IRREDUCIBLE

 INPUT LIST - ATOM N.  15 NOT IRREDUCIBLE

 INPUT LIST - ATOM N.  16 NOT IRREDUCIBLE

 INPUT LIST - ATOM N.  13 NOT IRREDUCIBLE

 INPUT LIST - ATOM N.  14 NOT IRREDUCIBLE

 INPUT LIST - ATOM N.  15 NOT IRREDUCIBLE

 INPUT LIST - ATOM N.  16 NOT IRREDUCIBLE

 INPUT LIST - ATOM N.  18 NOT IRREDUCIBLE

 INPUT LIST - ATOM N.  19 NOT IRREDUCIBLE

 INPUT LIST - ATOM N.  20 NOT IRREDUCIBLE

 INPUT LIST - ATOM N.  17 NOT IRREDUCIBLE

 INPUT LIST - ATOM N.  18 NOT IRREDUCIBLE

 INPUT LIST - ATOM N.  19 NOT IRREDUCIBLE

 INPUT LIST - ATOM N.  20 NOT IRREDUCIBLE

 INPUT LIST - ATOM N.  22 NOT IRREDUCIBLE

 INPUT LIST - ATOM N.  23 NOT IRREDUCIBLE

 INPUT LIST - ATOM N.  24 NOT IRREDUCIBLE

 INPUT LIST - ATOM N.  21 NOT IRREDUCIBLE

 INPUT LIST - ATOM N.  22 NOT IRREDUCIBLE

 INPUT LIST - ATOM N.  23 NOT IRREDUCIBLE

 INPUT LIST - ATOM N.  24 NOT IRREDUCIBLE

 INPUT LIST - ATOM N.  26 NOT IRREDUCIBLE

 INPUT LIST - ATOM N.  27 NOT IRREDUCIBLE

 INPUT LIST - ATOM N.  28 NOT IRREDUCIBLE

 INPUT LIST - ATOM N.  25 NOT IRREDUCIBLE

 INPUT LIST - ATOM N.  26 NOT IRREDUCIBLE

 INPUT LIST - ATOM N.  27 NOT IRREDUCIBLE

 INPUT LIST - ATOM N.  28 NOT IRREDUCIBLE

 INPUT LIST - ATOM N.  30 NOT IRREDUCIBLE

 INPUT LIST - ATOM N.  31 NOT IRREDUCIBLE

 INPUT LIST - ATOM N.  32 NOT IRREDUCIBLE

 INPUT LIST - ATOM N.  29 NOT IRREDUCIBLE

 INPUT LIST - ATOM N.  30 NOT IRREDUCIBLE

 INPUT LIST - ATOM N.  31 NOT IRREDUCIBLE

 INPUT LIST - ATOM N.  32 NOT IRREDUCIBLE

 INPUT LIST - ATOM N.  34 NOT IRREDUCIBLE

 INPUT LIST - ATOM N.  35 NOT IRREDUCIBLE

 INPUT LIST - ATOM N.  36 NOT IRREDUCIBLE

 INPUT LIST - ATOM N.  33 NOT IRREDUCIBLE

 INPUT LIST - ATOM N.  34 NOT IRREDUCIBLE

 INPUT LIST - ATOM N.  35 NOT IRREDUCIBLE

 INPUT LIST - ATOM N.  36 NOT IRREDUCIBLE

 INPUT LIST - ATOM N.  38 NOT IRREDUCIBLE

 INPUT LIST - ATOM N.  39 NOT IRREDUCIBLE

 INPUT LIST - ATOM N.  40 NOT IRREDUCIBLE

 INPUT LIST - ATOM N.  37 NOT IRREDUCIBLE

 INPUT LIST - ATOM N.  38 NOT IRREDUCIBLE

 INPUT LIST - ATOM N.  39 NOT IRREDUCIBLE

 INPUT LIST - ATOM N.  40 NOT IRREDUCIBLE

 INPUT LIST - ATOM N.  42 NOT IRREDUCIBLE

 INPUT LIST - ATOM N.  43 NOT IRREDUCIBLE

 INPUT LIST - ATOM N.  44 NOT IRREDUCIBLE

 INPUT LIST - ATOM N.  41 NOT IRREDUCIBLE

 INPUT LIST - ATOM N.  42 NOT IRREDUCIBLE

 INPUT LIST - ATOM N.  43 NOT IRREDUCIBLE

 INPUT LIST - ATOM N.  44 NOT IRREDUCIBLE

 INPUT LIST - ATOM N.  46 NOT IRREDUCIBLE

 INPUT LIST - ATOM N.  47 NOT IRREDUCIBLE

 INPUT LIST - ATOM N.  48 NOT IRREDUCIBLE

 INPUT LIST - ATOM N.  45 NOT IRREDUCIBLE

 INPUT LIST - ATOM N.  46 NOT IRREDUCIBLE

 INPUT LIST - ATOM N.  47 NOT IRREDUCIBLE

 INPUT LIST - ATOM N.  48 NOT IRREDUCIBLE

 INPUT LIST - ATOM N.  50 NOT IRREDUCIBLE

 INPUT LIST - ATOM N.  51 NOT IRREDUCIBLE

 INPUT LIST - ATOM N.  52 NOT IRREDUCIBLE

 INPUT LIST - ATOM N.  49 NOT IRREDUCIBLE

 INPUT LIST - ATOM N.  50 NOT IRREDUCIBLE

 INPUT LIST - ATOM N.  51 NOT IRREDUCIBLE

 INPUT LIST - ATOM N.  52 NOT IRREDUCIBLE

 INPUT LIST - ATOM N.  54 NOT IRREDUCIBLE

 INPUT LIST - ATOM N.  55 NOT IRREDUCIBLE

 INPUT LIST - ATOM N.  56 NOT IRREDUCIBLE

 INPUT LIST - ATOM N.  53 NOT IRREDUCIBLE

 INPUT LIST - ATOM N.  54 NOT IRREDUCIBLE

 INPUT LIST - ATOM N.  55 NOT IRREDUCIBLE

 INPUT LIST - ATOM N.  56 NOT IRREDUCIBLE

 INPUT LIST - ATOM N.  58 NOT IRREDUCIBLE

 INPUT LIST - ATOM N.  59 NOT IRREDUCIBLE

 INPUT LIST - ATOM N.  60 NOT IRREDUCIBLE

 INPUT LIST - ATOM N.  57 NOT IRREDUCIBLE

 INPUT LIST - ATOM N.  58 NOT IRREDUCIBLE

 INPUT LIST - ATOM N.  59 NOT IRREDUCIBLE

 INPUT LIST - ATOM N.  60 NOT IRREDUCIBLE

 INPUT LIST - ATOM N.  61 NOT IRREDUCIBLE

 INPUT LIST - ATOM N.  62 NOT IRREDUCIBLE

 COORDINATES OF THE EQUIVALENT ATOMS (FRACTIONAL UNITS)

 N. ATOM EQUIV AT. N.          X                  Y                  Z

   1   1   1    9 F    -1.25960000000E-01 -3.05720000000E-01  2.94980000000E-01
   2   1   2    9 F     3.99300000000E-01 -4.20940000000E-01 -2.94980000000E-01
   3   1   3    9 F     3.05720000000E-01 -3.99300000000E-01  1.79760000000E-01
   4   1   4    9 F     4.20940000000E-01  1.25960000000E-01 -1.79760000000E-01








   5   9   1    9 F    -2.33980000000E-01  6.67500000000E-02 -3.48890000000E-01
   6   9   2    9 F     4.15640000000E-01  1.14910000000E-01  3.48890000000E-01
   7   9   3    9 F    -6.67500000000E-02 -4.15640000000E-01 -3.00730000000E-01
   8   9   4    9 F    -1.14910000000E-01  2.33980000000E-01  3.00730000000E-01








   9  17   1    9 F     1.17570000000E-01 -2.57190000000E-01 -4.13600000000E-01
  10  17   2    9 F     1.56410000000E-01 -4.68830000000E-01  4.13600000000E-01
  11  17   3    9 F     2.57190000000E-01 -1.56410000000E-01  3.74760000000E-01
  12  17   4    9 F     4.68830000000E-01 -1.17570000000E-01 -3.74760000000E-01

 NUMBER OF SYMMETRY OPERATORS         :    4
 *******************************************************************************
 * GEOMETRY EDITING - INPUT COORDINATES ARE GIVEN IN ANGSTROM         
 *******************************************************************************

 GEOMETRY NOW FULLY CONSISTENT WITH THE GROUP
 *******************************************************************************
 *  GEOMETRY EDITING
 *  THE SYMMETRY OF THE CRYSTAL IS KEPT AND APPLIED TO THE PERTURBATION
 *******************************************************************************
 INFORMATION **** NEW DEFAULT **** FINALRUN 4 FOR GEOMETRY OPTIMIZATIONS
 INFORMATION **** NEW DEFAULT **** OPTGEOM OPTIMIZES BOTH ATOMIC COORDINATES AND CELL PARAMETERS
 INFORMATION **** NEW DEFAULT **** TOL. ON ATOMIC DISP TO REDEFINE REF. GEOMETRY: 0.8 Angs
 INFORMATION **** NEW DEFAULT **** N POINTS TO REDEFINE REF. GEOMETRY: N OF OPT DEGS OF FREEDOM
 INFORMATION **** NEW DEFAULT **** TOL. ON ENERGY TO REDEFINE REF. GEOMETRY: 10**-3*(5*N. ATOMS)

 IMPORTANT INFORMATION:
 THE COORDINATE SYSTEM ADOPTED IN THE OPTIMIZATION IS NOT IN
 GENERAL HOMOGENEOUS UNITS. FOR THIS REASON THE GRADIENT AND 
 HESSIAN MATRIX IN TERMS OF THIS SYSTEM ARE GIVEN WITHOUT
 UNITS. FOR MORE DETAILS SEE THE MANUAL.

 *******************************************************************************
 COMBINED CELL/ATOM OPTIMIZATION CONTROL

 INITIAL TRUST RADIUS         0.50000 MAXIMUM TRUST RADIUS               4.00000
 MAXIMUM GRADIENT COMPONENT   0.00045 MAXIMUM DISPLACEMENT COMPONENT     0.00180
 R.M.S. OF GRADIENT COMPONENT 0.00030 R.M.S. OF DISPLACEMENT COMPONENTS  0.00120
 THRESHOLD ON ENERGY CHANGE 0.100E-06 EXTRAPOLATING POLYNOMIAL ORDER           2
 MAXIMUM ALLOWED NUMBER OF STEPS   -1 SORTING OF ENERGY POINTS:               NO
 ANALYTICAL  GRADIENT                 HESSIAN UPDATING                      BFGS
 STEP SIZE NUMERICAL GRADIENT 0.00100
 INITIAL HESSIAN MATRIX: SCHLEGEL MODEL 2
 *******************************************************************************


 GCALCO - MAX INDICES DIRECT LATTICE VECTOR    14    14    16
 NO.OF VECTORS CREATED 6999 STARS  481 RMAX   197.96270 BOHR

 GEOMETRY FOR WAVE FUNCTION - DIMENSIONALITY OF THE SYSTEM    3
 (NON PERIODIC DIRECTION: LATTICE PARAMETER FORMALLY SET TO 500)
 *******************************************************************************
 LATTICE PARAMETERS (ANGSTROMS AND DEGREES) - BOHR = 0.5291772083 ANGSTROM
 PRIMITIVE CELL - CENTRING CODE 6/0 VOLUME=   685.870456 - DENSITY  2.247 g/cm^3
         A              B              C           ALPHA      BETA       GAMMA 
     9.78647490     9.78647490     9.78647490   117.472078 117.472078  94.437262
 *******************************************************************************
 ATOMS IN THE ASYMMETRIC UNIT   17 - ATOMS IN THE UNIT CELL:   62
     ATOM                 X/A                 Y/B                 Z/C    
 *******************************************************************************
      1 T   9 F    -1.259600000000E-01 -3.057200000000E-01  2.949800000000E-01
      2 F   9 F     3.993000000000E-01 -4.209400000000E-01 -2.949800000000E-01
      3 F   9 F     3.057200000000E-01 -3.993000000000E-01  1.797600000000E-01
      4 F   9 F     4.209400000000E-01  1.259600000000E-01 -1.797600000000E-01
      5 T   9 F    -2.339800000000E-01  6.675000000000E-02 -3.488900000000E-01
      6 F   9 F     4.156400000000E-01  1.149100000000E-01  3.488900000000E-01
      7 F   9 F    -6.675000000000E-02 -4.156400000000E-01 -3.007300000000E-01
      8 F   9 F    -1.149100000000E-01  2.339800000000E-01  3.007300000000E-01
      9 T   9 F     1.175700000000E-01 -2.571900000000E-01 -4.136000000000E-01
     10 F   9 F     1.564100000000E-01 -4.688300000000E-01  4.136000000000E-01
     11 F   9 F     2.571900000000E-01 -1.564100000000E-01  3.747600000000E-01
     12 F   9 F     4.688300000000E-01 -1.175700000000E-01 -3.747600000000E-01
     13 T   1 H     1.811100000000E-01 -3.390000000000E-02 -1.008300000000E-01
     14 F   1 H     6.693000000000E-02  2.819400000000E-01  1.008300000000E-01
     15 F   1 H     3.390000000000E-02 -6.693000000000E-02  2.150100000000E-01
     16 F   1 H    -2.819400000000E-01 -1.811100000000E-01 -2.150100000000E-01
     17 T   6 C    -1.974700000000E-01 -1.188000000000E-01  4.506300000000E-01
     18 F   6 C     4.305700000000E-01  3.519000000000E-01 -4.506300000000E-01
     19 F   6 C     1.188000000000E-01 -4.305700000000E-01 -7.867000000000E-02
     20 F   6 C    -3.519000000000E-01  1.974700000000E-01  7.867000000000E-02
     21 T   6 C    -3.338300000000E-01 -1.256000000000E-01  2.945700000000E-01
     22 F   6 C    -4.201700000000E-01  3.716000000000E-01 -2.945700000000E-01
     23 F   6 C     1.256000000000E-01  4.201700000000E-01 -2.082300000000E-01
     24 F   6 C    -3.716000000000E-01  3.338300000000E-01  2.082300000000E-01
     25 T   6 C    -9.899000000000E-02 -2.142900000000E-01  4.320400000000E-01
     26 F   6 C     3.536700000000E-01  4.689700000000E-01 -4.320400000000E-01
     27 F   6 C     2.142900000000E-01 -3.536700000000E-01  1.153000000000E-01
     28 F   6 C    -4.689700000000E-01  9.899000000000E-02 -1.153000000000E-01
     29 T   6 C     7.302000000000E-02 -6.388000000000E-02 -2.317200000000E-01
     30 F   6 C     1.678400000000E-01  3.047400000000E-01  2.317200000000E-01
     31 F   6 C     6.388000000000E-02 -1.678400000000E-01  1.369000000000E-01
     32 F   6 C    -3.047400000000E-01 -7.302000000000E-02 -1.369000000000E-01
     33 T   6 C    -1.559200000000E-01 -4.140000000000E-03 -3.689200000000E-01
     34 F   6 C     3.647800000000E-01  2.130000000000E-01  3.689200000000E-01
     35 F   6 C     4.140000000000E-03 -3.647800000000E-01 -1.517800000000E-01
     36 F   6 C    -2.130000000000E-01  1.559200000000E-01  1.517800000000E-01
     37 T   6 C     2.196300000000E-01  4.432200000000E-01  4.064100000000E-01
     38 F   6 C     3.681000000000E-02 -1.867800000000E-01 -4.064100000000E-01
     39 F   6 C    -4.432200000000E-01 -3.681000000000E-02 -2.235900000000E-01
     40 F   6 C     1.867800000000E-01 -2.196300000000E-01  2.235900000000E-01
     41 T   7 N    -3.698800000000E-01  8.060000000000E-03  3.036000000000E-01
     42 F   7 N    -2.955400000000E-01  3.265200000000E-01 -3.036000000000E-01
     43 F   7 N    -8.060000000000E-03  2.955400000000E-01 -3.779400000000E-01
     44 F   7 N    -3.265200000000E-01  3.698800000000E-01  3.779400000000E-01
     45 T   7 N     4.956200000000E-01 -4.619000000000E-02  1.298900000000E-01
     46 F   7 N    -1.760800000000E-01  3.657300000000E-01 -1.298900000000E-01
     47 F   7 N     4.619000000000E-02  1.760800000000E-01 -4.581900000000E-01
     48 F   7 N    -3.657300000000E-01 -4.956200000000E-01  4.581900000000E-01
     49 T   7 N    -4.438100000000E-01 -2.597400000000E-01  1.196500000000E-01
     50 F   7 N    -3.793900000000E-01  4.365400000000E-01 -1.196500000000E-01
     51 F   7 N     2.597400000000E-01  3.793900000000E-01 -1.840700000000E-01
     52 F   7 N    -4.365400000000E-01  4.438100000000E-01  1.840700000000E-01
     53 T   7 N     4.516900000000E-01 -2.071600000000E-01  1.889000000000E-02
     54 F   7 N    -2.260500000000E-01  4.328000000000E-01 -1.889000000000E-02
     55 F   7 N     2.071600000000E-01  2.260500000000E-01 -3.411500000000E-01
     56 F   7 N    -4.328000000000E-01 -4.516900000000E-01  3.411500000000E-01
     57 T   7 N    -2.332000000000E-02  2.533000000000E-02 -2.138100000000E-01
     58 F   7 N     2.391400000000E-01  1.904900000000E-01  2.138100000000E-01
     59 F   7 N    -2.533000000000E-02 -2.391400000000E-01 -4.865000000000E-02
     60 F   7 N    -1.904900000000E-01  2.332000000000E-02  4.865000000000E-02
     61 T  30 ZN   -2.500000000000E-01  2.500000000000E-01  5.000000000000E-01
     62 T  30 ZN   -5.000000000000E-01  5.000000000000E-01  0.000000000000E+00

 TRANSFORMATION MATRIX PRIMITIVE-CRYSTALLOGRAPHIC CELL
  0.0000  1.0000  1.0000  1.0000  0.0000  1.0000  1.0000  1.0000  0.0000

 *******************************************************************************
 CRYSTALLOGRAPHIC CELL (VOLUME=       1371.74091142)
         A              B              C           ALPHA      BETA       GAMMA 
    10.15800000    10.15800000    13.29400000    90.000000  90.000000  90.000000

 COORDINATES IN THE CRYSTALLOGRAPHIC CELL
     ATOM                 X/A                 Y/B                 Z/C    
 *******************************************************************************
      1 T   9 F     5.761000000000E-02  2.373700000000E-01 -3.633300000000E-01
      2 F   9 F    -5.761000000000E-02 -2.373700000000E-01 -3.633300000000E-01
      3 F   9 F     2.373700000000E-01 -5.761000000000E-02  3.633300000000E-01
      4 F   9 F    -2.373700000000E-01  5.761000000000E-02  3.633300000000E-01
      5 T   9 F    -2.408000000000E-02 -3.248100000000E-01  9.083000000000E-02
      6 F   9 F     2.408000000000E-02  3.248100000000E-01  9.083000000000E-02
      7 F   9 F    -3.248100000000E-01  2.408000000000E-02 -9.083000000000E-02
      8 F   9 F     3.248100000000E-01 -2.408000000000E-02 -9.083000000000E-02
      9 T   9 F    -3.941800000000E-01 -1.942000000000E-02  1.369900000000E-01
     10 F   9 F     3.941800000000E-01  1.942000000000E-02  1.369900000000E-01
     11 F   9 F    -1.942000000000E-02  3.941800000000E-01 -1.369900000000E-01
     12 F   9 F     1.942000000000E-02 -3.941800000000E-01 -1.369900000000E-01
     13 T   1 H    -1.579200000000E-01  5.709000000000E-02  1.240200000000E-01
     14 F   1 H     1.579200000000E-01 -5.709000000000E-02  1.240200000000E-01
     15 F   1 H     5.709000000000E-02  1.579200000000E-01 -1.240200000000E-01
     16 F   1 H    -5.709000000000E-02 -1.579200000000E-01 -1.240200000000E-01
     17 T   6 C    -2.353500000000E-01 -3.140200000000E-01  1.165500000000E-01
     18 F   6 C     2.353500000000E-01  3.140200000000E-01  1.165500000000E-01
     19 F   6 C    -3.140200000000E-01  2.353500000000E-01 -1.165500000000E-01
     20 F   6 C     3.140200000000E-01 -2.353500000000E-01 -1.165500000000E-01
     21 T   6 C    -2.486000000000E-01 -4.568300000000E-01  1.230000000000E-01
     22 F   6 C     2.486000000000E-01  4.568300000000E-01  1.230000000000E-01
     23 F   6 C    -4.568300000000E-01  2.486000000000E-01 -1.230000000000E-01
     24 F   6 C     4.568300000000E-01 -2.486000000000E-01 -1.230000000000E-01
     25 T   6 C    -3.416300000000E-01 -2.263300000000E-01  1.273400000000E-01
     26 F   6 C     3.416300000000E-01  2.263300000000E-01  1.273400000000E-01
     27 F   6 C    -2.263300000000E-01  3.416300000000E-01 -1.273400000000E-01
     28 F   6 C     2.263300000000E-01 -3.416300000000E-01 -1.273400000000E-01
     29 T   6 C    -1.843100000000E-01 -4.741000000000E-02  1.204300000000E-01
     30 F   6 C     1.843100000000E-01  4.741000000000E-02  1.204300000000E-01
     31 F   6 C    -4.741000000000E-02  1.843100000000E-01 -1.204300000000E-01
     32 F   6 C     4.741000000000E-02 -1.843100000000E-01 -1.204300000000E-01
     33 T   6 C    -1.085700000000E-01 -2.603500000000E-01  1.044300000000E-01
     34 F   6 C     1.085700000000E-01  2.603500000000E-01  1.044300000000E-01
     35 F   6 C    -2.603500000000E-01  1.085700000000E-01 -1.044300000000E-01
     36 F   6 C     2.603500000000E-01 -1.085700000000E-01 -1.044300000000E-01
     37 T   6 C     3.150000000000E-01  9.141000000000E-02  1.282200000000E-01
     38 F   6 C    -3.150000000000E-01 -9.141000000000E-02  1.282200000000E-01
     39 F   6 C     9.141000000000E-02 -3.150000000000E-01 -1.282200000000E-01
     40 F   6 C    -9.141000000000E-02  3.150000000000E-01 -1.282200000000E-01
     41 T   7 N    -1.592300000000E-01  4.628300000000E-01  1.672900000000E-01
     42 F   7 N     1.592300000000E-01 -4.628300000000E-01  1.672900000000E-01
     43 F   7 N     4.628300000000E-01  1.592300000000E-01 -1.672900000000E-01
     44 F   7 N    -4.628300000000E-01 -1.592300000000E-01 -1.672900000000E-01
     45 T   7 N    -2.059600000000E-01  3.358500000000E-01  1.597700000000E-01
     46 F   7 N     2.059600000000E-01 -3.358500000000E-01  1.597700000000E-01
     47 F   7 N     3.358500000000E-01  2.059600000000E-01 -1.597700000000E-01
     48 F   7 N    -3.358500000000E-01 -2.059600000000E-01 -1.597700000000E-01
     49 T   7 N     1.518600000000E-01 -3.221000000000E-02 -4.116000000000E-01
     50 F   7 N    -1.518600000000E-01  3.221000000000E-02 -4.116000000000E-01
     51 F   7 N    -3.221000000000E-02 -1.518600000000E-01  4.116000000000E-01
     52 F   7 N     3.221000000000E-02  1.518600000000E-01  4.116000000000E-01
     53 T   7 N    -3.199800000000E-01  3.388700000000E-01  1.128200000000E-01
     54 F   7 N     3.199800000000E-01 -3.388700000000E-01  1.128200000000E-01
     55 F   7 N     3.388700000000E-01  3.199800000000E-01 -1.128200000000E-01
     56 F   7 N    -3.388700000000E-01 -3.199800000000E-01 -1.128200000000E-01
     57 T   7 N    -8.258000000000E-02 -1.312300000000E-01  1.079100000000E-01
     58 F   7 N     8.258000000000E-02  1.312300000000E-01  1.079100000000E-01
     59 F   7 N    -1.312300000000E-01  8.258000000000E-02 -1.079100000000E-01
     60 F   7 N     1.312300000000E-01 -8.258000000000E-02 -1.079100000000E-01
     61 T  30 ZN    4.626932236752E-17  5.000000000000E-01  2.500000000000E-01
     62 T  30 ZN    0.000000000000E+00  0.000000000000E+00  5.000000000000E-01

 T = ATOM BELONGING TO THE ASYMMETRIC UNIT

 ****    4 SYMMOPS - TRANSLATORS IN FRACTIONAL UNITS
 **** MATRICES AND TRANSLATORS IN THE CRYSTALLOGRAPHIC REFERENCE FRAME
   V INV                    ROTATION MATRICES                   TRANSLATORS
   1   1  1.00  0.00  0.00  0.00  1.00  0.00  0.00  0.00  1.00  0.00  0.00  0.00
   2   2  0.00  1.00 -1.00  1.00 -0.00 -1.00 -0.00  0.00 -1.00  0.00  0.00  0.00
   3   4 -0.00 -1.00  0.00  0.00 -1.00  1.00  1.00 -1.00  0.00  0.00  0.00  0.00
   4   3 -1.00 -0.00  1.00 -1.00  0.00 -0.00 -1.00  1.00 -0.00  0.00  0.00  0.00

 DIRECT LATTICE VECTORS CARTESIAN COMPONENTS (ANGSTROM)
          X                    Y                    Z
  -0.507900000000E+01   0.507900000000E+01   0.664700000000E+01
   0.507900000000E+01  -0.507900000000E+01   0.664700000000E+01
   0.507900000000E+01   0.507900000000E+01  -0.664700000000E+01


 CARTESIAN COORDINATES - PRIMITIVE CELL
 *******************************************************************************
 *      ATOM          X(ANGSTROM)         Y(ANGSTROM)         Z(ANGSTROM)
 *******************************************************************************
    1     9 F     5.852023800000E-01  2.411204460000E+00 -4.830109020000E+00
    2     9 F    -5.852023800000E-01 -2.411204460000E+00 -4.830109020000E+00
    3     9 F     2.411204460000E+00 -5.852023800000E-01  4.830109020000E+00
    4     9 F    -2.411204460000E+00  5.852023800000E-01  4.830109020000E+00
    5     9 F    -2.446046400000E-01 -3.299419980000E+00  1.207494020000E+00
    6     9 F     2.446046400000E-01  3.299419980000E+00  1.207494020000E+00
    7     9 F    -3.299419980000E+00  2.446046400000E-01 -1.207494020000E+00
    8     9 F     3.299419980000E+00 -2.446046400000E-01 -1.207494020000E+00
    9     9 F    -4.004080440000E+00 -1.972683600000E-01  1.821145060000E+00
   10     9 F     4.004080440000E+00  1.972683600000E-01  1.821145060000E+00
   11     9 F    -1.972683600000E-01  4.004080440000E+00 -1.821145060000E+00
   12     9 F     1.972683600000E-01 -4.004080440000E+00 -1.821145060000E+00
   13     1 H    -1.604151360000E+00  5.799202200000E-01  1.648721880000E+00
   14     1 H     1.604151360000E+00 -5.799202200000E-01  1.648721880000E+00
   15     1 H     5.799202200000E-01  1.604151360000E+00 -1.648721880000E+00
   16     1 H    -5.799202200000E-01 -1.604151360000E+00 -1.648721880000E+00
   17     6 C    -2.390685300000E+00 -3.189815160000E+00  1.549415700000E+00
   18     6 C     2.390685300000E+00  3.189815160000E+00  1.549415700000E+00
   19     6 C    -3.189815160000E+00  2.390685300000E+00 -1.549415700000E+00
   20     6 C     3.189815160000E+00 -2.390685300000E+00 -1.549415700000E+00
   21     6 C    -2.525278800000E+00 -4.640479140000E+00  1.635162000000E+00
   22     6 C     2.525278800000E+00  4.640479140000E+00  1.635162000000E+00
   23     6 C    -4.640479140000E+00  2.525278800000E+00 -1.635162000000E+00
   24     6 C     4.640479140000E+00 -2.525278800000E+00 -1.635162000000E+00
   25     6 C    -3.470277540000E+00 -2.299060140000E+00  1.692857960000E+00
   26     6 C     3.470277540000E+00  2.299060140000E+00  1.692857960000E+00
   27     6 C    -2.299060140000E+00  3.470277540000E+00 -1.692857960000E+00
   28     6 C     2.299060140000E+00 -3.470277540000E+00 -1.692857960000E+00
   29     6 C    -1.872220980000E+00 -4.815907800000E-01  1.600996420000E+00
   30     6 C     1.872220980000E+00  4.815907800000E-01  1.600996420000E+00
   31     6 C    -4.815907800000E-01  1.872220980000E+00 -1.600996420000E+00
   32     6 C     4.815907800000E-01 -1.872220980000E+00 -1.600996420000E+00
   33     6 C    -1.102854060000E+00 -2.644635300000E+00  1.388292420000E+00
   34     6 C     1.102854060000E+00  2.644635300000E+00  1.388292420000E+00
   35     6 C    -2.644635300000E+00  1.102854060000E+00 -1.388292420000E+00
   36     6 C     2.644635300000E+00 -1.102854060000E+00 -1.388292420000E+00
   37     6 C     3.199770000000E+00  9.285427800000E-01  1.704556680000E+00
   38     6 C    -3.199770000000E+00 -9.285427800000E-01  1.704556680000E+00
   39     6 C     9.285427800000E-01 -3.199770000000E+00 -1.704556680000E+00
   40     6 C    -9.285427800000E-01  3.199770000000E+00 -1.704556680000E+00
   41     7 N    -1.617458340000E+00  4.701427140000E+00  2.223953260000E+00
   42     7 N     1.617458340000E+00 -4.701427140000E+00  2.223953260000E+00
   43     7 N     4.701427140000E+00  1.617458340000E+00 -2.223953260000E+00
   44     7 N    -4.701427140000E+00 -1.617458340000E+00 -2.223953260000E+00
   45     7 N    -2.092141680000E+00  3.411564300000E+00  2.123982380000E+00
   46     7 N     2.092141680000E+00 -3.411564300000E+00  2.123982380000E+00
   47     7 N     3.411564300000E+00  2.092141680000E+00 -2.123982380000E+00
   48     7 N    -3.411564300000E+00 -2.092141680000E+00 -2.123982380000E+00
   49     7 N     1.542593880000E+00 -3.271891800000E-01 -5.471810400000E+00
   50     7 N    -1.542593880000E+00  3.271891800000E-01 -5.471810400000E+00
   51     7 N    -3.271891800000E-01 -1.542593880000E+00  5.471810400000E+00
   52     7 N     3.271891800000E-01  1.542593880000E+00  5.471810400000E+00
   53     7 N    -3.250356840000E+00  3.442241460000E+00  1.499829080000E+00
   54     7 N     3.250356840000E+00 -3.442241460000E+00  1.499829080000E+00
   55     7 N     3.442241460000E+00  3.250356840000E+00 -1.499829080000E+00
   56     7 N    -3.442241460000E+00 -3.250356840000E+00 -1.499829080000E+00
   57     7 N    -8.388476400000E-01 -1.333034340000E+00  1.434555540000E+00
   58     7 N     8.388476400000E-01  1.333034340000E+00  1.434555540000E+00
   59     7 N    -1.333034340000E+00  8.388476400000E-01 -1.434555540000E+00
   60     7 N     1.333034340000E+00 -8.388476400000E-01 -1.434555540000E+00
   61    30 ZN    4.700037766092E-16  5.079000000000E+00 -9.970500000000E+00
   62    30 ZN    0.000000000000E+00  0.000000000000E+00  6.647000000000E+00

 *******************************************************************************
 STARTING BASIS SET HANDLING 
 *******************************************************************************

 Loading internal basis set: POB-DZVPP           

 Please cite in your publication:
 Peintinger, M. F., Oliveira, D. V. and Bredow, T. (2013), Generally applicable 
 solid-state Gaussian basis sets, in preparation                                
                                                                                
                    

 *******************************************************************************
 LOCAL ATOMIC FUNCTIONS BASIS SET
 *******************************************************************************
   ATOM   X(AU)   Y(AU)   Z(AU)  N. TYPE  EXPONENT  S COEF   P COEF   D/F/G COEF
 *******************************************************************************
   1 F    1.106   4.557  -9.128
                                  1 S  
                                         2.895E+03-5.341E-03 0.000E+00 0.000E+00
                                         4.354E+02-3.990E-02 0.000E+00 0.000E+00
                                         9.884E+01-1.791E-01 0.000E+00 0.000E+00
                                         2.749E+01-4.676E-01 0.000E+00 0.000E+00
                                         8.541E+00-4.465E-01 0.000E+00 0.000E+00
                                  2 S  
                                         1.123E+00 1.000E+00 0.000E+00 0.000E+00
                                  3 S  
                                         3.743E-01 1.000E+00 0.000E+00 0.000E+00
                           4-     6 P  
                                         2.270E+01 0.000E+00-4.521E-02 0.000E+00
                                         4.987E+00 0.000E+00-2.375E-01 0.000E+00
                                         1.349E+00 0.000E+00-5.129E-01 0.000E+00
                           7-     9 P  
                                         3.474E-01 0.000E+00 1.000E+00 0.000E+00
                          10-    14 D  
                                         9.203E-01 0.000E+00 0.000E+00 1.000E+00
                          15-    19 D  
                                         3.977E-01 0.000E+00 0.000E+00 1.000E+00
   2 F   -1.106  -4.557  -9.128
   3 F    4.557  -1.106   9.128
   4 F   -4.557   1.106   9.128
   5 F   -0.462  -6.235   2.282
   6 F    0.462   6.235   2.282
   7 F   -6.235   0.462  -2.282
   8 F    6.235  -0.462  -2.282
   9 F   -7.567  -0.373   3.441
  10 F    7.567   0.373   3.441
  11 F   -0.373   7.567  -3.441
  12 F    0.373  -7.567  -3.441
  13 H   -3.031   1.096   3.116
                                229 S  
                                         2.263E+01 1.441E-02 0.000E+00 0.000E+00
                                         3.236E+00 1.072E-01 0.000E+00 0.000E+00
                                         7.304E-01 3.846E-01 0.000E+00 0.000E+00
                                230 S  
                                         1.417E-01 1.000E+00 0.000E+00 0.000E+00
                         231-   233 P  
                                         3.944E-01 0.000E+00 1.000E+00 0.000E+00
                         234-   236 P  
                                         1.006E-01 0.000E+00 1.000E+00 0.000E+00
  14 H    3.031  -1.096   3.116
  15 H    1.096   3.031  -3.116
  16 H   -1.096  -3.031  -3.116
  17 C   -4.518  -6.028   2.928
                                261 S  
                                         1.238E+03 5.457E-03 0.000E+00 0.000E+00
                                         1.863E+02 4.064E-02 0.000E+00 0.000E+00
                                         4.225E+01 1.803E-01 0.000E+00 0.000E+00
                                         1.168E+01 4.632E-01 0.000E+00 0.000E+00
                                         3.593E+00 4.409E-01 0.000E+00 0.000E+00
                                262 S  
                                         5.281E+00 1.000E+00 0.000E+00 0.000E+00
                                263 S  
                                         4.447E-01 1.000E+00 0.000E+00 0.000E+00
                         264-   266 P  
                                         9.468E+00 0.000E+00 3.839E-02 0.000E+00
                                         2.010E+00 0.000E+00 2.112E-01 0.000E+00
                                         5.477E-01 0.000E+00 5.133E-01 0.000E+00
                         267-   269 P  
                                         1.604E-01 0.000E+00 1.000E+00 0.000E+00
                         270-   274 D  
                                         6.070E-01 0.000E+00 0.000E+00 1.000E+00
                         275-   279 D  
                                         2.939E-01 0.000E+00 0.000E+00 1.000E+00
  18 C    4.518   6.028   2.928
  19 C   -6.028   4.518  -2.928
  20 C    6.028  -4.518  -2.928
  21 C   -4.772  -8.769   3.090
  22 C    4.772   8.769   3.090
  23 C   -8.769   4.772  -3.090
  24 C    8.769  -4.772  -3.090
  25 C   -6.558  -4.345   3.199
  26 C    6.558   4.345   3.199
  27 C   -4.345   6.558  -3.199
  28 C    4.345  -6.558  -3.199
  29 C   -3.538  -0.910   3.025
  30 C    3.538   0.910   3.025
  31 C   -0.910   3.538  -3.025
  32 C    0.910  -3.538  -3.025
  33 C   -2.084  -4.998   2.623
  34 C    2.084   4.998   2.623
  35 C   -4.998   2.084  -2.623
  36 C    4.998  -2.084  -2.623
  37 C    6.047   1.755   3.221
  38 C   -6.047  -1.755   3.221
  39 C    1.755  -6.047  -3.221
  40 C   -1.755   6.047  -3.221
  41 N   -3.057   8.884   4.203
                                717 S  
                                         1.713E+03-5.393E-03 0.000E+00 0.000E+00
                                         2.576E+02-4.022E-02 0.000E+00 0.000E+00
                                         5.846E+01-1.793E-01 0.000E+00 0.000E+00
                                         1.620E+01-4.638E-01 0.000E+00 0.000E+00
                                         5.005E+00-4.417E-01 0.000E+00 0.000E+00
                                718 S  
                                         6.217E-01 1.000E+00 0.000E+00 0.000E+00
                                719 S  
                                         2.921E-01 1.000E+00 0.000E+00 0.000E+00
                         720-   722 P  
                                         1.357E+01 0.000E+00-4.007E-02 0.000E+00
                                         2.926E+00 0.000E+00-2.181E-01 0.000E+00
                                         7.993E-01 0.000E+00-5.129E-01 0.000E+00
                         723-   725 P  
                                         2.244E-01 0.000E+00 1.000E+00 0.000E+00
                         726-   730 D  
                                         3.118E-01 0.000E+00 0.000E+00 1.000E+00
  42 N    3.057  -8.884   4.203
  43 N    8.884   3.057  -4.203
  44 N   -8.884  -3.057  -4.203
  45 N   -3.954   6.447   4.014
  46 N    3.954  -6.447   4.014
  47 N    6.447   3.954  -4.014
  48 N   -6.447  -3.954  -4.014
  49 N    2.915  -0.618 -10.340
  50 N   -2.915   0.618 -10.340
  51 N   -0.618  -2.915  10.340
  52 N    0.618   2.915  10.340
  53 N   -6.142   6.505   2.834
  54 N    6.142  -6.505   2.834
  55 N    6.505   6.142  -2.834
  56 N   -6.505  -6.142  -2.834
  57 N   -1.585  -2.519   2.711
  58 N    1.585   2.519   2.711
  59 N   -2.519   1.585  -2.711
  60 N    2.519  -1.585  -2.711
  61 ZN   0.000   9.598 -18.842
                                997 S  
                                         8.200E+04 1.421E-03 0.000E+00 0.000E+00
                                         1.231E+04 1.089E-02 0.000E+00 0.000E+00
                                         2.801E+03 5.406E-02 0.000E+00 0.000E+00
                                         7.910E+02 1.885E-01 0.000E+00 0.000E+00
                                         2.576E+02 3.835E-01 0.000E+00 0.000E+00
                                         8.881E+01 2.972E-01 0.000E+00 0.000E+00
                                998 S  
                                         1.719E+02-1.105E-01 0.000E+00 0.000E+00
                                         2.030E+01 6.461E-01 0.000E+00 0.000E+00
                                         8.346E+00 4.422E-01 0.000E+00 0.000E+00
                                999 S  
                                         1.485E+01-2.271E-01 0.000E+00 0.000E+00
                                         2.450E+00 7.243E-01 0.000E+00 0.000E+00
                                         9.985E-01 4.484E-01 0.000E+00 0.000E+00
                               1000 S  
                                         1.493E+00 1.000E+00 0.000E+00 0.000E+00
                               1001 S  
                                         1.830E-01 1.000E+00 0.000E+00 0.000E+00
                        1002-  1004 P  
                                         1.072E+03 0.000E+00 9.277E-03 0.000E+00
                                         2.527E+02 0.000E+00 6.954E-02 0.000E+00
                                         8.010E+01 0.000E+00 2.716E-01 0.000E+00
                                         2.890E+01 0.000E+00 5.340E-01 0.000E+00
                                         1.077E+01 0.000E+00 3.450E-01 0.000E+00
                        1005-  1007 P  
                                         5.645E+00 0.000E+00 3.413E-01 0.000E+00
                                         2.168E+00 0.000E+00 5.639E-01 0.000E+00
                                         8.054E-01 0.000E+00 2.368E-01 0.000E+00
                        1008-  1010 P  
                                         2.721E-01 0.000E+00 1.000E+00 0.000E+00
                        1011-  1015 D  
                                         5.609E+01 0.000E+00 0.000E+00 2.959E-02
                                         1.575E+01 0.000E+00 0.000E+00 1.587E-01
                                         5.312E+00 0.000E+00 0.000E+00 3.798E-01
                                         1.774E+00 0.000E+00 0.000E+00 4.690E-01
                        1016-  1020 D  
                                         5.073E-01 0.000E+00 0.000E+00 1.000E+00
                        1021-  1027 F  
                                         2.814E+00 0.000E+00 0.000E+00 1.000E+00
                        1028-  1034 F  
                                         1.300E+00 0.000E+00 0.000E+00 1.000E+00
  62 ZN   0.000   0.000  12.561

 *******************************************************************************
 FINISHED BASIS SET HANDLING 
 *******************************************************************************

 INFORMATION **** SET_MPP **** PCRYSTAL CALCULATION
 INFORMATION **** READM2 **** NEW DEFAULT: FOCK/KS MATRIX MIXING SET TO 30 %
 INFORMATION **** READM2 **** NEW DEFAULT: FULL DIRECT SCF MODE
 INFORMATION **** READM2 **** NEW DEFAULT: COULOMB BIPOLAR BUFFER SET TO 32 Mb
 INFORMATION **** READM2 **** NEW DEFAULT: EXCHANGE BIPOLAR BUFFER SET TO 32 Mb

 *******************************************************************************
 NEW DEFAULT: DFT INTEGRATION GRID INCREASED TO XLGRID
 NEW DEFAULT: DIIS ACCELERATOR ACTIVE
 USE KEYWORD NODIIS TO TURN IT OFF
 *******************************************************************************

 INFORMATION **** DFTD3_INPUT **** PERFORM DISPERSION CORRECTION DFT-D3(BJ) IN THE BECKE-JOHNSON DAMPING SCHEME

 PLEASE CITE:
 (1) DFT-D3 Reference
  S. Grimme, J. Antony, S. Ehrlich, and H. Krieg, J. Chem. Phys. 132 (2010), 154104
 (2) BJ-Damping Reference
  S. Grimme, S. Ehrlich, and L. Goerigk, J. Comput. Chem. 32 (2011), 1456-1465
 (3) General DFT-D Review
  S. Grimme, A. Hansen, J. G. Brandenburg, and C. Bannwarth,
  Chem. Rev. 116 (2016), 5105-5154

 INFORMATION **** BIPOSIZE **** COULOMB BIPOLAR BUFFER SET TO    30000000
 INFORMATION **** EXCHSIZE **** EXCHANGE BIPOLAR BUFFER SIZE SET TO    30000000
 INFORMATION **** TOLINTEG **** COULOMB AND EXCHANGE SERIES TOLERANCES MODIFIED
 INFORMATION **** MAXCYCLE **** MAX NUMBER OF SCF CYCLES SET TO          50
 *******************************************************************************
 N. OF ATOMS PER CELL        62  COULOMB OVERLAP TOL         (T1) 10**  -12
 NUMBER OF SHELLS           412  COULOMB PENETRATION TOL     (T2) 10**  -12
 NUMBER OF AO              1072  EXCHANGE OVERLAP TOL        (T3) 10**   20
 N. OF ELECTRONS PER CELL   456  EXCHANGE PSEUDO OVP (F(G))  (T4) 10**   20
 CORE ELECTRONS PER CELL    148  EXCHANGE PSEUDO OVP (P(G))  (T5) 10**   20
 N. OF SYMMETRY OPERATORS     4  POLE ORDER IN MONO ZONE                  4
 *******************************************************************************
 TYPE OF CALCULATION :  RESTRICTED CLOSED SHELL
 KOHN-SHAM HAMILTONIAN

 (EXCHANGE)[CORRELATION] FUNCTIONAL:(PERDEW-BURKE-ERNZERHOF)[PERDEW-BURKE-ERNZERHOF]


 CAPPA:IS1  3;IS2  3;IS3  3; K PTS MONK NET   6; SYMMOPS:K SPACE   8;G SPACE   4

 *******************************************************************************
 MAX NUMBER OF SCF CYCLES      50  CONVERGENCE ON DELTAP        10**-16
 WEIGHT OF F(I) IN F(I+1)      30% CONVERGENCE ON ENERGY        10**- 7
 SHRINK. FACT.(MONKH.)    3  3  3  NUMBER OF K POINTS IN THE IBZ      6
 SHRINKING FACTOR(GILAT NET)    3  NUMBER OF K POINTS(GILAT NET)      6
 *******************************************************************************
 *** K POINTS COORDINATES (OBLIQUE COORDINATES IN UNITS OF IS =  3)
   1-R(  0  0  0)   2-C(  1  0  0)   3-C(  1  1  0)   4-C(  2  1  0)
   5-C(  2  1  1)   6-C(  2  2  1)

 DIRECT LATTICE VECTORS COMPON. (A.U.)     RECIP. LATTICE VECTORS COMPON. (A.U.) 
        X            Y            Z              X            Y            Z
   -9.5979190    9.5979190   12.5610096      0.0000000    0.3273202    0.2501067
    9.5979190   -9.5979190   12.5610096      0.3273202    0.0000000    0.2501067
    9.5979190    9.5979190  -12.5610096      0.3273202    0.3273202    0.0000000

 DISK SPACE FOR EIGENVECTORS (FTN 10)    12641024 REALS

 SYMMETRY ADAPTION OF THE BLOCH FUNCTIONS ENABLED
 TTTTTTTTTTTTTTTTTTTTTTTTTTTTTT gordsh1     TELAPSE        1.13 TCPU        0.04

 MATRIX SIZE: P(G) 1806440, F(G)  904140, P(G) IRR  228657, F(G) IRR  228657
 MAX G-VECTOR INDEX FOR 1- AND 2-ELECTRON INTEGRALS  63

 TTTTTTTTTTTTTTTTTTTTTTTTTTTTTT INPUT       TELAPSE        1.21 TCPU        0.12

 NEIGHBORS OF THE NON-EQUIVALENT ATOMS

 N = NUMBER OF NEIGHBORS AT DISTANCE R
    ATOM  N     R/ANG      R/AU   NEIGHBORS (ATOM LABELS AND CELL INDICES)
   1 F    1     1.0950     2.0692   25 C    0 0 1
   1 F    1     2.1707     4.1021   38 C    0 0 1
   1 F    1     2.1834     4.1260   17 C    0 0 1
   1 F    1     2.5186     4.7595    9 F    0 0 1
   1 F    1     2.5548     4.8279   54 N    0-1 0
   1 F    1     2.7928     5.2776   21 C    0 0 1

   5 F    1     1.0945     2.0684   33 C    0 0 0
   5 F    1     2.0667     3.9055   57 N    0 0 0
   5 F    1     2.1759     4.1119   17 C    0 0 0
   5 F    1     2.5126     4.7480   46 N    0 0 0
   5 F    1     2.5429     4.8053   42 N    0 0 0
   5 F    1     2.6801     5.0646   21 C    0 0 0

   9 F    1     1.0933     2.0660   38 C    0 0 0
   9 F    1     2.1620     4.0855   29 C    0 0 0
   9 F    1     2.1723     4.1051   25 C    0 0 0
   9 F    1     2.1857     4.1305   10 F    0-1-1
   9 F    1     2.5186     4.7595    1 F    0 0-1
   9 F    1     2.5285     4.7782   13 H    0 0 0

  13 H    1     1.0959     2.0709   29 C    0 0 0
  13 H    1     2.0715     3.9145   57 N    0 0 0
  13 H    1     2.1965     4.1508   38 C    0 0 0
  13 H    1     2.5285     4.7782    9 F    0 0 0
  13 H    1     2.5654     4.8479   58 N    0 0 0
  13 H    1     2.9124     5.5037   45 N    0 0 0

  17 C    1     1.4070     2.6588   25 C    0 0 0
  17 C    1     1.4077     2.6602   33 C    0 0 0
  17 C    1     1.4594     2.7579   21 C    0 0 0
  17 C    1     2.1759     4.1119    5 F    0 0 0
  17 C    1     2.1834     4.1260    1 F    0 0-1
  17 C    1     2.4067     4.5479   38 C    0 0 0

  21 C    1     1.3492     2.5496   49 N    0 0-1
  21 C    1     1.3553     2.5611   41 N   -1 0-1
  21 C    1     1.4594     2.7579   17 C    0 0 0
  21 C    1     2.2025     4.1620   53 N   -1 0-1
  21 C    1     2.2049     4.1667   45 N   -1 0-1
  21 C    1     2.4633     4.6549   33 C    0 0 0

  25 C    1     1.0950     2.0692    1 F    0 0-1
  25 C    1     1.3970     2.6400   38 C    0 0 0
  25 C    1     1.4070     2.6588   17 C    0 0 0
  25 C    1     2.1723     4.1051    9 F    0 0 0
  25 C    1     2.4118     4.5577   33 C    0 0 0
  25 C    1     2.4219     4.5767   29 C    0 0 0

  29 C    1     1.0959     2.0709   13 H    0 0 0
  29 C    1     1.3493     2.5497   57 N    0 0 0
  29 C    1     1.4046     2.6543   38 C    0 0 0
  29 C    1     2.1620     4.0855    9 F    0 0 0
  29 C    1     2.3056     4.3570   33 C    0 0 0
  29 C    1     2.4219     4.5767   25 C    0 0 0

  33 C    1     1.0945     2.0684    5 F    0 0 0
  33 C    1     1.3387     2.5298   57 N    0 0 0
  33 C    1     1.4077     2.6602   17 C    0 0 0
  33 C    1     2.3056     4.3570   29 C    0 0 0
  33 C    1     2.4118     4.5577   25 C    0 0 0
  33 C    1     2.4633     4.6549   21 C    0 0 0

  37 C    1     1.0933     2.0660   10 F    0 0 0
  37 C    1     1.3970     2.6400   26 C    0 0 0
  37 C    1     1.4046     2.6543   30 C    0 0 0
  37 C    1     2.1707     4.1021    2 F    1 1 1
  37 C    1     2.1965     4.1508   14 H    0 0 0
  37 C    1     2.4067     4.5479   18 C    0 0 0

  41 N    1     1.3553     2.5611   21 C    1 0 1
  41 N    1     1.3781     2.6042   45 N    0 0 0
  41 N    1     1.9919     3.7642   61 ZN   1 1 0
  41 N    1     2.1855     4.1299   53 N    0 0 0
  41 N    1     2.1874     4.1336   49 N    1 0 0
  41 N    1     2.4882     4.7020   17 C    1 0 1

  45 N    1     1.3160     2.4870   53 N    0 0 0
  45 N    1     1.3781     2.6042   41 N    0 0 0
  45 N    1     2.1869     4.1326   49 N    1 0 0
  45 N    1     2.2049     4.1667   21 C    1 0 1
  45 N    1     2.5126     4.7480    6 F    0 0 0
  45 N    1     2.9124     5.5037   13 H    0 0 0

  49 N    1     1.3492     2.5496   21 C    0 0 1
  49 N    1     1.3792     2.6063   53 N   -1 0 0
  49 N    1     1.9667     3.7164   62 ZN  -1-1 0
  49 N    1     2.1869     4.1326   45 N   -1 0 0
  49 N    1     2.1874     4.1336   41 N   -1 0 0
  49 N    1     2.5229     4.7676   17 C    0 0 1

  53 N    1     1.3160     2.4870   45 N    0 0 0
  53 N    1     1.3792     2.6063   49 N    1 0 0
  53 N    1     2.1855     4.1299   41 N    0 0 0
  53 N    1     2.2025     4.1620   21 C    1 0 1
  53 N    1     2.5548     4.8279    2 F    1 0 0
  53 N    1     2.8762     5.4352   62 ZN   0-1 0

  57 N    1     1.3387     2.5298   33 C    0 0 0
  57 N    1     1.3493     2.5497   29 C    0 0 0
  57 N    1     2.0667     3.9055    5 F    0 0 0
  57 N    1     2.0715     3.9145   13 H    0 0 0
  57 N    1     2.4105     4.5552   38 C    0 0 0
  57 N    1     2.4226     4.5781   17 C    0 0 0

  61 ZN   4     1.9919     3.7642   41 N   -1-1 0   42 N    0-1 1   43 N    0-1 0
                                    44 N    0 0 1
  61 ZN   4     2.7756     5.2452    5 F    0-1 1    6 F   -1-1 0    7 F    0 0 1
                                     8 F    0-1 0
  61 ZN   4     2.9319     5.5406   45 N   -1-1 0   46 N    0-1 1   47 N    0-1 0
                                    48 N    0 0 1
  61 ZN   4     3.0692     5.7999   21 C    0-1 1   22 C   -1-1 0   23 C    0 0 1
                                    24 C    0-1 0
  61 ZN   4     3.2996     6.2354   33 C    0-1 1   34 C   -1-1 0   35 C    0 0 1
                                    36 C    0-1 0
  61 ZN   4     3.5259     6.6629   17 C    0-1 1   18 C   -1-1 0   19 C    0 0 1
                                    20 C    0-1 0

  62 ZN   4     1.9667     3.7164   49 N    1 1 0   50 N    1 1 0   51 N    0 0 0
                                    52 N    0 0 0
  62 ZN   4     2.8762     5.4352   53 N    0 1 0   54 N    1 0 0   55 N    0 0-1
                                    56 N    1 1 1
  62 ZN   4     3.0639     5.7900   21 C    1 1 1   22 C    0 0-1   23 C    0 1 0
                                    24 C    1 0 0
  62 ZN   4     3.0753     5.8115    1 F    1 1 0    2 F    1 1 0    3 F    0 0 0
                                     4 F    0 0 0
  62 ZN   4     3.6307     6.8610   25 C    1 1 1   26 C    0 0-1   27 C    0 1 0
                                    28 C    1 0 0
  62 ZN   4     3.6327     6.8649   17 C    1 1 1   18 C    0 0-1   19 C    0 1 0
                                    20 C    1 0 0


 SYMMETRY ALLOWED ELASTIC DISTORTION 1
  0.5773503  0.0000000  0.0000000
  0.0000000  0.5773503  0.0000000
  0.0000000  0.0000000  0.5773503

 SYMMETRY ALLOWED ELASTIC DISTORTION 2
  0.4082483  0.0000000  0.0000000
  0.0000000  0.4082483  0.0000000
  0.0000000  0.0000000 -0.8164966

 SYMMETRY ALLOWED INTERNAL DEGREE(S) OF FREEDOM:  45
 TTTTTTTTTTTTTTTTTTTTTTTTTTTTTT SYMM        TELAPSE        4.10 TCPU        2.99
 TTTTTTTTTTTTTTTTTTTTTTTTTTTTTT INT_SCREEN  TELAPSE        4.11 TCPU        3.00

 *******************************************************************************
 *                             OPTIMIZATION STARTS                             *
 *******************************************************************************
 RECLASIFICATION OF INDICES FOR INTEGRAL CALC ACCORDING TO DIFFERENT CRITERIA:
           FIXDELTE                  FIXDELTX              FIXDELTN
          0.10000000               0.80000000                 47
 DEFAULT MAX NUM OF POINTS  100
 *******************************************************************************

 *******************************************************************************
 COORDINATE AND CELL OPTIMIZATION - POINT    1
 INFORMATION **** EXCBUF **** EXCH. BIPO BUFFER: WORDS USED =           0

 DFT PARAMETERS

     ATOM       ELECTRONS   NET CHARGE   R(ANGSTROM)
   1   9  F       9.0000      0.0000     0.72000000
  13   1  H       1.0000      0.0000     1.11000000
  17   6  C       6.0000      0.0000     0.77000000
  41   7  N       7.0000      0.0000     0.74000000
  61  30  ZN     30.0000      0.0000     1.37000000

 SIZE OF GRID=     488565
 TTTTTTTTTTTTTTTTTTTTTTTTTTTTTT MAKE_GRID2  TELAPSE        9.89 TCPU        8.73
 BECKE WEIGHT FUNCTION
 RADSAFE =     2.00
 TOLERANCES - DENSITY:10**- 6; POTENTIAL:10**- 9; GRID WGT:10**-14

 RADIAL INTEGRATION  - INTERVALS (POINTS,UPPER LIMIT):            1( 75,  4.0*R)

 ANGULAR INTEGRATION - INTERVALS (ACCURACY LEVEL [N. POINTS] UPPER LIMIT):
  1(  4[  86]   0.2)  2(  8[ 194]   0.5)  3( 12[ 350]   0.9)  4( 16[ 974]   3.5)
  5( 12[ 350]9999.0)
 TTTTTTTTTTTTTTTTTTTTTTTTTTTTTT INT_CALC    TELAPSE       10.03 TCPU        8.87

 *******************************************************************************
 C:\Users\wilso\AppData\Local\Temp\tmp_p\newconn.mol                             
 CRYSTAL - SCF - TYPE OF CALCULATION :  RESTRICTED CLOSED SHELL
 *******************************************************************************

 CAPPA:IS1  3;IS2  3;IS3  3; K PTS MONK NET   6; SYMMOPS:K SPACE   8;G SPACE   4

 TTTTTTTTTTTTTTTTTTTTTTTTTTTTTT SDIK        TELAPSE       10.36 TCPU        9.20

 AAAAAAAAAAAAAAAAAAAAAAAAAAAAAAAAAAAAAAAAAAAAAAAAAAAAAAAAAAAAAAAAAAAAAAAAAAAAAAA
         ATOMIC WAVEFUNCTION(S)


 NUCLEAR CHARGE  9.0  SYMMETRY SPECIES            S    P
 N. ELECTRONS    9.0  NUMBER OF PRIMITIVE GTOS    7    4
                      NUMBER OF CONTRACTED GTOS   3    2
                      NUMBER OF CLOSED SHELLS     2    0
                      OPEN SHELL OCCUPATION       0    5

  ZNUC SCFIT  TOTAL HF ENERGY   KINETIC ENERGY   VIRIAL THEOREM ACCURACY
   9.0  14   -9.927886620E+01  9.927374065E+01 -2.000051630E+00  4.0E-06

 NUCLEAR CHARGE  1.0  SYMMETRY SPECIES            S
 N. ELECTRONS    1.0  NUMBER OF PRIMITIVE GTOS    4
                      NUMBER OF CONTRACTED GTOS   2
                      NUMBER OF CLOSED SHELLS     0
                      OPEN SHELL OCCUPATION       1

  ZNUC SCFIT  TOTAL HF ENERGY   KINETIC ENERGY   VIRIAL THEOREM ACCURACY
   1.0   1   -4.946643675E-01  4.917913167E-01 -2.005842012E+00  9.4E-17

 NUCLEAR CHARGE  6.0  SYMMETRY SPECIES            S    P
 N. ELECTRONS    6.0  NUMBER OF PRIMITIVE GTOS    7    4
                      NUMBER OF CONTRACTED GTOS   3    2
                      NUMBER OF CLOSED SHELLS     2    0
                      OPEN SHELL OCCUPATION       0    2

  ZNUC SCFIT  TOTAL HF ENERGY   KINETIC ENERGY   VIRIAL THEOREM ACCURACY
   6.0   6   -3.750912652E+01  3.905246519E+01 -1.960480378E+00  3.7E-06

 NUCLEAR CHARGE  7.0  SYMMETRY SPECIES            S    P
 N. ELECTRONS    7.0  NUMBER OF PRIMITIVE GTOS    7    4
                      NUMBER OF CONTRACTED GTOS   3    2
                      NUMBER OF CLOSED SHELLS     2    0
                      OPEN SHELL OCCUPATION       0    3

  ZNUC SCFIT  TOTAL HF ENERGY   KINETIC ENERGY   VIRIAL THEOREM ACCURACY
   7.0   9   -5.432196661E+01  5.425066284E+01 -2.001314339E+00  1.2E-06

 NUCLEAR CHARGE 30.0  SYMMETRY SPECIES            S    P    D
 N. ELECTRONS   30.0  NUMBER OF PRIMITIVE GTOS   14    9    5
                      NUMBER OF CONTRACTED GTOS   5    3    2
                      NUMBER OF CLOSED SHELLS     4    2    1
                      OPEN SHELL OCCUPATION       0    0    0

  ZNUC SCFIT  TOTAL HF ENERGY   KINETIC ENERGY   VIRIAL THEOREM ACCURACY
  30.0  10   -1.777404290E+03  1.777325716E+03 -2.000044209E+00  2.5E-06

 AAAAAAAAAAAAAAAAAAAAAAAAAAAAAAAAAAAAAAAAAAAAAAAAAAAAAAAAAAAAAAAAAAAAAAAAAAAAAAA

 CHARGE NORMALIZATION FACTOR   1.00000000
 TOTAL ATOMIC CHARGES:
   9.0000000   9.0000000   9.0000000   9.0000000   9.0000000   9.0000000
   9.0000000   9.0000000   9.0000000   9.0000000   9.0000000   9.0000000
   1.0000000   1.0000000   1.0000000   1.0000000   6.0000000   6.0000000
   6.0000000   6.0000000   6.0000000   6.0000000   6.0000000   6.0000000
   6.0000000   6.0000000   6.0000000   6.0000000   6.0000000   6.0000000
   6.0000000   6.0000000   6.0000000   6.0000000   6.0000000   6.0000000
   6.0000000   6.0000000   6.0000000   6.0000000   7.0000000   7.0000000
   7.0000000   7.0000000   7.0000000   7.0000000   7.0000000   7.0000000
   7.0000000   7.0000000   7.0000000   7.0000000   7.0000000   7.0000000
   7.0000000   7.0000000   7.0000000   7.0000000   7.0000000   7.0000000
  30.0000000  30.0000000
 TTTTTTTTTTTTTTTTTTTTTTTTTTTTTT MOQGAD      TELAPSE       12.40 TCPU       11.21
 TTTTTTTTTTTTTTTTTTTTTTTTTTTTTT SHELLXN     TELAPSE       84.86 TCPU       69.05
 TTTTTTTTTTTTTTTTTTTTTTTTTTTTTT MONMO3      TELAPSE       92.26 TCPU       76.42
 NUMERICALLY INTEGRATED DENSITY    456.0001028019
 TTTTTTTTTTTTTTTTTTTTTTTTTTTTTT NUMDFT      TELAPSE       94.57 TCPU       78.72
 CYC   0 ETOT(AU) -6.771800226902E+03 DETOT -6.77E+03 tst  0.00E+00 PX  1.00E+00
 TTTTTTTTTTTTTTTTTTTTTTTTTTTTTT DIIS        TELAPSE       94.67 TCPU       78.82
 TTTTTTTTTTTTTTTTTTTTTTTTTTTTTT FDIK        TELAPSE      143.84 TCPU      119.50
 INSULATING STATE
 TOP OF VALENCE BANDS -    BAND    228; K    4; EIG -1.3032266E-01 AU
 TOP OF VALENCE BANDS -    BAND    228; K    1; EIG -1.3104980E-01 AU
 BOTTOM OF VIRTUAL BANDS - BAND    229; K    5; EIG -8.2667517E-02 AU
 INDIRECT ENERGY BAND GAP:   1.2968 eV
 BOTTOM OF VIRTUAL BANDS - BAND    229; K    1; EIG -8.0762634E-02 AU
 TTTTTTTTTTTTTTTTTTTTTTTTTTTTTT PDIG        TELAPSE      144.53 TCPU      120.19
 CHARGE NORMALIZATION FACTOR   1.00000000
 TOTAL ATOMIC CHARGES:
   8.9310720   8.9310720   8.9310720   8.9310720   8.9287096   8.9287096
   8.9287096   8.9287096   8.9454246   8.9454246   8.9454246   8.9454246
   1.3169135   1.3169135   1.3169135   1.3169135   6.4846013   6.4846013
   6.4846013   6.4846013   5.5742999   5.5742999   5.5742999   5.5742999
   5.6308829   5.6308829   5.6308829   5.6308829   6.2030108   6.2030108
   6.2030108   6.2030108   5.3020020   5.3020020   5.3020020   5.3020020
   5.6288959   5.6288959   5.6288959   5.6288959   7.4508925   7.4508925
   7.4508925   7.4508925   7.2212337   7.2212337   7.2212337   7.2212337
   7.4413936   7.4413936   7.4413936   7.4413936   7.1896650   7.1896650
   7.1896650   7.1896650   7.7715850   7.7715850   7.7715850   7.7715850
  27.9502670  27.9674036
 TTTTTTTTTTTTTTTTTTTTTTTTTTTTTT MOQGAD      TELAPSE      144.58 TCPU      120.24
 TTTTTTTTTTTTTTTTTTTTTTTTTTTTTT SHELLXN     TELAPSE      215.82 TCPU      188.10
 TTTTTTTTTTTTTTTTTTTTTTTTTTTTTT MONMO3      TELAPSE      222.95 TCPU      195.20
 NUMERICALLY INTEGRATED DENSITY    456.0000690186
 TTTTTTTTTTTTTTTTTTTTTTTTTTTTTT NUMDFT      TELAPSE      229.38 TCPU      201.61
 CYC   1 ETOT(AU) -6.759364080957E+03 DETOT  1.24E+01 tst  0.00E+00 PX  1.00E+00
 TTTTTTTTTTTTTTTTTTTTTTTTTTTTTT DIIS        TELAPSE      229.55 TCPU      201.78
 DIIS TEST: 0.13587E+02 AT SCF   CYCLE   1 - MIX   30 %
 TTTTTTTTTTTTTTTTTTTTTTTTTTTTTT FDIK        TELAPSE      245.58 TCPU      215.67
 INSULATING STATE
 TOP OF VALENCE BANDS -    BAND    228; K    4; EIG -8.7097763E-02 AU
 TOP OF VALENCE BANDS -    BAND    228; K    1; EIG -8.7622286E-02 AU
 BOTTOM OF VIRTUAL BANDS - BAND    229; K    6; EIG -7.4035605E-02 AU
 INDIRECT ENERGY BAND GAP:   0.3554 eV
 BOTTOM OF VIRTUAL BANDS - BAND    229; K    1; EIG -7.3251422E-02 AU
 TTTTTTTTTTTTTTTTTTTTTTTTTTTTTT PDIG        TELAPSE      246.28 TCPU      216.36
 CHARGE NORMALIZATION FACTOR   1.00000000
 TOTAL ATOMIC CHARGES:
   8.8879809   8.8879809   8.8879809   8.8879809   8.8640970   8.8640970
   8.8640970   8.8640970   8.8035518   8.8035518   8.8035518   8.8035518
   1.2754080   1.2754080   1.2754080   1.2754080   6.3974241   6.3974241
   6.3974241   6.3974241   6.6845058   6.6845058   6.6845058   6.6845058
   6.5308833   6.5308833   6.5308833   6.5308833   6.0535804   6.0535804
   6.0535804   6.0535804   6.2955326   6.2955326   6.2955326   6.2955326
   6.0428731   6.0428731   6.0428731   6.0428731   7.2774627   7.2774627
   7.2774627   7.2774627   6.9090433   6.9090433   6.9090433   6.9090433
   7.2814770   7.2814770   7.2814770   7.2814770   6.9390738   6.9390738
   6.9390738   6.9390738   4.8341599   4.8341599   4.8341599   4.8341599
  29.8623652  29.8294208
 TTTTTTTTTTTTTTTTTTTTTTTTTTTTTT MOQGAD      TELAPSE      246.32 TCPU      216.41
 TTTTTTTTTTTTTTTTTTTTTTTTTTTTTT SHELLXN     TELAPSE      317.89 TCPU      283.56
 TTTTTTTTTTTTTTTTTTTTTTTTTTTTTT MONMO3      TELAPSE      327.12 TCPU      292.75
 NUMERICALLY INTEGRATED DENSITY    456.0000994753
 TTTTTTTTTTTTTTTTTTTTTTTTTTTTTT NUMDFT      TELAPSE      333.64 TCPU      299.25
 CYC   2 ETOT(AU) -6.750990467055E+03 DETOT  8.37E+00 tst  6.76E-02 PX  6.86E-01
 TTTTTTTTTTTTTTTTTTTTTTTTTTTTTT DIIS        TELAPSE      333.82 TCPU      299.43
 DIIS TEST: 0.73040E+02 AT SCF   CYCLE   2 - DIIS ACTIVE - HISTORY:     2 CYCLES
 TTTTTTTTTTTTTTTTTTTTTTTTTTTTTT FDIK        TELAPSE      349.78 TCPU      313.20
 INSULATING STATE
 TOP OF VALENCE BANDS -    BAND    228; K    5; EIG -1.8871227E-01 AU
 TOP OF VALENCE BANDS -    BAND    228; K    1; EIG -1.9027641E-01 AU
 BOTTOM OF VIRTUAL BANDS - BAND    229; K    1; EIG -8.8086770E-02 AU
 INDIRECT ENERGY BAND GAP:   2.7382 eV
 TTTTTTTTTTTTTTTTTTTTTTTTTTTTTT PDIG        TELAPSE      350.48 TCPU      313.90
 CHARGE NORMALIZATION FACTOR   1.00000000
 TOTAL ATOMIC CHARGES:
   8.7366107   8.7366107   8.7366107   8.7366107   8.7533377   8.7533377
   8.7533377   8.7533377   8.7652707   8.7652707   8.7652707   8.7652707
   1.2896746   1.2896746   1.2896746   1.2896746   5.9530755   5.9530755
   5.9530755   5.9530755   6.1642070   6.1642070   6.1642070   6.1642070
   5.9782113   5.9782113   5.9782113   5.9782113   6.2804554   6.2804554
   6.2804554   6.2804554   6.1079731   6.1079731   6.1079731   6.1079731
   5.9252325   5.9252325   5.9252325   5.9252325   6.8067140   6.8067140
   6.8067140   6.8067140   7.1244591   7.1244591   7.1244591   7.1244591
   6.7175101   6.7175101   6.7175101   6.7175101   6.9940539   6.9940539
   6.9940539   6.9940539   7.5383329   7.5383329   7.5383329   7.5383329
  29.7681494  29.6913764
 TTTTTTTTTTTTTTTTTTTTTTTTTTTTTT MOQGAD      TELAPSE      350.53 TCPU      313.95
 TTTTTTTTTTTTTTTTTTTTTTTTTTTTTT SHELLXN     TELAPSE      420.12 TCPU      381.16
 TTTTTTTTTTTTTTTTTTTTTTTTTTTTTT MONMO3      TELAPSE      429.27 TCPU      390.28
 NUMERICALLY INTEGRATED DENSITY    456.0000725629
 TTTTTTTTTTTTTTTTTTTTTTTTTTTTTT NUMDFT      TELAPSE      435.69 TCPU      396.68
 CYC   3 ETOT(AU) -6.759692032088E+03 DETOT -8.70E+00 tst  1.48E-01 PX  4.77E-01
 TTTTTTTTTTTTTTTTTTTTTTTTTTTTTT DIIS        TELAPSE      435.86 TCPU      396.84
 DIIS TEST: 0.98996E+01 AT SCF   CYCLE   3 - DIIS ACTIVE - HISTORY:     3 CYCLES
 TTTTTTTTTTTTTTTTTTTTTTTTTTTTTT FDIK        TELAPSE      451.30 TCPU      409.94
 INSULATING STATE
 TOP OF VALENCE BANDS -    BAND    228; K    5; EIG -1.9521993E-01 AU
 TOP OF VALENCE BANDS -    BAND    228; K    1; EIG -1.9629152E-01 AU
 BOTTOM OF VIRTUAL BANDS - BAND    229; K    6; EIG -9.1825354E-02 AU
 INDIRECT ENERGY BAND GAP:   2.8135 eV
 BOTTOM OF VIRTUAL BANDS - BAND    229; K    1; EIG -9.1141184E-02 AU
 TTTTTTTTTTTTTTTTTTTTTTTTTTTTTT PDIG        TELAPSE      451.98 TCPU      410.62
 CHARGE NORMALIZATION FACTOR   1.00000000
 TOTAL ATOMIC CHARGES:
   8.9426357   8.9426357   8.9426357   8.9426357   8.8737553   8.8737553
   8.8737553   8.8737553   8.9221325   8.9221325   8.9221325   8.9221325
   1.3357591   1.3357591   1.3357591   1.3357591   6.4059587   6.4059587
   6.4059587   6.4059587   5.8335796   5.8335796   5.8335796   5.8335796
   5.9756971   5.9756971   5.9756971   5.9756971   6.0240162   6.0240162
   6.0240162   6.0240162   5.6942727   5.6942727   5.6942727   5.6942727
   5.8614593   5.8614593   5.8614593   5.8614593   7.2445332   7.2445332
   7.2445332   7.2445332   6.9762797   6.9762797   6.9762797   6.9762797
   7.3696790   7.3696790   7.3696790   7.3696790   7.0983469   7.0983469
   7.0983469   7.0983469   7.0067676   7.0067676   7.0067676   7.0067676
  28.8470283  28.8934809
 TTTTTTTTTTTTTTTTTTTTTTTTTTTTTT MOQGAD      TELAPSE      452.03 TCPU      410.67
 TTTTTTTTTTTTTTTTTTTTTTTTTTTTTT SHELLXN     TELAPSE      521.48 TCPU      477.81
 TTTTTTTTTTTTTTTTTTTTTTTTTTTTTT MONMO3      TELAPSE      530.77 TCPU      487.04
 NUMERICALLY INTEGRATED DENSITY    456.0000677968
 TTTTTTTTTTTTTTTTTTTTTTTTTTTTTT NUMDFT      TELAPSE      537.11 TCPU      493.37
 CYC   4 ETOT(AU) -6.761355733783E+03 DETOT -1.66E+00 tst  8.08E-03 PX  5.04E-01
 TTTTTTTTTTTTTTTTTTTTTTTTTTTTTT DIIS        TELAPSE      537.28 TCPU      493.53
 DIIS TEST: 0.15981E+01 AT SCF   CYCLE   4 - DIIS ACTIVE - HISTORY:     4 CYCLES
 TTTTTTTTTTTTTTTTTTTTTTTTTTTTTT FDIK        TELAPSE      551.88 TCPU      505.97
 INSULATING STATE
 TOP OF VALENCE BANDS -    BAND    228; K    4; EIG -1.9666213E-01 AU
 TOP OF VALENCE BANDS -    BAND    228; K    1; EIG -1.9704606E-01 AU
 BOTTOM OF VIRTUAL BANDS - BAND    229; K    1; EIG -1.0257380E-01 AU
 INDIRECT ENERGY BAND GAP:   2.5603 eV
 TTTTTTTTTTTTTTTTTTTTTTTTTTTTTT PDIG        TELAPSE      552.57 TCPU      506.66
 CHARGE NORMALIZATION FACTOR   1.00000000
 TOTAL ATOMIC CHARGES:
   8.8827747   8.8827747   8.8827747   8.8827747   8.9171562   8.9171562
   8.9171562   8.9171562   8.8791154   8.8791154   8.8791154   8.8791154
   1.2995661   1.2995661   1.2995661   1.2995661   6.3554468   6.3554468
   6.3554468   6.3554468   5.9451594   5.9451594   5.9451594   5.9451594
   5.8248234   5.8248234   5.8248234   5.8248234   6.2664374   6.2664374
   6.2664374   6.2664374   5.7804806   5.7804806   5.7804806   5.7804806
   5.7334724   5.7334724   5.7334724   5.7334724   7.3411715   7.3411715
   7.3411715   7.3411715   7.2533543   7.2533543   7.2533543   7.2533543
   7.0314084   7.0314084   7.0314084   7.0314084   6.9497331   6.9497331
   6.9497331   6.9497331   7.0819878   7.0819878   7.0819878   7.0819878
  28.9326518  28.8989983
 TTTTTTTTTTTTTTTTTTTTTTTTTTTTTT MOQGAD      TELAPSE      552.62 TCPU      506.71
 TTTTTTTTTTTTTTTTTTTTTTTTTTTTTT SHELLXN     TELAPSE      622.02 TCPU      573.72
 TTTTTTTTTTTTTTTTTTTTTTTTTTTTTT MONMO3      TELAPSE      632.98 TCPU      584.62
 NUMERICALLY INTEGRATED DENSITY    456.0000644428
 TTTTTTTTTTTTTTTTTTTTTTTTTTTTTT NUMDFT      TELAPSE      639.40 TCPU      591.02
 CYC   5 ETOT(AU) -6.761404798235E+03 DETOT -4.91E-02 tst  1.48E-03 PX  1.02E-01
 TTTTTTTTTTTTTTTTTTTTTTTTTTTTTT DIIS        TELAPSE      639.57 TCPU      591.19
 DIIS TEST: 0.12962E+01 AT SCF   CYCLE   5 - DIIS ACTIVE - HISTORY:     5 CYCLES
 TTTTTTTTTTTTTTTTTTTTTTTTTTTTTT FDIK        TELAPSE      654.96 TCPU      604.40
 INSULATING STATE
 TOP OF VALENCE BANDS -    BAND    228; K    2; EIG -2.0007710E-01 AU
 TOP OF VALENCE BANDS -    BAND    228; K    1; EIG -2.0058373E-01 AU
 BOTTOM OF VIRTUAL BANDS - BAND    229; K    1; EIG -9.4294609E-02 AU
 INDIRECT ENERGY BAND GAP:   2.8785 eV
 TTTTTTTTTTTTTTTTTTTTTTTTTTTTTT PDIG        TELAPSE      655.65 TCPU      605.09
 CHARGE NORMALIZATION FACTOR   1.00000000
 TOTAL ATOMIC CHARGES:
   8.8941431   8.8941431   8.8941431   8.8941431   8.8761602   8.8761602
   8.8761602   8.8761602   8.8847708   8.8847708   8.8847708   8.8847708
   1.3008136   1.3008136   1.3008136   1.3008136   6.3238819   6.3238819
   6.3238819   6.3238819   5.9410916   5.9410916   5.9410916   5.9410916
   5.9036585   5.9036585   5.9036585   5.9036585   6.1888027   6.1888027
   6.1888027   6.1888027   5.7250581   5.7250581   5.7250581   5.7250581
   5.7930929   5.7930929   5.7930929   5.7930929   7.1415664   7.1415664
   7.1415664   7.1415664   7.0606344   7.0606344   7.0606344   7.0606344
   7.2155572   7.2155572   7.2155572   7.2155572   7.1206189   7.1206189
   7.1206189   7.1206189   7.1618546   7.1618546   7.1618546   7.1618546
  28.9318330  28.9413469
 TTTTTTTTTTTTTTTTTTTTTTTTTTTTTT MOQGAD      TELAPSE      655.70 TCPU      605.14
 TTTTTTTTTTTTTTTTTTTTTTTTTTTTTT SHELLXN     TELAPSE      725.18 TCPU      672.20
 TTTTTTTTTTTTTTTTTTTTTTTTTTTTTT MONMO3      TELAPSE      734.03 TCPU      681.01
 NUMERICALLY INTEGRATED DENSITY    456.0000691351
 TTTTTTTTTTTTTTTTTTTTTTTTTTTTTT NUMDFT      TELAPSE      740.45 TCPU      687.40
 CYC   6 ETOT(AU) -6.761579578751E+03 DETOT -1.75E-01 tst  7.17E-04 PX  6.84E-02
 TTTTTTTTTTTTTTTTTTTTTTTTTTTTTT DIIS        TELAPSE      740.62 TCPU      687.57
 DIIS TEST: 0.11083E+00 AT SCF   CYCLE   6 - DIIS ACTIVE - HISTORY:     6 CYCLES
 TTTTTTTTTTTTTTTTTTTTTTTTTTTTTT FDIK        TELAPSE      755.18 TCPU      699.89
 INSULATING STATE
 TOP OF VALENCE BANDS -    BAND    228; K    2; EIG -2.0184286E-01 AU
 TOP OF VALENCE BANDS -    BAND    228; K    1; EIG -2.0244359E-01 AU
 BOTTOM OF VIRTUAL BANDS - BAND    229; K    1; EIG -9.2331838E-02 AU
 INDIRECT ENERGY BAND GAP:   2.9799 eV
 TTTTTTTTTTTTTTTTTTTTTTTTTTTTTT PDIG        TELAPSE      755.87 TCPU      700.58
 CHARGE NORMALIZATION FACTOR   1.00000000
 TOTAL ATOMIC CHARGES:
   8.8870733   8.8870733   8.8870733   8.8870733   8.8677910   8.8677910
   8.8677910   8.8677910   8.8858424   8.8858424   8.8858424   8.8858424
   1.3084842   1.3084842   1.3084842   1.3084842   6.3220926   6.3220926
   6.3220926   6.3220926   5.9148138   5.9148138   5.9148138   5.9148138
   5.9328611   5.9328611   5.9328611   5.9328611   6.1101997   6.1101997
   6.1101997   6.1101997   5.7494957   5.7494957   5.7494957   5.7494957
   5.8307745   5.8307745   5.8307745   5.8307745   7.2289030   7.2289030
   7.2289030   7.2289030   7.0948937   7.0948937   7.0948937   7.0948937
   7.1857858   7.1857858   7.1857858   7.1857858   7.0387442   7.0387442
   7.0387442   7.0387442   7.1799103   7.1799103   7.1799103   7.1799103
  28.9222533  28.9270861
 TTTTTTTTTTTTTTTTTTTTTTTTTTTTTT MOQGAD      TELAPSE      755.92 TCPU      700.63
 TTTTTTTTTTTTTTTTTTTTTTTTTTTTTT SHELLXN     TELAPSE      825.23 TCPU      767.66
 TTTTTTTTTTTTTTTTTTTTTTTTTTTTTT MONMO3      TELAPSE      834.24 TCPU      776.64
 NUMERICALLY INTEGRATED DENSITY    456.0000690089
 TTTTTTTTTTTTTTTTTTTTTTTTTTTTTT NUMDFT      TELAPSE      840.68 TCPU      783.06
 CYC   7 ETOT(AU) -6.761592226093E+03 DETOT -1.26E-02 tst  9.50E-05 PX  2.71E-02
 TTTTTTTTTTTTTTTTTTTTTTTTTTTTTT DIIS        TELAPSE      845.15 TCPU      787.52
 DIIS TEST: 0.27470E-01 AT SCF   CYCLE   7 - DIIS ACTIVE - HISTORY:     7 CYCLES
[...]
  61 ZN   4     2.9173     5.5129   45 N   -1-1 0   46 N    0-1 1   47 N    0-1 0
                                    48 N    0 0 1
  61 ZN   4     2.9310     5.5387    5 F    0-1 1    6 F   -1-1 0    7 F    0 0 1
                                     8 F    0-1 0
  61 ZN   4     3.1248     5.9050   21 C    0-1 1   22 C   -1-1 0   23 C    0 0 1
                                    24 C    0-1 0
  61 ZN   4     3.4187     6.4604   33 C    0-1 1   34 C   -1-1 0   35 C    0 0 1
                                    36 C    0-1 0
  61 ZN   4     3.5757     6.7572   17 C    0-1 1   18 C   -1-1 0   19 C    0 0 1
                                    20 C    0-1 0

  62 ZN   4     1.9863     3.7535   49 N    1 1 0   50 N    1 1 0   51 N    0 0 0
                                    52 N    0 0 0
  62 ZN   4     2.8396     5.3661   53 N    0 1 0   54 N    1 0 0   55 N    0 0-1
                                    56 N    1 1 1
  62 ZN   4     3.1346     5.9235   21 C    1 1 1   22 C    0 0-1   23 C    0 1 0
                                    24 C    1 0 0
  62 ZN   4     3.3005     6.2370    1 F    1 1 0    2 F    1 1 0    3 F    0 0 0
                                     4 F    0 0 0
  62 ZN   4     3.7702     7.1247   17 C    1 1 1   18 C    0 0-1   19 C    0 1 0
                                    20 C    1 0 0
  62 ZN   4     3.9052     7.3798   25 C    1 1 1   26 C    0 0-1   27 C    0 1 0
                                    28 C    1 0 0


 FINAL OPTIMIZED GEOMETRY - DIMENSIONALITY OF THE SYSTEM      3
 (NON PERIODIC DIRECTION: LATTICE PARAMETER FORMALLY SET TO 500)
 *******************************************************************************
 LATTICE PARAMETERS (ANGSTROMS AND DEGREES) - BOHR = 0.5291772083 ANGSTROM
 PRIMITIVE CELL - CENTRING CODE 6/0 VOLUME=   710.835197 - DENSITY  2.168 g/cm^3
         A              B              C           ALPHA      BETA       GAMMA 
     9.82445998     9.82445998     9.82445998   115.163459 115.163459  98.603499
 *******************************************************************************
 ATOMS IN THE ASYMMETRIC UNIT   17 - ATOMS IN THE UNIT CELL:   62
     ATOM                 X/A                 Y/B                 Z/C    
 *******************************************************************************
      1 T   9 F    -1.021242452874E-01 -2.854017265107E-01  3.036392371127E-01
      2 F   9 F     4.109590363766E-01 -4.057634824001E-01 -3.036392371127E-01
      3 F   9 F     2.854017265107E-01 -4.109590363766E-01  1.832774812233E-01
      4 F   9 F     4.057634824001E-01  1.021242452874E-01 -1.832774812233E-01
      5 T   9 F    -2.851923467757E-01  4.333805427559E-02 -3.624067544433E-01
      6 F   9 F     4.057448087189E-01  7.721440766767E-02  3.624067544433E-01
      7 F   9 F    -4.333805427559E-02 -4.057448087189E-01 -3.285304010513E-01
      8 F   9 F    -7.721440766767E-02  2.851923467757E-01  3.285304010513E-01
      9 T   9 F     1.576930026891E-01 -2.137323647587E-01 -3.799402547079E-01
     10 F   9 F     1.662078899493E-01 -4.623667426030E-01  3.799402547079E-01
     11 F   9 F     2.137323647587E-01 -1.662078899493E-01  3.714253674478E-01
     12 F   9 F     4.623667426030E-01 -1.576930026891E-01 -3.714253674478E-01
     13 T   1 H     1.718898498200E-01 -3.272863100849E-03 -8.897017270683E-02
     14 F   1 H     8.569730960598E-02  2.608600225268E-01  8.897017270683E-02
     15 F   1 H     3.272863100849E-03 -8.569730960598E-02  1.751627129209E-01
     16 F   1 H    -2.608600225268E-01 -1.718898498200E-01 -1.751627129209E-01
     17 T   6 C    -1.992238226987E-01 -1.153098961613E-01  4.599453558142E-01
     18 F   6 C     4.247447480246E-01  3.408308214872E-01 -4.599453558142E-01
     19 F   6 C     1.153098961613E-01 -4.247447480246E-01 -8.391392653739E-02
     20 F   6 C    -3.408308214872E-01  1.992238226987E-01  8.391392653739E-02
     21 T   6 C    -3.264362710797E-01 -1.251804021147E-01  3.040156963966E-01
     22 F   6 C    -4.291960985113E-01  3.695480325236E-01 -3.040156963966E-01
     23 F   6 C     1.251804021147E-01  4.291960985113E-01 -2.012558689651E-01
     24 F   6 C    -3.695480325236E-01  3.264362710797E-01  2.012558689651E-01
     25 T   6 C    -8.529166393417E-02 -1.853128893770E-01  4.592310068190E-01
     26 F   6 C     3.554561038040E-01  4.554773292469E-01 -4.592310068190E-01
     27 F   6 C     1.853128893770E-01 -3.554561038040E-01  1.000212254428E-01
     28 F   6 C    -4.554773292469E-01  8.529166393417E-02 -1.000212254428E-01
     29 T   6 C     6.736030563764E-02 -3.851170254032E-02 -2.180968765493E-01
     30 F   6 C     1.795851740089E-01  2.854571821869E-01  2.180968765493E-01
     31 F   6 C     3.851170254032E-02 -1.795851740089E-01  1.058720081780E-01
     32 F   6 C    -2.854571821869E-01 -6.736030563764E-02 -1.058720081780E-01
     33 T   6 C    -1.711781798651E-01 -1.597720216819E-02 -3.693554912727E-01
     34 F   6 C     3.533782891045E-01  1.981773114075E-01  3.693554912727E-01
     35 F   6 C     1.597720216819E-02 -3.533782891045E-01 -1.552009776969E-01
     36 F   6 C    -1.981773114075E-01  1.711781798651E-01  1.552009776969E-01
     37 T   6 C     2.322294386051E-01  4.278713287038E-01  3.792956431444E-01
     38 F   6 C     4.857568555945E-02 -1.470662045393E-01 -3.792956431444E-01
     39 F   6 C    -4.278713287038E-01 -4.857568555945E-02 -1.956418900987E-01
     40 F   6 C     1.470662045393E-01 -2.322294386051E-01  1.956418900987E-01
     41 T   7 N    -3.531877846934E-01  8.173195318117E-03  3.103883931454E-01
     42 F   7 N    -3.022151978272E-01  3.364238221612E-01 -3.103883931454E-01
     43 F   7 N    -8.173195318117E-03  3.022151978272E-01 -3.613609800116E-01
     44 F   7 N    -3.364238221612E-01  3.531877846934E-01  3.613609800116E-01
     45 T   7 N    -4.810291908065E-01 -4.551975239168E-02  1.418635295027E-01
     46 F   7 N    -1.873832818944E-01  3.771072796908E-01 -1.418635295027E-01
     47 F   7 N     4.551975239168E-02  1.873832818944E-01 -4.355094384148E-01
     48 F   7 N    -3.771072796908E-01  4.810291908065E-01  4.355094384148E-01
     49 T   7 N    -4.336409627386E-01 -2.583315120338E-01  1.354565763623E-01
     50 F   7 N    -3.937880883961E-01  4.309024608991E-01 -1.354565763623E-01
     51 F   7 N     2.583315120338E-01  3.937880883961E-01 -1.753094507048E-01
     52 F   7 N    -4.309024608991E-01  4.336409627386E-01  1.753094507048E-01
     53 T   7 N     4.706255066966E-01 -2.050082646123E-01  3.665011733014E-02
     54 F   7 N    -2.416583819424E-01  4.339753893665E-01 -3.665011733014E-02
     55 F   7 N     2.050082646123E-01  2.416583819424E-01 -3.243662286911E-01
     56 F   7 N    -4.339753893665E-01 -4.706255066966E-01  3.243662286911E-01
     57 T   7 N    -4.504177204481E-02  2.489118334204E-02 -2.151958442012E-01
     58 F   7 N     2.400870275433E-01  1.701540721564E-01  2.151958442012E-01
     59 F   7 N    -2.489118334204E-02 -2.400870275433E-01 -6.993295538684E-02
     60 F   7 N    -1.701540721564E-01  4.504177204481E-02  6.993295538684E-02
     61 T  30 ZN   -2.500000000000E-01  2.500000000000E-01  5.000000000000E-01
     62 T  30 ZN   -5.000000000000E-01  5.000000000000E-01  2.889375571893E-19

 TRANSFORMATION MATRIX PRIMITIVE-CRYSTALLOGRAPHIC CELL
  0.0000  1.0000  1.0000  1.0000  0.0000  1.0000  1.0000  1.0000  0.0000

 *******************************************************************************
 CRYSTALLOGRAPHIC CELL (VOLUME=       1421.67039456)
         A              B              C           ALPHA      BETA       GAMMA 
    10.53370759    10.53370759    12.81257449    90.000000  90.000000  90.000000

 COORDINATES IN THE CRYSTALLOGRAPHIC CELL
     ATOM                 X/A                 Y/B                 Z/C    
 *******************************************************************************
      1 T   9 F     6.018087794470E-02  2.434583591680E-01 -3.455826044554E-01
      2 F   9 F    -6.018087794470E-02 -2.434583591680E-01 -3.455826044554E-01
      3 F   9 F     2.434583591680E-01 -6.018087794470E-02  3.455826044554E-01
      4 F   9 F    -2.434583591680E-01  6.018087794470E-02  3.455826044554E-01
      5 T   9 F    -1.693817669604E-02 -3.454685777473E-01  6.027623097163E-02
      6 F   9 F     1.693817669604E-02  3.454685777473E-01  6.027623097163E-02
      7 F   9 F    -3.454685777473E-01  1.693817669604E-02 -6.027623097163E-02
      8 F   9 F     3.454685777473E-01 -1.693817669604E-02 -6.027623097163E-02
      9 T   9 F    -3.756828110778E-01 -4.257443630087E-03  1.619504463192E-01
     10 F   9 F     3.756828110778E-01  4.257443630087E-03  1.619504463192E-01
     11 F   9 F    -4.257443630087E-03  3.756828110778E-01 -1.619504463192E-01
     12 F   9 F     4.257443630087E-03 -3.756828110778E-01 -1.619504463192E-01
     13 T   1 H    -1.320664428138E-01  4.309627010701E-02  1.287935797130E-01
     14 F   1 H     1.320664428138E-01 -4.309627010701E-02  1.287935797130E-01
     15 F   1 H     4.309627010701E-02  1.320664428138E-01 -1.287935797130E-01
     16 F   1 H    -4.309627010701E-02 -1.320664428138E-01 -1.287935797130E-01
     17 T   6 C    -2.280703588242E-01 -3.119842853616E-01  1.127604626630E-01
     18 F   6 C     2.280703588242E-01  3.119842853616E-01  1.127604626630E-01
     19 F   6 C    -3.119842853616E-01  2.280703588242E-01 -1.127604626630E-01
     20 F   6 C     3.119842853616E-01 -2.280703588242E-01 -1.127604626630E-01
     21 T   6 C    -2.473642173191E-01 -4.486200862842E-01  1.221838152045E-01
     22 F   6 C     2.473642173191E-01  4.486200862842E-01  1.221838152045E-01
     23 F   6 C    -4.486200862842E-01  2.473642173191E-01 -1.221838152045E-01
     24 F   6 C     4.486200862842E-01 -2.473642173191E-01 -1.221838152045E-01
     25 T   6 C    -3.203951093119E-01 -2.203738838691E-01  1.350822199349E-01
     26 F   6 C     3.203951093119E-01  2.203738838691E-01  1.350822199349E-01
     27 F   6 C    -2.203738838691E-01  3.203951093119E-01 -1.350822199349E-01
     28 F   6 C     2.203738838691E-01 -3.203951093119E-01 -1.350822199349E-01
     29 T   6 C    -1.619844423636E-01 -5.611243418565E-02  1.234727398233E-01
     30 F   6 C     1.619844423636E-01  5.611243418565E-02  1.234727398233E-01
     31 F   6 C    -5.611243418565E-02  1.619844423636E-01 -1.234727398233E-01
     32 F   6 C     5.611243418565E-02 -1.619844423636E-01 -1.234727398233E-01
     33 T   6 C    -1.070772567879E-01 -2.622782344848E-01  9.110005461967E-02
     34 F   6 C     1.070772567879E-01  2.622782344848E-01  9.110005461967E-02
     35 F   6 C    -2.622782344848E-01  1.070772567879E-01 -9.110005461967E-02
     36 F   6 C     2.622782344848E-01 -1.070772567879E-01 -9.110005461967E-02
     37 T   6 C     2.874687666215E-01  9.182687652281E-02  1.404025620823E-01
     38 F   6 C    -2.874687666215E-01 -9.182687652281E-02  1.404025620823E-01
     39 F   6 C     9.182687652281E-02 -2.874687666215E-01 -1.404025620823E-01
     40 F   6 C    -9.182687652281E-02  2.874687666215E-01 -1.404025620823E-01
     41 T   7 N    -1.641253134215E-01  4.745137065669E-01  1.722985087397E-01
     42 F   7 N     1.641253134215E-01 -4.745137065669E-01  1.722985087397E-01
     43 F   7 N     4.745137065669E-01  1.641253134215E-01 -1.722985087397E-01
     44 F   7 N    -4.745137065669E-01 -1.641253134215E-01 -1.722985087397E-01
     45 T   7 N    -2.113135160412E-01  3.531770455440E-01  1.657937636495E-01
     46 F   7 N     2.113135160412E-01 -3.531770455440E-01  1.657937636495E-01
     47 F   7 N     3.531770455440E-01  2.113135160412E-01 -1.657937636495E-01
     48 F   7 N    -3.531770455440E-01 -2.113135160412E-01 -1.657937636495E-01
     49 T   7 N     1.553830135335E-01 -1.992643717122E-02 -4.137145255674E-01
     50 F   7 N    -1.553830135335E-01  1.992643717122E-02 -4.137145255674E-01
     51 F   7 N    -1.992643717122E-02 -1.553830135335E-01  4.137145255674E-01
     52 F   7 N     1.992643717122E-02  1.553830135335E-01  4.137145255674E-01
     53 T   7 N    -3.194918269894E-01  3.561419443195E-01  1.144835623771E-01
     54 F   7 N     3.194918269894E-01 -3.561419443195E-01  1.144835623771E-01
     55 F   7 N     3.561419443195E-01  3.194918269894E-01 -1.144835623771E-01
     56 F   7 N    -3.561419443195E-01 -3.194918269894E-01 -1.144835623771E-01
     57 T   7 N    -7.263144440720E-02 -1.425643997940E-01  9.752262774924E-02
     58 F   7 N     7.263144440720E-02  1.425643997940E-01  9.752262774924E-02
     59 F   7 N    -1.425643997940E-01  7.263144440720E-02 -9.752262774924E-02
     60 F   7 N     1.425643997940E-01 -7.263144440720E-02 -9.752262774924E-02
     61 T  30 ZN    4.626932236752E-17  5.000000000000E-01  2.500000000000E-01
     62 T  30 ZN    0.000000000000E+00  2.889375571893E-19  5.000000000000E-01

 T = ATOM BELONGING TO THE ASYMMETRIC UNIT
 INFORMATION **** fort.34 **** GEOMETRY OUTPUT FILE

 DIRECT LATTICE VECTORS CARTESIAN COMPONENTS (ANGSTROM)
          X                    Y                    Z
  -0.526685379269E+01   0.526685379269E+01   0.640628724256E+01
   0.526685379269E+01  -0.526685379269E+01   0.640628724256E+01
   0.526685379269E+01   0.526685379269E+01  -0.640628724256E+01


 CARTESIAN COORDINATES - PRIMITIVE CELL
 *******************************************************************************
 *      ATOM          X(ANGSTROM)         Y(ANGSTROM)         Z(ANGSTROM)
 *******************************************************************************
    1     9 F     6.339277705009E-01  2.564519164692E+00 -4.427802860345E+00
    2     9 F    -6.339277705009E-01 -2.564519164692E+00 -4.427802860345E+00
    3     9 F     2.564519164692E+00 -6.339277705009E-01  4.427802860345E+00
    4     9 F    -2.564519164692E+00  6.339277705009E-01  4.427802860345E+00
    5     9 F    -1.784218003455E-01 -3.639064977927E+00  7.722936990060E-01
    6     9 F     1.784218003455E-01  3.639064977927E+00  7.722936990060E-01
    7     9 F    -3.639064977927E+00  1.784218003455E-01 -7.722936990060E-01
    8     9 F     3.639064977927E+00 -1.784218003455E-01 -7.722936990060E-01
    9     9 F    -3.957332876748E+00 -4.484666626058E-02  2.075002156362E+00
   10     9 F     3.957332876748E+00  4.484666626058E-02  2.075002156362E+00
   11     9 F    -4.484666626058E-02  3.957332876748E+00 -2.075002156362E+00
   12     9 F     4.484666626058E-02 -3.957332876748E+00 -2.075002156362E+00
   13     1 H    -1.391149290442E+00  4.539635073278E-01  1.650177333277E+00
   14     1 H     1.391149290442E+00 -4.539635073278E-01  1.650177333277E+00
   15     1 H     4.539635073278E-01  1.391149290442E+00 -1.650177333277E+00
   16     1 H    -4.539635073278E-01 -1.391149290442E+00 -1.650177333277E+00
   17     6 C    -2.402426468747E+00 -3.286351233233E+00  1.444751826845E+00
   18     6 C     2.402426468747E+00  3.286351233233E+00  1.444751826845E+00
   19     6 C    -3.286351233233E+00  2.402426468747E+00 -1.444751826845E+00
   20     6 C     3.286351233233E+00 -2.402426468747E+00 -1.444751826845E+00
   21     6 C    -2.605662332326E+00 -4.725632805846E+00  1.565489233183E+00
   22     6 C     2.605662332326E+00  4.725632805846E+00  1.565489233183E+00
   23     6 C    -4.725632805846E+00  2.605662332326E+00 -1.565489233183E+00
   24     6 C     4.725632805846E+00 -2.605662332326E+00 -1.565489233183E+00
   25     6 C    -3.374948393278E+00 -2.321354052132E+00  1.730751004531E+00
   26     6 C     3.374948393278E+00  2.321354052132E+00  1.730751004531E+00
   27     6 C    -2.321354052132E+00  3.374948393278E+00 -1.730751004531E+00
   28     6 C     2.321354052132E+00 -3.374948393278E+00 -1.730751004531E+00
   29     6 C    -1.706296749239E+00 -5.910719736155E-01  1.582003675867E+00
   30     6 C     1.706296749239E+00  5.910719736155E-01  1.582003675867E+00
   31     6 C    -5.910719736155E-01  1.706296749239E+00 -1.582003675867E+00
   32     6 C     5.910719736155E-01 -1.706296749239E+00 -1.582003675867E+00
   33     6 C    -1.127920512048E+00 -2.762762228073E+00  1.167226235413E+00
   34     6 C     1.127920512048E+00  2.762762228073E+00  1.167226235413E+00
   35     6 C    -2.762762228073E+00  1.127920512048E+00 -1.167226235413E+00
   36     6 C     2.762762228073E+00 -1.127920512048E+00 -1.167226235413E+00
   37     6 C     3.028111927521E+00  9.672774657701E-01  1.798918284580E+00
   38     6 C    -3.028111927521E+00 -9.672774657701E-01  1.798918284580E+00
   39     6 C     9.672774657701E-01 -3.028111927521E+00 -1.798918284580E+00
   40     6 C    -9.672774657701E-01  3.028111927521E+00 -1.798918284580E+00
   41     7 N    -1.728848058941E+00  4.998388630231E+00  2.207587476901E+00
   42     7 N     1.728848058941E+00 -4.998388630231E+00  2.207587476901E+00
   43     7 N     4.998388630231E+00  1.728848058941E+00 -2.207587476901E+00
   44     7 N    -4.998388630231E+00 -1.728848058941E+00 -2.207587476901E+00
   45     7 N    -2.225914786817E+00  3.720263723629E+00  2.124244945927E+00
   46     7 N     2.225914786817E+00 -3.720263723629E+00  2.124244945927E+00
   47     7 N     3.720263723629E+00  2.225914786817E+00 -2.124244945927E+00
   48     7 N    -3.720263723629E+00 -2.225914786817E+00 -2.124244945927E+00
   49     7 N     1.636759228297E+00 -2.098992623800E-01 -5.300748174406E+00
   50     7 N    -1.636759228297E+00  2.098992623800E-01 -5.300748174406E+00
   51     7 N    -2.098992623800E-01 -1.636759228297E+00  5.300748174406E+00
   52     7 N     2.098992623800E-01  1.636759228297E+00  5.300748174406E+00
   53     7 N    -3.365433481425E+00  3.751495100350E+00  1.466829170278E+00
   54     7 N     3.365433481425E+00 -3.751495100350E+00  1.466829170278E+00
   55     7 N     3.751495100350E+00  3.365433481425E+00 -1.466829170278E+00
   56     7 N    -3.751495100350E+00 -3.365433481425E+00 -1.466829170278E+00
   57     7 N    -7.650783968892E-01 -1.501731699516E+00  1.249515932021E+00
   58     7 N     7.650783968892E-01  1.501731699516E+00  1.249515932021E+00
   59     7 N    -1.501731699516E+00  7.650783968892E-01 -1.249515932021E+00
   60     7 N     1.501731699516E+00 -7.650783968892E-01 -1.249515932021E+00
   61    30 ZN    4.873875119931E-16  5.266853792690E+00 -9.609430863836E+00
   62    30 ZN    0.000000000000E+00  3.043583737866E-18  6.406287242557E+00

 ****    4 SYMMOPS - TRANSLATORS IN FRACTIONAL UNITS
 **** MATRICES AND TRANSLATORS IN THE CRYSTALLOGRAPHIC REFERENCE FRAME
   V INV                    ROTATION MATRICES                   TRANSLATORS
   1   1  1.00  0.00  0.00  0.00  1.00  0.00  0.00  0.00  1.00  0.00  0.00  0.00
   2   2  0.00  1.00 -1.00  1.00 -0.00 -1.00 -0.00  0.00 -1.00  0.00  0.00  0.00
   3   4 -0.00 -1.00  0.00  0.00 -1.00  1.00  1.00 -1.00  0.00  0.00  0.00  0.00
   4   3 -1.00 -0.00  1.00 -1.00  0.00 -0.00 -1.00  1.00 -0.00  0.00  0.00  0.00
 TTTTTTTTTTTTTTTTTTTTTTTTTTTTTT END         TELAPSE    93399.02 TCPU    90031.53
 EEEEEEEEEE TERMINATION  DATE 19 11 2023 TIME 11:47:37.6
NODE    0 CPU TIME =     90031.531
NODE    1 CPU TIME =     90584.584
NODE    2 CPU TIME =     91216.981
NODE    3 CPU TIME =     90661.176
NODE    4 CPU TIME =     90919.786
NODE    5 CPU TIME =     90481.683
NODE    6 CPU TIME =     91065.214
NODE    7 CPU TIME =     90513.846
NODE    8 CPU TIME =     90707.895
NODE    9 CPU TIME =     90358.446
NODE   10 CPU TIME =     91010.814
NODE   11 CPU TIME =     90419.077
NODE   12 CPU TIME =     90490.936
NODE   13 CPU TIME =     90343.950
NODE   14 CPU TIME =     90645.635
NODE   15 CPU TIME =     90275.690
NODE   16 CPU TIME =     90271.089
NODE   17 CPU TIME =     90244.647
NODE   18 CPU TIME =     90711.248
NODE   19 CPU TIME =     90230.089
NODE   20 CPU TIME =     90392.073
NODE   21 CPU TIME =     90052.982
NODE   22 CPU TIME =     90485.850
NODE   23 CPU TIME =     90134.109
    TOTAL CPU TIME =   2172249.332
trying normal rsh (/usr/bin/rsh)
exec: No such file or directory
trying normal rsh (/usr/bin/rsh)
exec: No such file or directory
trying normal rsh (/usr/bin/rsh)
exec: No such file or directory
trying normal rsh (/usr/bin/rsh)
exec: No such file or directory
