Loading crystal17/1.0.2/intel/19.0
  Loading requirement: intel/19.0 ompi/4.0.1/intel/19.0
 PROCESS            3  OF           24  WORKING
 PROCESS            4  OF           24  WORKING
 PROCESS            5  OF           24  WORKING
 PROCESS           13  OF           24  WORKING
 PROCESS           15  OF           24  WORKING
 PROCESS           19  OF           24  WORKING
 PROCESS           20  OF           24  WORKING
 PROCESS           23  OF           24  WORKING
 PROCESS            0  OF           24  WORKING
 PROCESS            1  OF           24  WORKING
 PROCESS            2  OF           24  WORKING
 PROCESS            6  OF           24  WORKING
 PROCESS            7  OF           24  WORKING
 PROCESS            8  OF           24  WORKING
 PROCESS            9  OF           24  WORKING
 PROCESS           10  OF           24  WORKING
 PROCESS           12  OF           24  WORKING
 PROCESS           14  OF           24  WORKING
 PROCESS           17  OF           24  WORKING
 PROCESS           18  OF           24  WORKING
 PROCESS           21  OF           24  WORKING
 PROCESS           22  OF           24  WORKING
 PROCESS           11  OF           24  WORKING
 PROCESS           16  OF           24  WORKING

         
 *******************************************************************************
 *                                                                             *
 *                               CRYSTAL17                                     *
 *                      public : 1.0.2 - March 1st, 2018                       *
 *                       HTTP://WWW.CRYSTAL.UNITO.IT                           *
 *                                                                             *
 *                              MAIN AUTHORS                                   *
 *                                                                             *
 *  R. DOVESI(1,11), V.R. SAUNDERS(2), C. ROETTI(1,11), R. ORLANDO(1,11),      *
 *  C.M. ZICOVICH-WILSON(1,3), F. PASCALE(4), B. CIVALLERI(1,11),              *
 *  K. DOLL(5), N.M. HARRISON(2,6), I.J. BUSH(7), Ph. D'ARCO(8),               *
 *  M. LLUNELL(9), M. CAUSA'(10), Y. NOEL(8), L. MASCHIO(1,11), A. ERBA(1,11)  *
 *  M. RE'RAT(14), S. CASASSA(1,11)                                            *
 *                                                                             *
 *        CONTRIBUTIONS TO THE CODE HAVE ALSO BEEN GIVEN BY                    *
 *                                                                             *
 *  M. FERRABONE(1,11), M. DE LA PIERRE(1,11), M. FERRERO(1,11),               *
 *  J. BAIMA(1,11), E. ALBANESE(1,11), M.F. PEINTINGER(12), R. BAST(13),       *
 *  B. KIRTMAN(15), V. LACIVITA(1,11), R. DEMICHELIS(1,16)                     *
 *  G. BRANDEBURG(17), S. SALUSTRO(1,11), G. SANSONE(1,11)                     *
 *  M.T. RUGGIERO(18)                                                          *
 *                                                                             *
 * (1) THEORETICAL CHEMISTRY GROUP - UNIVERSITA' DI TORINO - TORINO (ITALY)    *
 * (2) COMPUTATIONAL SCIENCE & ENGINEERING DEPARTMENT - STFC DARESBURY (UK)    *
 * (3) UNIVERSIDAD AUTONOMA DEL ESTADO DE MORELOS - CUERNAVACA (MEXICO)        *
 * (4) UNIVERSITE' DE LORRAINE - NANCY (FRANCE)                                *
 * (5) UNIVERSITAET STUTTGART- STUTTGART (GERMANY)                             *
 * (6) IMPERIAL COLLEGE - LONDON (UK)                                          *
 * (7) OXFORD E-RESEARCH CENTRE - OXFORD (UK)                                  *
 * (8) UPMC - SORBONNE UNIVERSITES - PARIS (FRANCE)                            *
 * (9) UNIVERSIDAD DE BARCELONA - BARCELONA (SPAIN)                            *
 *(10) UNIVERSITA' DI NAPOLI "FEDERICO II" - NAPOLI (ITALY)                    *
 *(11) NIS - NANOSTRUCTURED INTERFACES AND SURFACES - TORINO (ITALY)           *
 *(12) MPI FUER CHEMISCHE ENERGIEKONVERSION - MUELHEIM AN DER RUHR (GERMANY)   *
 *(13) UNIVERSITY OF TROMSO - TROMSO (NORWAY)                                  *
 *(14) UNIVERSITE' DE PAU ET DES PAYS DE L'ADOUR - PAU (FRANCE)                *
 *(15) UNIVERSITY OF CALIFORNIA SANTA BARBARA - SANTA BARBARA (USA)            *
 *(16) CURTIN UNIVERSITY - PERTH (AUSTRALIA)                                   *
 *(17) UNIVERSITY COLLEGE LONDON - LONDON (UK)                                 *
 *(18) CAMBRIDGE UNIVERSITY - CAMBRIDGE (UK)                                   *
 *                                                                             *
 *******************************************************************************
 EEEEEEEEEE STARTING  DATE 18 11 2023 TIME 17:08:53.1
 C:\Users\wilso\AppData\Local\Temp\tmp_p\newconn.mol                             

 CRYSTAL CALCULATION
 (INPUT ACCORDING TO THE INTERNATIONAL TABLES FOR X-RAY CRYSTALLOGRAPHY)
 CRYSTAL FAMILY                       :  TETRAGONAL  
 CRYSTAL CLASS  (GROTH - 1921)        :  TETRAGONAL DISPHENOIDAL              

 SPACE GROUP (NONCENTROSYMMETRIC)     :  I -4            

 LATTICE PARAMETERS  (ANGSTROMS AND DEGREES) - CONVENTIONAL CELL
        A           B           C        ALPHA        BETA       GAMMA
    10.15800    10.15800    13.29400    90.00000    90.00000    90.00000


 NUMBER OF IRREDUCIBLE ATOMS IN THE CONVENTIONAL CELL:  124

 INPUT COORDINATES

 ATOM AT. N.              COORDINATES
   1   9     5.576100000000E-01  7.373700000000E-01  1.366700000000E-01
   2   9     4.423900000000E-01  2.626300000000E-01  1.366700000000E-01
   3   9     7.373700000000E-01  4.423900000000E-01  8.633300000000E-01
   4   9     2.626300000000E-01  5.576100000000E-01  8.633300000000E-01
   5   9     5.761000000000E-02  2.373700000000E-01  6.366700000000E-01
   6   9     9.423900000000E-01  7.626300000000E-01  6.366700000000E-01
   7   9     2.373700000000E-01  9.423900000000E-01  3.633300000000E-01
   8   9     7.626300000000E-01  5.761000000000E-02  3.633300000000E-01
   9   9     9.759200000000E-01  6.751900000000E-01  9.083000000000E-02
  10   9     2.408000000000E-02  3.248100000000E-01  9.083000000000E-02
  11   9     6.751900000000E-01  2.408000000000E-02  9.091700000000E-01
  12   9     3.248100000000E-01  9.759200000000E-01  9.091700000000E-01
  13   9     4.759200000000E-01  1.751900000000E-01  5.908300000000E-01
  14   9     5.240800000000E-01  8.248100000000E-01  5.908300000000E-01
  15   9     1.751900000000E-01  5.240800000000E-01  4.091700000000E-01
  16   9     8.248100000000E-01  4.759200000000E-01  4.091700000000E-01
  17   1     6.058200000000E-01  9.805800000000E-01  1.369900000000E-01
  18   1     3.941800000000E-01  1.942000000000E-02  1.369900000000E-01
  19   1     9.805800000000E-01  3.941800000000E-01  8.630100000000E-01
  20   1     1.942000000000E-02  6.058200000000E-01  8.630100000000E-01
  21   1     1.058200000000E-01  4.805800000000E-01  6.369900000000E-01
  22   1     8.941800000000E-01  5.194200000000E-01  6.369900000000E-01
  23   1     4.805800000000E-01  8.941800000000E-01  3.630100000000E-01
  24   1     5.194200000000E-01  1.058200000000E-01  3.630100000000E-01
  25   9     8.420800000000E-01  5.709000000000E-02  1.240200000000E-01
  26   9     1.579200000000E-01  9.429100000000E-01  1.240200000000E-01
  27   9     5.709000000000E-02  1.579200000000E-01  8.759800000000E-01
  28   9     9.429100000000E-01  8.420800000000E-01  8.759800000000E-01
  29   9     3.420800000000E-01  5.570900000000E-01  6.240200000000E-01
  30   9     6.579200000000E-01  4.429100000000E-01  6.240200000000E-01
  31   9     5.570900000000E-01  6.579200000000E-01  3.759800000000E-01
  32   9     4.429100000000E-01  3.420800000000E-01  3.759800000000E-01
  33   6     2.646500000000E-01  1.859800000000E-01  6.165500000000E-01
  34   6     7.353500000000E-01  8.140200000000E-01  6.165500000000E-01
  35   6     1.859800000000E-01  7.353500000000E-01  3.834500000000E-01
  36   6     8.140200000000E-01  2.646500000000E-01  3.834500000000E-01
  37   6     7.646500000000E-01  6.859800000000E-01  1.165500000000E-01
  38   6     2.353500000000E-01  3.140200000000E-01  1.165500000000E-01
  39   6     6.859800000000E-01  2.353500000000E-01  8.834500000000E-01
  40   6     3.140200000000E-01  7.646500000000E-01  8.834500000000E-01
  41   6     2.514000000000E-01  4.317000000000E-02  6.230000000000E-01
  42   6     7.486000000000E-01  9.568300000000E-01  6.230000000000E-01
  43   6     4.317000000000E-02  7.486000000000E-01  3.770000000000E-01
  44   6     9.568300000000E-01  2.514000000000E-01  3.770000000000E-01
  45   6     7.514000000000E-01  5.431700000000E-01  1.230000000000E-01
  46   6     2.486000000000E-01  4.568300000000E-01  1.230000000000E-01
  47   6     5.431700000000E-01  2.486000000000E-01  8.770000000000E-01
  48   6     4.568300000000E-01  7.514000000000E-01  8.770000000000E-01
  49   6     6.583700000000E-01  7.736700000000E-01  1.273400000000E-01
  50   6     3.416300000000E-01  2.263300000000E-01  1.273400000000E-01
  51   6     7.736700000000E-01  3.416300000000E-01  8.726600000000E-01
  52   6     2.263300000000E-01  6.583700000000E-01  8.726600000000E-01
  53   6     1.583700000000E-01  2.736700000000E-01  6.273400000000E-01
  54   6     8.416300000000E-01  7.263300000000E-01  6.273400000000E-01
  55   6     2.736700000000E-01  8.416300000000E-01  3.726600000000E-01
  56   6     7.263300000000E-01  1.583700000000E-01  3.726600000000E-01
  57   6     8.156900000000E-01  9.525900000000E-01  1.204300000000E-01
  58   6     1.843100000000E-01  4.741000000000E-02  1.204300000000E-01
  59   6     9.525900000000E-01  1.843100000000E-01  8.795700000000E-01
  60   6     4.741000000000E-02  8.156900000000E-01  8.795700000000E-01
  61   6     3.156900000000E-01  4.525900000000E-01  6.204300000000E-01
  62   6     6.843100000000E-01  5.474100000000E-01  6.204300000000E-01
  63   6     4.525900000000E-01  6.843100000000E-01  3.795700000000E-01
  64   6     5.474100000000E-01  3.156900000000E-01  3.795700000000E-01
  65   6     3.914300000000E-01  2.396500000000E-01  6.044300000000E-01
  66   6     6.085700000000E-01  7.603500000000E-01  6.044300000000E-01
  67   6     2.396500000000E-01  6.085700000000E-01  3.955700000000E-01
  68   6     7.603500000000E-01  3.914300000000E-01  3.955700000000E-01
  69   6     8.914300000000E-01  7.396500000000E-01  1.044300000000E-01
  70   6     1.085700000000E-01  2.603500000000E-01  1.044300000000E-01
  71   6     7.396500000000E-01  1.085700000000E-01  8.955700000000E-01
  72   6     2.603500000000E-01  8.914300000000E-01  8.955700000000E-01
  73   6     3.150000000000E-01  9.141000000000E-02  1.282200000000E-01
  74   6     6.850000000000E-01  9.085900000000E-01  1.282200000000E-01
  75   6     9.141000000000E-02  6.850000000000E-01  8.717800000000E-01
  76   6     9.085900000000E-01  3.150000000000E-01  8.717800000000E-01
  77   6     8.150000000000E-01  5.914100000000E-01  6.282200000000E-01
  78   6     1.850000000000E-01  4.085900000000E-01  6.282200000000E-01
  79   6     5.914100000000E-01  1.850000000000E-01  3.717800000000E-01
  80   6     4.085900000000E-01  8.150000000000E-01  3.717800000000E-01
  81   7     8.407700000000E-01  4.628300000000E-01  1.672900000000E-01
  82   7     1.592300000000E-01  5.371700000000E-01  1.672900000000E-01
  83   7     4.628300000000E-01  1.592300000000E-01  8.327100000000E-01
  84   7     5.371700000000E-01  8.407700000000E-01  8.327100000000E-01
  85   7     3.407700000000E-01  9.628300000000E-01  6.672900000000E-01
  86   7     6.592300000000E-01  3.717000000000E-02  6.672900000000E-01
  87   7     9.628300000000E-01  6.592300000000E-01  3.327100000000E-01
  88   7     3.717000000000E-02  3.407700000000E-01  3.327100000000E-01
  89   7     2.940400000000E-01  8.358500000000E-01  6.597700000000E-01
  90   7     7.059600000000E-01  1.641500000000E-01  6.597700000000E-01
  91   7     8.358500000000E-01  7.059600000000E-01  3.402300000000E-01
  92   7     1.641500000000E-01  2.940400000000E-01  3.402300000000E-01
  93   7     7.940400000000E-01  3.358500000000E-01  1.597700000000E-01
  94   7     2.059600000000E-01  6.641500000000E-01  1.597700000000E-01
  95   7     3.358500000000E-01  2.059600000000E-01  8.402300000000E-01
  96   7     6.641500000000E-01  7.940400000000E-01  8.402300000000E-01
  97   7     1.518600000000E-01  9.677900000000E-01  5.884000000000E-01
  98   7     8.481400000000E-01  3.221000000000E-02  5.884000000000E-01
  99   7     9.677900000000E-01  8.481400000000E-01  4.116000000000E-01
 100   7     3.221000000000E-02  1.518600000000E-01  4.116000000000E-01
 101   7     6.518600000000E-01  4.677900000000E-01  8.840000000000E-02
 102   7     3.481400000000E-01  5.322100000000E-01  8.840000000000E-02
 103   7     4.677900000000E-01  3.481400000000E-01  9.116000000000E-01
 104   7     5.322100000000E-01  6.518600000000E-01  9.116000000000E-01
 105   7     1.800200000000E-01  8.388700000000E-01  6.128200000000E-01
 106   7     8.199800000000E-01  1.611300000000E-01  6.128200000000E-01
 107   7     8.388700000000E-01  8.199800000000E-01  3.871800000000E-01
 108   7     1.611300000000E-01  1.800200000000E-01  3.871800000000E-01
 109   7     6.800200000000E-01  3.388700000000E-01  1.128200000000E-01
 110   7     3.199800000000E-01  6.611300000000E-01  1.128200000000E-01
 111   7     3.388700000000E-01  3.199800000000E-01  8.871800000000E-01
 112   7     6.611300000000E-01  6.800200000000E-01  8.871800000000E-01
 113   7     9.174200000000E-01  8.687700000000E-01  1.079100000000E-01
 114   7     8.258000000000E-02  1.312300000000E-01  1.079100000000E-01
 115   7     8.687700000000E-01  8.258000000000E-02  8.920900000000E-01
 116   7     1.312300000000E-01  9.174200000000E-01  8.920900000000E-01
 117   7     4.174200000000E-01  3.687700000000E-01  6.079100000000E-01
 118   7     5.825800000000E-01  6.312300000000E-01  6.079100000000E-01
 119   7     3.687700000000E-01  5.825800000000E-01  3.920900000000E-01
 120   7     6.312300000000E-01  4.174200000000E-01  3.920900000000E-01
 121  30     0.000000000000E+00  5.000000000000E-01  2.500000000000E-01
 122  30     5.000000000000E-01  0.000000000000E+00  7.500000000000E-01
 123  30     0.000000000000E+00  0.000000000000E+00  5.000000000000E-01
 124  30     5.000000000000E-01  5.000000000000E-01  0.000000000000E+00

 *******************************************************************************

 << INFORMATION >>: FROM NOW ON, ALL COORDINATES REFER TO THE PRIMITIVE CELL

 *******************************************************************************

 LATTICE PARAMETERS  (ANGSTROMS AND DEGREES) - PRIMITIVE CELL
       A          B          C        ALPHA      BETA     GAMMA        VOLUME
    9.78647    9.78647    9.78647   117.47208 117.47208  94.43726    685.870456

 INPUT LIST - ATOM N.   2 NOT IRREDUCIBLE

 INPUT LIST - ATOM N.   3 NOT IRREDUCIBLE

 INPUT LIST - ATOM N.   4 NOT IRREDUCIBLE

 INPUT LIST - ATOM N.   1 NOT IRREDUCIBLE

 INPUT LIST - ATOM N.   2 NOT IRREDUCIBLE

 INPUT LIST - ATOM N.   3 NOT IRREDUCIBLE

 INPUT LIST - ATOM N.   4 NOT IRREDUCIBLE

 INPUT LIST - ATOM N.   6 NOT IRREDUCIBLE

 INPUT LIST - ATOM N.   7 NOT IRREDUCIBLE

 INPUT LIST - ATOM N.   8 NOT IRREDUCIBLE

 INPUT LIST - ATOM N.   5 NOT IRREDUCIBLE

 INPUT LIST - ATOM N.   6 NOT IRREDUCIBLE

 INPUT LIST - ATOM N.   7 NOT IRREDUCIBLE

 INPUT LIST - ATOM N.   8 NOT IRREDUCIBLE

 INPUT LIST - ATOM N.  10 NOT IRREDUCIBLE

 INPUT LIST - ATOM N.  11 NOT IRREDUCIBLE

 INPUT LIST - ATOM N.  12 NOT IRREDUCIBLE

 INPUT LIST - ATOM N.   9 NOT IRREDUCIBLE

 INPUT LIST - ATOM N.  10 NOT IRREDUCIBLE

 INPUT LIST - ATOM N.  11 NOT IRREDUCIBLE

 INPUT LIST - ATOM N.  12 NOT IRREDUCIBLE

 INPUT LIST - ATOM N.  14 NOT IRREDUCIBLE

 INPUT LIST - ATOM N.  15 NOT IRREDUCIBLE

 INPUT LIST - ATOM N.  16 NOT IRREDUCIBLE

 INPUT LIST - ATOM N.  13 NOT IRREDUCIBLE

 INPUT LIST - ATOM N.  14 NOT IRREDUCIBLE

 INPUT LIST - ATOM N.  15 NOT IRREDUCIBLE

 INPUT LIST - ATOM N.  16 NOT IRREDUCIBLE

 INPUT LIST - ATOM N.  18 NOT IRREDUCIBLE

 INPUT LIST - ATOM N.  19 NOT IRREDUCIBLE

 INPUT LIST - ATOM N.  20 NOT IRREDUCIBLE

 INPUT LIST - ATOM N.  17 NOT IRREDUCIBLE

 INPUT LIST - ATOM N.  18 NOT IRREDUCIBLE

 INPUT LIST - ATOM N.  19 NOT IRREDUCIBLE

 INPUT LIST - ATOM N.  20 NOT IRREDUCIBLE

 INPUT LIST - ATOM N.  22 NOT IRREDUCIBLE

 INPUT LIST - ATOM N.  23 NOT IRREDUCIBLE

 INPUT LIST - ATOM N.  24 NOT IRREDUCIBLE

 INPUT LIST - ATOM N.  21 NOT IRREDUCIBLE

 INPUT LIST - ATOM N.  22 NOT IRREDUCIBLE

 INPUT LIST - ATOM N.  23 NOT IRREDUCIBLE

 INPUT LIST - ATOM N.  24 NOT IRREDUCIBLE

 INPUT LIST - ATOM N.  26 NOT IRREDUCIBLE

 INPUT LIST - ATOM N.  27 NOT IRREDUCIBLE

 INPUT LIST - ATOM N.  28 NOT IRREDUCIBLE

 INPUT LIST - ATOM N.  25 NOT IRREDUCIBLE

 INPUT LIST - ATOM N.  26 NOT IRREDUCIBLE

 INPUT LIST - ATOM N.  27 NOT IRREDUCIBLE

 INPUT LIST - ATOM N.  28 NOT IRREDUCIBLE

 INPUT LIST - ATOM N.  30 NOT IRREDUCIBLE

 INPUT LIST - ATOM N.  31 NOT IRREDUCIBLE

 INPUT LIST - ATOM N.  32 NOT IRREDUCIBLE

 INPUT LIST - ATOM N.  29 NOT IRREDUCIBLE

 INPUT LIST - ATOM N.  30 NOT IRREDUCIBLE

 INPUT LIST - ATOM N.  31 NOT IRREDUCIBLE

 INPUT LIST - ATOM N.  32 NOT IRREDUCIBLE

 INPUT LIST - ATOM N.  34 NOT IRREDUCIBLE

 INPUT LIST - ATOM N.  35 NOT IRREDUCIBLE

 INPUT LIST - ATOM N.  36 NOT IRREDUCIBLE

 INPUT LIST - ATOM N.  33 NOT IRREDUCIBLE

 INPUT LIST - ATOM N.  34 NOT IRREDUCIBLE

 INPUT LIST - ATOM N.  35 NOT IRREDUCIBLE

 INPUT LIST - ATOM N.  36 NOT IRREDUCIBLE

 INPUT LIST - ATOM N.  38 NOT IRREDUCIBLE

 INPUT LIST - ATOM N.  39 NOT IRREDUCIBLE

 INPUT LIST - ATOM N.  40 NOT IRREDUCIBLE

 INPUT LIST - ATOM N.  37 NOT IRREDUCIBLE

 INPUT LIST - ATOM N.  38 NOT IRREDUCIBLE

 INPUT LIST - ATOM N.  39 NOT IRREDUCIBLE

 INPUT LIST - ATOM N.  40 NOT IRREDUCIBLE

 INPUT LIST - ATOM N.  42 NOT IRREDUCIBLE

 INPUT LIST - ATOM N.  43 NOT IRREDUCIBLE

 INPUT LIST - ATOM N.  44 NOT IRREDUCIBLE

 INPUT LIST - ATOM N.  41 NOT IRREDUCIBLE

 INPUT LIST - ATOM N.  42 NOT IRREDUCIBLE

 INPUT LIST - ATOM N.  43 NOT IRREDUCIBLE

 INPUT LIST - ATOM N.  44 NOT IRREDUCIBLE

 INPUT LIST - ATOM N.  46 NOT IRREDUCIBLE

 INPUT LIST - ATOM N.  47 NOT IRREDUCIBLE

 INPUT LIST - ATOM N.  48 NOT IRREDUCIBLE

 INPUT LIST - ATOM N.  45 NOT IRREDUCIBLE

 INPUT LIST - ATOM N.  46 NOT IRREDUCIBLE

 INPUT LIST - ATOM N.  47 NOT IRREDUCIBLE

 INPUT LIST - ATOM N.  48 NOT IRREDUCIBLE

 INPUT LIST - ATOM N.  50 NOT IRREDUCIBLE

 INPUT LIST - ATOM N.  51 NOT IRREDUCIBLE

 INPUT LIST - ATOM N.  52 NOT IRREDUCIBLE

 INPUT LIST - ATOM N.  49 NOT IRREDUCIBLE

 INPUT LIST - ATOM N.  50 NOT IRREDUCIBLE

 INPUT LIST - ATOM N.  51 NOT IRREDUCIBLE

 INPUT LIST - ATOM N.  52 NOT IRREDUCIBLE

 INPUT LIST - ATOM N.  54 NOT IRREDUCIBLE

 INPUT LIST - ATOM N.  55 NOT IRREDUCIBLE

 INPUT LIST - ATOM N.  56 NOT IRREDUCIBLE

 INPUT LIST - ATOM N.  53 NOT IRREDUCIBLE

 INPUT LIST - ATOM N.  54 NOT IRREDUCIBLE

 INPUT LIST - ATOM N.  55 NOT IRREDUCIBLE

 INPUT LIST - ATOM N.  56 NOT IRREDUCIBLE

 INPUT LIST - ATOM N.  58 NOT IRREDUCIBLE

 INPUT LIST - ATOM N.  59 NOT IRREDUCIBLE

 INPUT LIST - ATOM N.  60 NOT IRREDUCIBLE

 INPUT LIST - ATOM N.  57 NOT IRREDUCIBLE

 INPUT LIST - ATOM N.  58 NOT IRREDUCIBLE

 INPUT LIST - ATOM N.  59 NOT IRREDUCIBLE

 INPUT LIST - ATOM N.  60 NOT IRREDUCIBLE

 INPUT LIST - ATOM N.  61 NOT IRREDUCIBLE

 INPUT LIST - ATOM N.  62 NOT IRREDUCIBLE

 COORDINATES OF THE EQUIVALENT ATOMS (FRACTIONAL UNITS)

 N. ATOM EQUIV AT. N.          X                  Y                  Z

   1   1   1    9 F    -1.25960000000E-01 -3.05720000000E-01  2.94980000000E-01
   2   1   2    9 F     3.99300000000E-01 -4.20940000000E-01 -2.94980000000E-01
   3   1   3    9 F     3.05720000000E-01 -3.99300000000E-01  1.79760000000E-01
   4   1   4    9 F     4.20940000000E-01  1.25960000000E-01 -1.79760000000E-01








   5   9   1    9 F    -2.33980000000E-01  6.67500000000E-02 -3.48890000000E-01
   6   9   2    9 F     4.15640000000E-01  1.14910000000E-01  3.48890000000E-01
   7   9   3    9 F    -6.67500000000E-02 -4.15640000000E-01 -3.00730000000E-01
   8   9   4    9 F    -1.14910000000E-01  2.33980000000E-01  3.00730000000E-01








   9  17   1    1 H     1.17570000000E-01 -2.57190000000E-01 -4.13600000000E-01
  10  17   2    1 H     1.56410000000E-01 -4.68830000000E-01  4.13600000000E-01
  11  17   3    1 H     2.57190000000E-01 -1.56410000000E-01  3.74760000000E-01
  12  17   4    1 H     4.68830000000E-01 -1.17570000000E-01 -3.74760000000E-01

 NUMBER OF SYMMETRY OPERATORS         :    4
 *******************************************************************************
 * GEOMETRY EDITING - INPUT COORDINATES ARE GIVEN IN ANGSTROM         
 *******************************************************************************

 GEOMETRY NOW FULLY CONSISTENT WITH THE GROUP
 *******************************************************************************
 *  GEOMETRY EDITING
 *  THE SYMMETRY OF THE CRYSTAL IS KEPT AND APPLIED TO THE PERTURBATION
 *******************************************************************************
 INFORMATION **** NEW DEFAULT **** FINALRUN 4 FOR GEOMETRY OPTIMIZATIONS
 INFORMATION **** NEW DEFAULT **** OPTGEOM OPTIMIZES BOTH ATOMIC COORDINATES AND CELL PARAMETERS
 INFORMATION **** NEW DEFAULT **** TOL. ON ATOMIC DISP TO REDEFINE REF. GEOMETRY: 0.8 Angs
 INFORMATION **** NEW DEFAULT **** N POINTS TO REDEFINE REF. GEOMETRY: N OF OPT DEGS OF FREEDOM
 INFORMATION **** NEW DEFAULT **** TOL. ON ENERGY TO REDEFINE REF. GEOMETRY: 10**-3*(5*N. ATOMS)

 IMPORTANT INFORMATION:
 THE COORDINATE SYSTEM ADOPTED IN THE OPTIMIZATION IS NOT IN
 GENERAL HOMOGENEOUS UNITS. FOR THIS REASON THE GRADIENT AND 
 HESSIAN MATRIX IN TERMS OF THIS SYSTEM ARE GIVEN WITHOUT
 UNITS. FOR MORE DETAILS SEE THE MANUAL.

 *******************************************************************************
 COMBINED CELL/ATOM OPTIMIZATION CONTROL

 INITIAL TRUST RADIUS         0.50000 MAXIMUM TRUST RADIUS               4.00000
 MAXIMUM GRADIENT COMPONENT   0.00045 MAXIMUM DISPLACEMENT COMPONENT     0.00180
 R.M.S. OF GRADIENT COMPONENT 0.00030 R.M.S. OF DISPLACEMENT COMPONENTS  0.00120
 THRESHOLD ON ENERGY CHANGE 0.100E-06 EXTRAPOLATING POLYNOMIAL ORDER           2
 MAXIMUM ALLOWED NUMBER OF STEPS   -1 SORTING OF ENERGY POINTS:               NO
 ANALYTICAL  GRADIENT                 HESSIAN UPDATING                      BFGS
 STEP SIZE NUMERICAL GRADIENT 0.00100
 INITIAL HESSIAN MATRIX: SCHLEGEL MODEL 2
 *******************************************************************************


 GCALCO - MAX INDICES DIRECT LATTICE VECTOR    14    14    16
 NO.OF VECTORS CREATED 6999 STARS  481 RMAX   197.96270 BOHR

 GEOMETRY FOR WAVE FUNCTION - DIMENSIONALITY OF THE SYSTEM    3
 (NON PERIODIC DIRECTION: LATTICE PARAMETER FORMALLY SET TO 500)
 *******************************************************************************
 LATTICE PARAMETERS (ANGSTROMS AND DEGREES) - BOHR = 0.5291772083 ANGSTROM
 PRIMITIVE CELL - CENTRING CODE 6/0 VOLUME=   685.870456 - DENSITY  2.247 g/cm^3
         A              B              C           ALPHA      BETA       GAMMA 
     9.78647490     9.78647490     9.78647490   117.472078 117.472078  94.437262
 *******************************************************************************
 ATOMS IN THE ASYMMETRIC UNIT   17 - ATOMS IN THE UNIT CELL:   62
     ATOM                 X/A                 Y/B                 Z/C    
 *******************************************************************************
      1 T   9 F    -1.259600000000E-01 -3.057200000000E-01  2.949800000000E-01
      2 F   9 F     3.993000000000E-01 -4.209400000000E-01 -2.949800000000E-01
      3 F   9 F     3.057200000000E-01 -3.993000000000E-01  1.797600000000E-01
      4 F   9 F     4.209400000000E-01  1.259600000000E-01 -1.797600000000E-01
      5 T   9 F    -2.339800000000E-01  6.675000000000E-02 -3.488900000000E-01
      6 F   9 F     4.156400000000E-01  1.149100000000E-01  3.488900000000E-01
      7 F   9 F    -6.675000000000E-02 -4.156400000000E-01 -3.007300000000E-01
      8 F   9 F    -1.149100000000E-01  2.339800000000E-01  3.007300000000E-01
      9 T   1 H     1.175700000000E-01 -2.571900000000E-01 -4.136000000000E-01
     10 F   1 H     1.564100000000E-01 -4.688300000000E-01  4.136000000000E-01
     11 F   1 H     2.571900000000E-01 -1.564100000000E-01  3.747600000000E-01
     12 F   1 H     4.688300000000E-01 -1.175700000000E-01 -3.747600000000E-01
     13 T   9 F     1.811100000000E-01 -3.390000000000E-02 -1.008300000000E-01
     14 F   9 F     6.693000000000E-02  2.819400000000E-01  1.008300000000E-01
     15 F   9 F     3.390000000000E-02 -6.693000000000E-02  2.150100000000E-01
     16 F   9 F    -2.819400000000E-01 -1.811100000000E-01 -2.150100000000E-01
     17 T   6 C    -1.974700000000E-01 -1.188000000000E-01  4.506300000000E-01
     18 F   6 C     4.305700000000E-01  3.519000000000E-01 -4.506300000000E-01
     19 F   6 C     1.188000000000E-01 -4.305700000000E-01 -7.867000000000E-02
     20 F   6 C    -3.519000000000E-01  1.974700000000E-01  7.867000000000E-02
     21 T   6 C    -3.338300000000E-01 -1.256000000000E-01  2.945700000000E-01
     22 F   6 C    -4.201700000000E-01  3.716000000000E-01 -2.945700000000E-01
     23 F   6 C     1.256000000000E-01  4.201700000000E-01 -2.082300000000E-01
     24 F   6 C    -3.716000000000E-01  3.338300000000E-01  2.082300000000E-01
     25 T   6 C    -9.899000000000E-02 -2.142900000000E-01  4.320400000000E-01
     26 F   6 C     3.536700000000E-01  4.689700000000E-01 -4.320400000000E-01
     27 F   6 C     2.142900000000E-01 -3.536700000000E-01  1.153000000000E-01
     28 F   6 C    -4.689700000000E-01  9.899000000000E-02 -1.153000000000E-01
     29 T   6 C     7.302000000000E-02 -6.388000000000E-02 -2.317200000000E-01
     30 F   6 C     1.678400000000E-01  3.047400000000E-01  2.317200000000E-01
     31 F   6 C     6.388000000000E-02 -1.678400000000E-01  1.369000000000E-01
     32 F   6 C    -3.047400000000E-01 -7.302000000000E-02 -1.369000000000E-01
     33 T   6 C    -1.559200000000E-01 -4.140000000000E-03 -3.689200000000E-01
     34 F   6 C     3.647800000000E-01  2.130000000000E-01  3.689200000000E-01
     35 F   6 C     4.140000000000E-03 -3.647800000000E-01 -1.517800000000E-01
     36 F   6 C    -2.130000000000E-01  1.559200000000E-01  1.517800000000E-01
     37 T   6 C     2.196300000000E-01  4.432200000000E-01  4.064100000000E-01
     38 F   6 C     3.681000000000E-02 -1.867800000000E-01 -4.064100000000E-01
     39 F   6 C    -4.432200000000E-01 -3.681000000000E-02 -2.235900000000E-01
     40 F   6 C     1.867800000000E-01 -2.196300000000E-01  2.235900000000E-01
     41 T   7 N    -3.698800000000E-01  8.060000000000E-03  3.036000000000E-01
     42 F   7 N    -2.955400000000E-01  3.265200000000E-01 -3.036000000000E-01
     43 F   7 N    -8.060000000000E-03  2.955400000000E-01 -3.779400000000E-01
     44 F   7 N    -3.265200000000E-01  3.698800000000E-01  3.779400000000E-01
     45 T   7 N     4.956200000000E-01 -4.619000000000E-02  1.298900000000E-01
     46 F   7 N    -1.760800000000E-01  3.657300000000E-01 -1.298900000000E-01
     47 F   7 N     4.619000000000E-02  1.760800000000E-01 -4.581900000000E-01
     48 F   7 N    -3.657300000000E-01 -4.956200000000E-01  4.581900000000E-01
     49 T   7 N    -4.438100000000E-01 -2.597400000000E-01  1.196500000000E-01
     50 F   7 N    -3.793900000000E-01  4.365400000000E-01 -1.196500000000E-01
     51 F   7 N     2.597400000000E-01  3.793900000000E-01 -1.840700000000E-01
     52 F   7 N    -4.365400000000E-01  4.438100000000E-01  1.840700000000E-01
     53 T   7 N     4.516900000000E-01 -2.071600000000E-01  1.889000000000E-02
     54 F   7 N    -2.260500000000E-01  4.328000000000E-01 -1.889000000000E-02
     55 F   7 N     2.071600000000E-01  2.260500000000E-01 -3.411500000000E-01
     56 F   7 N    -4.328000000000E-01 -4.516900000000E-01  3.411500000000E-01
     57 T   7 N    -2.332000000000E-02  2.533000000000E-02 -2.138100000000E-01
     58 F   7 N     2.391400000000E-01  1.904900000000E-01  2.138100000000E-01
     59 F   7 N    -2.533000000000E-02 -2.391400000000E-01 -4.865000000000E-02
     60 F   7 N    -1.904900000000E-01  2.332000000000E-02  4.865000000000E-02
     61 T  30 ZN   -2.500000000000E-01  2.500000000000E-01  5.000000000000E-01
     62 T  30 ZN   -5.000000000000E-01  5.000000000000E-01  0.000000000000E+00

 TRANSFORMATION MATRIX PRIMITIVE-CRYSTALLOGRAPHIC CELL
  0.0000  1.0000  1.0000  1.0000  0.0000  1.0000  1.0000  1.0000  0.0000

 *******************************************************************************
 CRYSTALLOGRAPHIC CELL (VOLUME=       1371.74091142)
         A              B              C           ALPHA      BETA       GAMMA 
    10.15800000    10.15800000    13.29400000    90.000000  90.000000  90.000000

 COORDINATES IN THE CRYSTALLOGRAPHIC CELL
     ATOM                 X/A                 Y/B                 Z/C    
 *******************************************************************************
      1 T   9 F     5.761000000000E-02  2.373700000000E-01 -3.633300000000E-01
      2 F   9 F    -5.761000000000E-02 -2.373700000000E-01 -3.633300000000E-01
      3 F   9 F     2.373700000000E-01 -5.761000000000E-02  3.633300000000E-01
      4 F   9 F    -2.373700000000E-01  5.761000000000E-02  3.633300000000E-01
      5 T   9 F    -2.408000000000E-02 -3.248100000000E-01  9.083000000000E-02
      6 F   9 F     2.408000000000E-02  3.248100000000E-01  9.083000000000E-02
      7 F   9 F    -3.248100000000E-01  2.408000000000E-02 -9.083000000000E-02
      8 F   9 F     3.248100000000E-01 -2.408000000000E-02 -9.083000000000E-02
      9 T   1 H    -3.941800000000E-01 -1.942000000000E-02  1.369900000000E-01
     10 F   1 H     3.941800000000E-01  1.942000000000E-02  1.369900000000E-01
     11 F   1 H    -1.942000000000E-02  3.941800000000E-01 -1.369900000000E-01
     12 F   1 H     1.942000000000E-02 -3.941800000000E-01 -1.369900000000E-01
     13 T   9 F    -1.579200000000E-01  5.709000000000E-02  1.240200000000E-01
     14 F   9 F     1.579200000000E-01 -5.709000000000E-02  1.240200000000E-01
     15 F   9 F     5.709000000000E-02  1.579200000000E-01 -1.240200000000E-01
     16 F   9 F    -5.709000000000E-02 -1.579200000000E-01 -1.240200000000E-01
     17 T   6 C    -2.353500000000E-01 -3.140200000000E-01  1.165500000000E-01
     18 F   6 C     2.353500000000E-01  3.140200000000E-01  1.165500000000E-01
     19 F   6 C    -3.140200000000E-01  2.353500000000E-01 -1.165500000000E-01
     20 F   6 C     3.140200000000E-01 -2.353500000000E-01 -1.165500000000E-01
     21 T   6 C    -2.486000000000E-01 -4.568300000000E-01  1.230000000000E-01
     22 F   6 C     2.486000000000E-01  4.568300000000E-01  1.230000000000E-01
     23 F   6 C    -4.568300000000E-01  2.486000000000E-01 -1.230000000000E-01
     24 F   6 C     4.568300000000E-01 -2.486000000000E-01 -1.230000000000E-01
     25 T   6 C    -3.416300000000E-01 -2.263300000000E-01  1.273400000000E-01
     26 F   6 C     3.416300000000E-01  2.263300000000E-01  1.273400000000E-01
     27 F   6 C    -2.263300000000E-01  3.416300000000E-01 -1.273400000000E-01
     28 F   6 C     2.263300000000E-01 -3.416300000000E-01 -1.273400000000E-01
     29 T   6 C    -1.843100000000E-01 -4.741000000000E-02  1.204300000000E-01
     30 F   6 C     1.843100000000E-01  4.741000000000E-02  1.204300000000E-01
     31 F   6 C    -4.741000000000E-02  1.843100000000E-01 -1.204300000000E-01
     32 F   6 C     4.741000000000E-02 -1.843100000000E-01 -1.204300000000E-01
     33 T   6 C    -1.085700000000E-01 -2.603500000000E-01  1.044300000000E-01
     34 F   6 C     1.085700000000E-01  2.603500000000E-01  1.044300000000E-01
     35 F   6 C    -2.603500000000E-01  1.085700000000E-01 -1.044300000000E-01
     36 F   6 C     2.603500000000E-01 -1.085700000000E-01 -1.044300000000E-01
     37 T   6 C     3.150000000000E-01  9.141000000000E-02  1.282200000000E-01
     38 F   6 C    -3.150000000000E-01 -9.141000000000E-02  1.282200000000E-01
     39 F   6 C     9.141000000000E-02 -3.150000000000E-01 -1.282200000000E-01
     40 F   6 C    -9.141000000000E-02  3.150000000000E-01 -1.282200000000E-01
     41 T   7 N    -1.592300000000E-01  4.628300000000E-01  1.672900000000E-01
     42 F   7 N     1.592300000000E-01 -4.628300000000E-01  1.672900000000E-01
     43 F   7 N     4.628300000000E-01  1.592300000000E-01 -1.672900000000E-01
     44 F   7 N    -4.628300000000E-01 -1.592300000000E-01 -1.672900000000E-01
     45 T   7 N    -2.059600000000E-01  3.358500000000E-01  1.597700000000E-01
     46 F   7 N     2.059600000000E-01 -3.358500000000E-01  1.597700000000E-01
     47 F   7 N     3.358500000000E-01  2.059600000000E-01 -1.597700000000E-01
     48 F   7 N    -3.358500000000E-01 -2.059600000000E-01 -1.597700000000E-01
     49 T   7 N     1.518600000000E-01 -3.221000000000E-02 -4.116000000000E-01
     50 F   7 N    -1.518600000000E-01  3.221000000000E-02 -4.116000000000E-01
     51 F   7 N    -3.221000000000E-02 -1.518600000000E-01  4.116000000000E-01
     52 F   7 N     3.221000000000E-02  1.518600000000E-01  4.116000000000E-01
     53 T   7 N    -3.199800000000E-01  3.388700000000E-01  1.128200000000E-01
     54 F   7 N     3.199800000000E-01 -3.388700000000E-01  1.128200000000E-01
     55 F   7 N     3.388700000000E-01  3.199800000000E-01 -1.128200000000E-01
     56 F   7 N    -3.388700000000E-01 -3.199800000000E-01 -1.128200000000E-01
     57 T   7 N    -8.258000000000E-02 -1.312300000000E-01  1.079100000000E-01
     58 F   7 N     8.258000000000E-02  1.312300000000E-01  1.079100000000E-01
     59 F   7 N    -1.312300000000E-01  8.258000000000E-02 -1.079100000000E-01
     60 F   7 N     1.312300000000E-01 -8.258000000000E-02 -1.079100000000E-01
     61 T  30 ZN    4.626932236752E-17  5.000000000000E-01  2.500000000000E-01
     62 T  30 ZN    0.000000000000E+00  0.000000000000E+00  5.000000000000E-01

 T = ATOM BELONGING TO THE ASYMMETRIC UNIT

 ****    4 SYMMOPS - TRANSLATORS IN FRACTIONAL UNITS
 **** MATRICES AND TRANSLATORS IN THE CRYSTALLOGRAPHIC REFERENCE FRAME
   V INV                    ROTATION MATRICES                   TRANSLATORS
   1   1  1.00  0.00  0.00  0.00  1.00  0.00  0.00  0.00  1.00  0.00  0.00  0.00
   2   2  0.00  1.00 -1.00  1.00 -0.00 -1.00 -0.00  0.00 -1.00  0.00  0.00  0.00
   3   4 -0.00 -1.00  0.00  0.00 -1.00  1.00  1.00 -1.00  0.00  0.00  0.00  0.00
   4   3 -1.00 -0.00  1.00 -1.00  0.00 -0.00 -1.00  1.00 -0.00  0.00  0.00  0.00

 DIRECT LATTICE VECTORS CARTESIAN COMPONENTS (ANGSTROM)
          X                    Y                    Z
  -0.507900000000E+01   0.507900000000E+01   0.664700000000E+01
   0.507900000000E+01  -0.507900000000E+01   0.664700000000E+01
   0.507900000000E+01   0.507900000000E+01  -0.664700000000E+01


 CARTESIAN COORDINATES - PRIMITIVE CELL
 *******************************************************************************
 *      ATOM          X(ANGSTROM)         Y(ANGSTROM)         Z(ANGSTROM)
 *******************************************************************************
    1     9 F     5.852023800000E-01  2.411204460000E+00 -4.830109020000E+00
    2     9 F    -5.852023800000E-01 -2.411204460000E+00 -4.830109020000E+00
    3     9 F     2.411204460000E+00 -5.852023800000E-01  4.830109020000E+00
    4     9 F    -2.411204460000E+00  5.852023800000E-01  4.830109020000E+00
    5     9 F    -2.446046400000E-01 -3.299419980000E+00  1.207494020000E+00
    6     9 F     2.446046400000E-01  3.299419980000E+00  1.207494020000E+00
    7     9 F    -3.299419980000E+00  2.446046400000E-01 -1.207494020000E+00
    8     9 F     3.299419980000E+00 -2.446046400000E-01 -1.207494020000E+00
    9     1 H    -4.004080440000E+00 -1.972683600000E-01  1.821145060000E+00
   10     1 H     4.004080440000E+00  1.972683600000E-01  1.821145060000E+00
   11     1 H    -1.972683600000E-01  4.004080440000E+00 -1.821145060000E+00
   12     1 H     1.972683600000E-01 -4.004080440000E+00 -1.821145060000E+00
   13     9 F    -1.604151360000E+00  5.799202200000E-01  1.648721880000E+00
   14     9 F     1.604151360000E+00 -5.799202200000E-01  1.648721880000E+00
   15     9 F     5.799202200000E-01  1.604151360000E+00 -1.648721880000E+00
   16     9 F    -5.799202200000E-01 -1.604151360000E+00 -1.648721880000E+00
   17     6 C    -2.390685300000E+00 -3.189815160000E+00  1.549415700000E+00
   18     6 C     2.390685300000E+00  3.189815160000E+00  1.549415700000E+00
   19     6 C    -3.189815160000E+00  2.390685300000E+00 -1.549415700000E+00
   20     6 C     3.189815160000E+00 -2.390685300000E+00 -1.549415700000E+00
   21     6 C    -2.525278800000E+00 -4.640479140000E+00  1.635162000000E+00
   22     6 C     2.525278800000E+00  4.640479140000E+00  1.635162000000E+00
   23     6 C    -4.640479140000E+00  2.525278800000E+00 -1.635162000000E+00
   24     6 C     4.640479140000E+00 -2.525278800000E+00 -1.635162000000E+00
   25     6 C    -3.470277540000E+00 -2.299060140000E+00  1.692857960000E+00
   26     6 C     3.470277540000E+00  2.299060140000E+00  1.692857960000E+00
   27     6 C    -2.299060140000E+00  3.470277540000E+00 -1.692857960000E+00
   28     6 C     2.299060140000E+00 -3.470277540000E+00 -1.692857960000E+00
   29     6 C    -1.872220980000E+00 -4.815907800000E-01  1.600996420000E+00
   30     6 C     1.872220980000E+00  4.815907800000E-01  1.600996420000E+00
   31     6 C    -4.815907800000E-01  1.872220980000E+00 -1.600996420000E+00
   32     6 C     4.815907800000E-01 -1.872220980000E+00 -1.600996420000E+00
   33     6 C    -1.102854060000E+00 -2.644635300000E+00  1.388292420000E+00
   34     6 C     1.102854060000E+00  2.644635300000E+00  1.388292420000E+00
   35     6 C    -2.644635300000E+00  1.102854060000E+00 -1.388292420000E+00
   36     6 C     2.644635300000E+00 -1.102854060000E+00 -1.388292420000E+00
   37     6 C     3.199770000000E+00  9.285427800000E-01  1.704556680000E+00
   38     6 C    -3.199770000000E+00 -9.285427800000E-01  1.704556680000E+00
   39     6 C     9.285427800000E-01 -3.199770000000E+00 -1.704556680000E+00
   40     6 C    -9.285427800000E-01  3.199770000000E+00 -1.704556680000E+00
   41     7 N    -1.617458340000E+00  4.701427140000E+00  2.223953260000E+00
   42     7 N     1.617458340000E+00 -4.701427140000E+00  2.223953260000E+00
   43     7 N     4.701427140000E+00  1.617458340000E+00 -2.223953260000E+00
   44     7 N    -4.701427140000E+00 -1.617458340000E+00 -2.223953260000E+00
   45     7 N    -2.092141680000E+00  3.411564300000E+00  2.123982380000E+00
   46     7 N     2.092141680000E+00 -3.411564300000E+00  2.123982380000E+00
   47     7 N     3.411564300000E+00  2.092141680000E+00 -2.123982380000E+00
   48     7 N    -3.411564300000E+00 -2.092141680000E+00 -2.123982380000E+00
   49     7 N     1.542593880000E+00 -3.271891800000E-01 -5.471810400000E+00
   50     7 N    -1.542593880000E+00  3.271891800000E-01 -5.471810400000E+00
   51     7 N    -3.271891800000E-01 -1.542593880000E+00  5.471810400000E+00
   52     7 N     3.271891800000E-01  1.542593880000E+00  5.471810400000E+00
   53     7 N    -3.250356840000E+00  3.442241460000E+00  1.499829080000E+00
   54     7 N     3.250356840000E+00 -3.442241460000E+00  1.499829080000E+00
   55     7 N     3.442241460000E+00  3.250356840000E+00 -1.499829080000E+00
   56     7 N    -3.442241460000E+00 -3.250356840000E+00 -1.499829080000E+00
   57     7 N    -8.388476400000E-01 -1.333034340000E+00  1.434555540000E+00
   58     7 N     8.388476400000E-01  1.333034340000E+00  1.434555540000E+00
   59     7 N    -1.333034340000E+00  8.388476400000E-01 -1.434555540000E+00
   60     7 N     1.333034340000E+00 -8.388476400000E-01 -1.434555540000E+00
   61    30 ZN    4.700037766092E-16  5.079000000000E+00 -9.970500000000E+00
   62    30 ZN    0.000000000000E+00  0.000000000000E+00  6.647000000000E+00

 *******************************************************************************
 STARTING BASIS SET HANDLING 
 *******************************************************************************

 Loading internal basis set: POB-DZVPP           

 Please cite in your publication:
 Peintinger, M. F., Oliveira, D. V. and Bredow, T. (2013), Generally applicable 
 solid-state Gaussian basis sets, in preparation                                
                                                                                
                    

 *******************************************************************************
 LOCAL ATOMIC FUNCTIONS BASIS SET
 *******************************************************************************
   ATOM   X(AU)   Y(AU)   Z(AU)  N. TYPE  EXPONENT  S COEF   P COEF   D/F/G COEF
 *******************************************************************************
   1 F    1.106   4.557  -9.128
                                  1 S  
                                         2.895E+03-5.341E-03 0.000E+00 0.000E+00
                                         4.354E+02-3.990E-02 0.000E+00 0.000E+00
                                         9.884E+01-1.791E-01 0.000E+00 0.000E+00
                                         2.749E+01-4.676E-01 0.000E+00 0.000E+00
                                         8.541E+00-4.465E-01 0.000E+00 0.000E+00
                                  2 S  
                                         1.123E+00 1.000E+00 0.000E+00 0.000E+00
                                  3 S  
                                         3.743E-01 1.000E+00 0.000E+00 0.000E+00
                           4-     6 P  
                                         2.270E+01 0.000E+00-4.521E-02 0.000E+00
                                         4.987E+00 0.000E+00-2.375E-01 0.000E+00
                                         1.349E+00 0.000E+00-5.129E-01 0.000E+00
                           7-     9 P  
                                         3.474E-01 0.000E+00 1.000E+00 0.000E+00
                          10-    14 D  
                                         9.203E-01 0.000E+00 0.000E+00 1.000E+00
                          15-    19 D  
                                         3.977E-01 0.000E+00 0.000E+00 1.000E+00
   2 F   -1.106  -4.557  -9.128
   3 F    4.557  -1.106   9.128
   4 F   -4.557   1.106   9.128
   5 F   -0.462  -6.235   2.282
   6 F    0.462   6.235   2.282
   7 F   -6.235   0.462  -2.282
   8 F    6.235  -0.462  -2.282
   9 H   -7.567  -0.373   3.441
                                153 S  
                                         2.263E+01 1.441E-02 0.000E+00 0.000E+00
                                         3.236E+00 1.072E-01 0.000E+00 0.000E+00
                                         7.304E-01 3.846E-01 0.000E+00 0.000E+00
                                154 S  
                                         1.417E-01 1.000E+00 0.000E+00 0.000E+00
                         155-   157 P  
                                         3.944E-01 0.000E+00 1.000E+00 0.000E+00
                         158-   160 P  
                                         1.006E-01 0.000E+00 1.000E+00 0.000E+00
  10 H    7.567   0.373   3.441
  11 H   -0.373   7.567  -3.441
  12 H    0.373  -7.567  -3.441
  13 F   -3.031   1.096   3.116
  14 F    3.031  -1.096   3.116
  15 F    1.096   3.031  -3.116
  16 F   -1.096  -3.031  -3.116
  17 C   -4.518  -6.028   2.928
                                261 S  
                                         1.238E+03 5.457E-03 0.000E+00 0.000E+00
                                         1.863E+02 4.064E-02 0.000E+00 0.000E+00
                                         4.225E+01 1.803E-01 0.000E+00 0.000E+00
                                         1.168E+01 4.632E-01 0.000E+00 0.000E+00
                                         3.593E+00 4.409E-01 0.000E+00 0.000E+00
                                262 S  
                                         5.281E+00 1.000E+00 0.000E+00 0.000E+00
                                263 S  
                                         4.447E-01 1.000E+00 0.000E+00 0.000E+00
                         264-   266 P  
                                         9.468E+00 0.000E+00 3.839E-02 0.000E+00
                                         2.010E+00 0.000E+00 2.112E-01 0.000E+00
                                         5.477E-01 0.000E+00 5.133E-01 0.000E+00
                         267-   269 P  
                                         1.604E-01 0.000E+00 1.000E+00 0.000E+00
                         270-   274 D  
                                         6.070E-01 0.000E+00 0.000E+00 1.000E+00
                         275-   279 D  
                                         2.939E-01 0.000E+00 0.000E+00 1.000E+00
  18 C    4.518   6.028   2.928
  19 C   -6.028   4.518  -2.928
  20 C    6.028  -4.518  -2.928
  21 C   -4.772  -8.769   3.090
  22 C    4.772   8.769   3.090
  23 C   -8.769   4.772  -3.090
  24 C    8.769  -4.772  -3.090
  25 C   -6.558  -4.345   3.199
  26 C    6.558   4.345   3.199
  27 C   -4.345   6.558  -3.199
  28 C    4.345  -6.558  -3.199
  29 C   -3.538  -0.910   3.025
  30 C    3.538   0.910   3.025
  31 C   -0.910   3.538  -3.025
  32 C    0.910  -3.538  -3.025
  33 C   -2.084  -4.998   2.623
  34 C    2.084   4.998   2.623
  35 C   -4.998   2.084  -2.623
  36 C    4.998  -2.084  -2.623
  37 C    6.047   1.755   3.221
  38 C   -6.047  -1.755   3.221
  39 C    1.755  -6.047  -3.221
  40 C   -1.755   6.047  -3.221
  41 N   -3.057   8.884   4.203
                                717 S  
                                         1.713E+03-5.393E-03 0.000E+00 0.000E+00
                                         2.576E+02-4.022E-02 0.000E+00 0.000E+00
                                         5.846E+01-1.793E-01 0.000E+00 0.000E+00
                                         1.620E+01-4.638E-01 0.000E+00 0.000E+00
                                         5.005E+00-4.417E-01 0.000E+00 0.000E+00
                                718 S  
                                         6.217E-01 1.000E+00 0.000E+00 0.000E+00
                                719 S  
                                         2.921E-01 1.000E+00 0.000E+00 0.000E+00
                         720-   722 P  
                                         1.357E+01 0.000E+00-4.007E-02 0.000E+00
                                         2.926E+00 0.000E+00-2.181E-01 0.000E+00
                                         7.993E-01 0.000E+00-5.129E-01 0.000E+00
                         723-   725 P  
                                         2.244E-01 0.000E+00 1.000E+00 0.000E+00
                         726-   730 D  
                                         3.118E-01 0.000E+00 0.000E+00 1.000E+00
  42 N    3.057  -8.884   4.203
  43 N    8.884   3.057  -4.203
  44 N   -8.884  -3.057  -4.203
  45 N   -3.954   6.447   4.014
  46 N    3.954  -6.447   4.014
  47 N    6.447   3.954  -4.014
  48 N   -6.447  -3.954  -4.014
  49 N    2.915  -0.618 -10.340
  50 N   -2.915   0.618 -10.340
  51 N   -0.618  -2.915  10.340
  52 N    0.618   2.915  10.340
  53 N   -6.142   6.505   2.834
  54 N    6.142  -6.505   2.834
  55 N    6.505   6.142  -2.834
  56 N   -6.505  -6.142  -2.834
  57 N   -1.585  -2.519   2.711
  58 N    1.585   2.519   2.711
  59 N   -2.519   1.585  -2.711
  60 N    2.519  -1.585  -2.711
  61 ZN   0.000   9.598 -18.842
                                997 S  
                                         8.200E+04 1.421E-03 0.000E+00 0.000E+00
                                         1.231E+04 1.089E-02 0.000E+00 0.000E+00
                                         2.801E+03 5.406E-02 0.000E+00 0.000E+00
                                         7.910E+02 1.885E-01 0.000E+00 0.000E+00
                                         2.576E+02 3.835E-01 0.000E+00 0.000E+00
                                         8.881E+01 2.972E-01 0.000E+00 0.000E+00
                                998 S  
                                         1.719E+02-1.105E-01 0.000E+00 0.000E+00
                                         2.030E+01 6.461E-01 0.000E+00 0.000E+00
                                         8.346E+00 4.422E-01 0.000E+00 0.000E+00
                                999 S  
                                         1.485E+01-2.271E-01 0.000E+00 0.000E+00
                                         2.450E+00 7.243E-01 0.000E+00 0.000E+00
                                         9.985E-01 4.484E-01 0.000E+00 0.000E+00
                               1000 S  
                                         1.493E+00 1.000E+00 0.000E+00 0.000E+00
                               1001 S  
                                         1.830E-01 1.000E+00 0.000E+00 0.000E+00
                        1002-  1004 P  
                                         1.072E+03 0.000E+00 9.277E-03 0.000E+00
                                         2.527E+02 0.000E+00 6.954E-02 0.000E+00
                                         8.010E+01 0.000E+00 2.716E-01 0.000E+00
                                         2.890E+01 0.000E+00 5.340E-01 0.000E+00
                                         1.077E+01 0.000E+00 3.450E-01 0.000E+00
                        1005-  1007 P  
                                         5.645E+00 0.000E+00 3.413E-01 0.000E+00
                                         2.168E+00 0.000E+00 5.639E-01 0.000E+00
                                         8.054E-01 0.000E+00 2.368E-01 0.000E+00
                        1008-  1010 P  
                                         2.721E-01 0.000E+00 1.000E+00 0.000E+00
                        1011-  1015 D  
                                         5.609E+01 0.000E+00 0.000E+00 2.959E-02
                                         1.575E+01 0.000E+00 0.000E+00 1.587E-01
                                         5.312E+00 0.000E+00 0.000E+00 3.798E-01
                                         1.774E+00 0.000E+00 0.000E+00 4.690E-01
                        1016-  1020 D  
                                         5.073E-01 0.000E+00 0.000E+00 1.000E+00
                        1021-  1027 F  
                                         2.814E+00 0.000E+00 0.000E+00 1.000E+00
                        1028-  1034 F  
                                         1.300E+00 0.000E+00 0.000E+00 1.000E+00
  62 ZN   0.000   0.000  12.561

 *******************************************************************************
 FINISHED BASIS SET HANDLING 
 *******************************************************************************

 INFORMATION **** SET_MPP **** PCRYSTAL CALCULATION
 INFORMATION **** READM2 **** NEW DEFAULT: FOCK/KS MATRIX MIXING SET TO 30 %
 INFORMATION **** READM2 **** NEW DEFAULT: FULL DIRECT SCF MODE
 INFORMATION **** READM2 **** NEW DEFAULT: COULOMB BIPOLAR BUFFER SET TO 32 Mb
 INFORMATION **** READM2 **** NEW DEFAULT: EXCHANGE BIPOLAR BUFFER SET TO 32 Mb

 *******************************************************************************
 NEW DEFAULT: DFT INTEGRATION GRID INCREASED TO XLGRID
 NEW DEFAULT: DIIS ACCELERATOR ACTIVE
 USE KEYWORD NODIIS TO TURN IT OFF
 *******************************************************************************

 INFORMATION **** DFTD3_INPUT **** PERFORM DISPERSION CORRECTION DFT-D3(BJ) IN THE BECKE-JOHNSON DAMPING SCHEME

 PLEASE CITE:
 (1) DFT-D3 Reference
  S. Grimme, J. Antony, S. Ehrlich, and H. Krieg, J. Chem. Phys. 132 (2010), 154104
 (2) BJ-Damping Reference
  S. Grimme, S. Ehrlich, and L. Goerigk, J. Comput. Chem. 32 (2011), 1456-1465
 (3) General DFT-D Review
  S. Grimme, A. Hansen, J. G. Brandenburg, and C. Bannwarth,
  Chem. Rev. 116 (2016), 5105-5154

 INFORMATION **** BIPOSIZE **** COULOMB BIPOLAR BUFFER SET TO    30000000
 INFORMATION **** EXCHSIZE **** EXCHANGE BIPOLAR BUFFER SIZE SET TO    30000000
 INFORMATION **** TOLINTEG **** COULOMB AND EXCHANGE SERIES TOLERANCES MODIFIED
 INFORMATION **** MAXCYCLE **** MAX NUMBER OF SCF CYCLES SET TO          50
 *******************************************************************************
 N. OF ATOMS PER CELL        62  COULOMB OVERLAP TOL         (T1) 10**  -12
 NUMBER OF SHELLS           412  COULOMB PENETRATION TOL     (T2) 10**  -12
 NUMBER OF AO              1072  EXCHANGE OVERLAP TOL        (T3) 10**   20
 N. OF ELECTRONS PER CELL   456  EXCHANGE PSEUDO OVP (F(G))  (T4) 10**   20
 CORE ELECTRONS PER CELL    148  EXCHANGE PSEUDO OVP (P(G))  (T5) 10**   20
 N. OF SYMMETRY OPERATORS     4  POLE ORDER IN MONO ZONE                  4
 *******************************************************************************
 TYPE OF CALCULATION :  RESTRICTED CLOSED SHELL
 KOHN-SHAM HAMILTONIAN

 (EXCHANGE)[CORRELATION] FUNCTIONAL:(PERDEW-BURKE-ERNZERHOF)[PERDEW-BURKE-ERNZERHOF]


 CAPPA:IS1  3;IS2  3;IS3  3; K PTS MONK NET   6; SYMMOPS:K SPACE   8;G SPACE   4

 *******************************************************************************
 MAX NUMBER OF SCF CYCLES      50  CONVERGENCE ON DELTAP        10**-16
 WEIGHT OF F(I) IN F(I+1)      30% CONVERGENCE ON ENERGY        10**- 7
 SHRINK. FACT.(MONKH.)    3  3  3  NUMBER OF K POINTS IN THE IBZ      6
 SHRINKING FACTOR(GILAT NET)    3  NUMBER OF K POINTS(GILAT NET)      6
 *******************************************************************************
 *** K POINTS COORDINATES (OBLIQUE COORDINATES IN UNITS OF IS =  3)
   1-R(  0  0  0)   2-C(  1  0  0)   3-C(  1  1  0)   4-C(  2  1  0)
   5-C(  2  1  1)   6-C(  2  2  1)

 DIRECT LATTICE VECTORS COMPON. (A.U.)     RECIP. LATTICE VECTORS COMPON. (A.U.) 
        X            Y            Z              X            Y            Z
   -9.5979190    9.5979190   12.5610096      0.0000000    0.3273202    0.2501067
    9.5979190   -9.5979190   12.5610096      0.3273202    0.0000000    0.2501067
    9.5979190    9.5979190  -12.5610096      0.3273202    0.3273202    0.0000000

 DISK SPACE FOR EIGENVECTORS (FTN 10)    12641024 REALS

 SYMMETRY ADAPTION OF THE BLOCH FUNCTIONS ENABLED
 TTTTTTTTTTTTTTTTTTTTTTTTTTTTTT gordsh1     TELAPSE        1.17 TCPU        0.04

 MATRIX SIZE: P(G) 1806060, F(G)  903950, P(G) IRR  228605, F(G) IRR  228605
 MAX G-VECTOR INDEX FOR 1- AND 2-ELECTRON INTEGRALS  63

 TTTTTTTTTTTTTTTTTTTTTTTTTTTTTT INPUT       TELAPSE        1.27 TCPU        0.10

 NEIGHBORS OF THE NON-EQUIVALENT ATOMS

 N = NUMBER OF NEIGHBORS AT DISTANCE R
    ATOM  N     R/ANG      R/AU   NEIGHBORS (ATOM LABELS AND CELL INDICES)
   1 F    1     1.0950     2.0692   25 C    0 0 1
   1 F    1     2.1707     4.1021   38 C    0 0 1
   1 F    1     2.1834     4.1260   17 C    0 0 1
   1 F    1     2.5186     4.7595    9 H    0 0 1
   1 F    1     2.5548     4.8279   54 N    0-1 0
   1 F    1     2.7928     5.2776   21 C    0 0 1

   5 F    1     1.0945     2.0684   33 C    0 0 0
   5 F    1     2.0667     3.9055   57 N    0 0 0
   5 F    1     2.1759     4.1119   17 C    0 0 0
   5 F    1     2.5126     4.7480   46 N    0 0 0
   5 F    1     2.5429     4.8053   42 N    0 0 0
   5 F    1     2.6801     5.0646   21 C    0 0 0

   9 H    1     1.0933     2.0660   38 C    0 0 0
   9 H    1     2.1620     4.0855   29 C    0 0 0
   9 H    1     2.1723     4.1051   25 C    0 0 0
   9 H    1     2.1857     4.1305   10 H    0-1-1
   9 H    1     2.5186     4.7595    1 F    0 0-1
   9 H    1     2.5285     4.7782   13 F    0 0 0

  13 F    1     1.0959     2.0709   29 C    0 0 0
  13 F    1     2.0715     3.9145   57 N    0 0 0
  13 F    1     2.1965     4.1508   38 C    0 0 0
  13 F    1     2.5285     4.7782    9 H    0 0 0
  13 F    1     2.5654     4.8479   58 N    0 0 0
  13 F    1     2.9124     5.5037   45 N    0 0 0

  17 C    1     1.4070     2.6588   25 C    0 0 0
  17 C    1     1.4077     2.6602   33 C    0 0 0
  17 C    1     1.4594     2.7579   21 C    0 0 0
  17 C    1     2.1759     4.1119    5 F    0 0 0
  17 C    1     2.1834     4.1260    1 F    0 0-1
  17 C    1     2.4067     4.5479   38 C    0 0 0

  21 C    1     1.3492     2.5496   49 N    0 0-1
  21 C    1     1.3553     2.5611   41 N   -1 0-1
  21 C    1     1.4594     2.7579   17 C    0 0 0
  21 C    1     2.2025     4.1620   53 N   -1 0-1
  21 C    1     2.2049     4.1667   45 N   -1 0-1
  21 C    1     2.4633     4.6549   33 C    0 0 0

  25 C    1     1.0950     2.0692    1 F    0 0-1
  25 C    1     1.3970     2.6400   38 C    0 0 0
  25 C    1     1.4070     2.6588   17 C    0 0 0
  25 C    1     2.1723     4.1051    9 H    0 0 0
  25 C    1     2.4118     4.5577   33 C    0 0 0
  25 C    1     2.4219     4.5767   29 C    0 0 0

  29 C    1     1.0959     2.0709   13 F    0 0 0
  29 C    1     1.3493     2.5497   57 N    0 0 0
  29 C    1     1.4046     2.6543   38 C    0 0 0
  29 C    1     2.1620     4.0855    9 H    0 0 0
  29 C    1     2.3056     4.3570   33 C    0 0 0
  29 C    1     2.4219     4.5767   25 C    0 0 0

  33 C    1     1.0945     2.0684    5 F    0 0 0
  33 C    1     1.3387     2.5298   57 N    0 0 0
  33 C    1     1.4077     2.6602   17 C    0 0 0
  33 C    1     2.3056     4.3570   29 C    0 0 0
  33 C    1     2.4118     4.5577   25 C    0 0 0
  33 C    1     2.4633     4.6549   21 C    0 0 0

  37 C    1     1.0933     2.0660   10 H    0 0 0
  37 C    1     1.3970     2.6400   26 C    0 0 0
  37 C    1     1.4046     2.6543   30 C    0 0 0
  37 C    1     2.1707     4.1021    2 F    1 1 1
  37 C    1     2.1965     4.1508   14 F    0 0 0
  37 C    1     2.4067     4.5479   18 C    0 0 0

  41 N    1     1.3553     2.5611   21 C    1 0 1
  41 N    1     1.3781     2.6042   45 N    0 0 0
  41 N    1     1.9919     3.7642   61 ZN   1 1 0
  41 N    1     2.1855     4.1299   53 N    0 0 0
  41 N    1     2.1874     4.1336   49 N    1 0 0
  41 N    1     2.4882     4.7020   17 C    1 0 1

  45 N    1     1.3160     2.4870   53 N    0 0 0
  45 N    1     1.3781     2.6042   41 N    0 0 0
  45 N    1     2.1869     4.1326   49 N    1 0 0
  45 N    1     2.2049     4.1667   21 C    1 0 1
  45 N    1     2.5126     4.7480    6 F    0 0 0
  45 N    1     2.9124     5.5037   13 F    0 0 0

  49 N    1     1.3492     2.5496   21 C    0 0 1
  49 N    1     1.3792     2.6063   53 N   -1 0 0
  49 N    1     1.9667     3.7164   62 ZN  -1-1 0
  49 N    1     2.1869     4.1326   45 N   -1 0 0
  49 N    1     2.1874     4.1336   41 N   -1 0 0
  49 N    1     2.5229     4.7676   17 C    0 0 1

  53 N    1     1.3160     2.4870   45 N    0 0 0
  53 N    1     1.3792     2.6063   49 N    1 0 0
  53 N    1     2.1855     4.1299   41 N    0 0 0
  53 N    1     2.2025     4.1620   21 C    1 0 1
  53 N    1     2.5548     4.8279    2 F    1 0 0
  53 N    1     2.8762     5.4352   62 ZN   0-1 0

  57 N    1     1.3387     2.5298   33 C    0 0 0
  57 N    1     1.3493     2.5497   29 C    0 0 0
  57 N    1     2.0667     3.9055    5 F    0 0 0
  57 N    1     2.0715     3.9145   13 F    0 0 0
  57 N    1     2.4105     4.5552   38 C    0 0 0
  57 N    1     2.4226     4.5781   17 C    0 0 0

  61 ZN   4     1.9919     3.7642   41 N   -1-1 0   42 N    0-1 1   43 N    0-1 0
                                    44 N    0 0 1
  61 ZN   4     2.7756     5.2452    5 F    0-1 1    6 F   -1-1 0    7 F    0 0 1
                                     8 F    0-1 0
  61 ZN   4     2.9319     5.5406   45 N   -1-1 0   46 N    0-1 1   47 N    0-1 0
                                    48 N    0 0 1
  61 ZN   4     3.0692     5.7999   21 C    0-1 1   22 C   -1-1 0   23 C    0 0 1
                                    24 C    0-1 0
  61 ZN   4     3.2996     6.2354   33 C    0-1 1   34 C   -1-1 0   35 C    0 0 1
                                    36 C    0-1 0
  61 ZN   4     3.5259     6.6629   17 C    0-1 1   18 C   -1-1 0   19 C    0 0 1
                                    20 C    0-1 0

  62 ZN   4     1.9667     3.7164   49 N    1 1 0   50 N    1 1 0   51 N    0 0 0
                                    52 N    0 0 0
  62 ZN   4     2.8762     5.4352   53 N    0 1 0   54 N    1 0 0   55 N    0 0-1
                                    56 N    1 1 1
  62 ZN   4     3.0639     5.7900   21 C    1 1 1   22 C    0 0-1   23 C    0 1 0
                                    24 C    1 0 0
  62 ZN   4     3.0753     5.8115    1 F    1 1 0    2 F    1 1 0    3 F    0 0 0
                                     4 F    0 0 0
  62 ZN   4     3.6307     6.8610   25 C    1 1 1   26 C    0 0-1   27 C    0 1 0
                                    28 C    1 0 0
  62 ZN   4     3.6327     6.8649   17 C    1 1 1   18 C    0 0-1   19 C    0 1 0
                                    20 C    1 0 0


 SYMMETRY ALLOWED ELASTIC DISTORTION 1
  0.5773503  0.0000000  0.0000000
  0.0000000  0.5773503  0.0000000
  0.0000000  0.0000000  0.5773503

 SYMMETRY ALLOWED ELASTIC DISTORTION 2
  0.4082483  0.0000000  0.0000000
  0.0000000  0.4082483  0.0000000
  0.0000000  0.0000000 -0.8164966

 SYMMETRY ALLOWED INTERNAL DEGREE(S) OF FREEDOM:  45
 TTTTTTTTTTTTTTTTTTTTTTTTTTTTTT SYMM        TELAPSE        2.76 TCPU        1.22
 TTTTTTTTTTTTTTTTTTTTTTTTTTTTTT INT_SCREEN  TELAPSE        2.79 TCPU        1.25

 *******************************************************************************
 *                             OPTIMIZATION STARTS                             *
 *******************************************************************************
 RECLASIFICATION OF INDICES FOR INTEGRAL CALC ACCORDING TO DIFFERENT CRITERIA:
           FIXDELTE                  FIXDELTX              FIXDELTN
          0.10000000               0.80000000                 47
 DEFAULT MAX NUM OF POINTS  100
 *******************************************************************************

 *******************************************************************************
 COORDINATE AND CELL OPTIMIZATION - POINT    1
 INFORMATION **** EXCBUF **** EXCH. BIPO BUFFER: WORDS USED =           0

 DFT PARAMETERS

     ATOM       ELECTRONS   NET CHARGE   R(ANGSTROM)
   1   9  F       9.0000      0.0000     0.72000000
   9   1  H       1.0000      0.0000     1.11000000
  17   6  C       6.0000      0.0000     0.77000000
  41   7  N       7.0000      0.0000     0.74000000
  61  30  ZN     30.0000      0.0000     1.37000000

 SIZE OF GRID=     489100
 TTTTTTTTTTTTTTTTTTTTTTTTTTTTTT MAKE_GRID2  TELAPSE        4.16 TCPU        2.48
 BECKE WEIGHT FUNCTION
 RADSAFE =     2.00
 TOLERANCES - DENSITY:10**- 6; POTENTIAL:10**- 9; GRID WGT:10**-14

 RADIAL INTEGRATION  - INTERVALS (POINTS,UPPER LIMIT):            1( 75,  4.0*R)

 ANGULAR INTEGRATION - INTERVALS (ACCURACY LEVEL [N. POINTS] UPPER LIMIT):
  1(  4[  86]   0.2)  2(  8[ 194]   0.5)  3( 12[ 350]   0.9)  4( 16[ 974]   3.5)
  5( 12[ 350]9999.0)
 TTTTTTTTTTTTTTTTTTTTTTTTTTTTTT INT_CALC    TELAPSE        4.24 TCPU        2.56

 *******************************************************************************
 C:\Users\wilso\AppData\Local\Temp\tmp_p\newconn.mol                             
 CRYSTAL - SCF - TYPE OF CALCULATION :  RESTRICTED CLOSED SHELL
 *******************************************************************************

 CAPPA:IS1  3;IS2  3;IS3  3; K PTS MONK NET   6; SYMMOPS:K SPACE   8;G SPACE   4

 TTTTTTTTTTTTTTTTTTTTTTTTTTTTTT SDIK        TELAPSE        4.51 TCPU        2.81

 AAAAAAAAAAAAAAAAAAAAAAAAAAAAAAAAAAAAAAAAAAAAAAAAAAAAAAAAAAAAAAAAAAAAAAAAAAAAAAA
         ATOMIC WAVEFUNCTION(S)


 NUCLEAR CHARGE  9.0  SYMMETRY SPECIES            S    P
 N. ELECTRONS    9.0  NUMBER OF PRIMITIVE GTOS    7    4
                      NUMBER OF CONTRACTED GTOS   3    2
                      NUMBER OF CLOSED SHELLS     2    0
                      OPEN SHELL OCCUPATION       0    5

  ZNUC SCFIT  TOTAL HF ENERGY   KINETIC ENERGY   VIRIAL THEOREM ACCURACY
   9.0  14   -9.927886620E+01  9.927374065E+01 -2.000051630E+00  4.0E-06

 NUCLEAR CHARGE  1.0  SYMMETRY SPECIES            S
 N. ELECTRONS    1.0  NUMBER OF PRIMITIVE GTOS    4
                      NUMBER OF CONTRACTED GTOS   2
                      NUMBER OF CLOSED SHELLS     0
                      OPEN SHELL OCCUPATION       1

  ZNUC SCFIT  TOTAL HF ENERGY   KINETIC ENERGY   VIRIAL THEOREM ACCURACY
   1.0   1   -4.946643675E-01  4.917913167E-01 -2.005842012E+00  9.4E-17

 NUCLEAR CHARGE  6.0  SYMMETRY SPECIES            S    P
 N. ELECTRONS    6.0  NUMBER OF PRIMITIVE GTOS    7    4
                      NUMBER OF CONTRACTED GTOS   3    2
                      NUMBER OF CLOSED SHELLS     2    0
                      OPEN SHELL OCCUPATION       0    2

  ZNUC SCFIT  TOTAL HF ENERGY   KINETIC ENERGY   VIRIAL THEOREM ACCURACY
   6.0   6   -3.750912652E+01  3.905246519E+01 -1.960480378E+00  3.7E-06

 NUCLEAR CHARGE  7.0  SYMMETRY SPECIES            S    P
 N. ELECTRONS    7.0  NUMBER OF PRIMITIVE GTOS    7    4
                      NUMBER OF CONTRACTED GTOS   3    2
                      NUMBER OF CLOSED SHELLS     2    0
                      OPEN SHELL OCCUPATION       0    3

  ZNUC SCFIT  TOTAL HF ENERGY   KINETIC ENERGY   VIRIAL THEOREM ACCURACY
   7.0   9   -5.432196661E+01  5.425066284E+01 -2.001314339E+00  1.2E-06

 NUCLEAR CHARGE 30.0  SYMMETRY SPECIES            S    P    D
 N. ELECTRONS   30.0  NUMBER OF PRIMITIVE GTOS   14    9    5
                      NUMBER OF CONTRACTED GTOS   5    3    2
                      NUMBER OF CLOSED SHELLS     4    2    1
                      OPEN SHELL OCCUPATION       0    0    0

  ZNUC SCFIT  TOTAL HF ENERGY   KINETIC ENERGY   VIRIAL THEOREM ACCURACY
  30.0  10   -1.777404290E+03  1.777325716E+03 -2.000044209E+00  2.5E-06

 AAAAAAAAAAAAAAAAAAAAAAAAAAAAAAAAAAAAAAAAAAAAAAAAAAAAAAAAAAAAAAAAAAAAAAAAAAAAAAA

 CHARGE NORMALIZATION FACTOR   1.00000000
 TOTAL ATOMIC CHARGES:
   9.0000000   9.0000000   9.0000000   9.0000000   9.0000000   9.0000000
   9.0000000   9.0000000   1.0000000   1.0000000   1.0000000   1.0000000
   9.0000000   9.0000000   9.0000000   9.0000000   6.0000000   6.0000000
   6.0000000   6.0000000   6.0000000   6.0000000   6.0000000   6.0000000
   6.0000000   6.0000000   6.0000000   6.0000000   6.0000000   6.0000000
   6.0000000   6.0000000   6.0000000   6.0000000   6.0000000   6.0000000
   6.0000000   6.0000000   6.0000000   6.0000000   7.0000000   7.0000000
   7.0000000   7.0000000   7.0000000   7.0000000   7.0000000   7.0000000
   7.0000000   7.0000000   7.0000000   7.0000000   7.0000000   7.0000000
   7.0000000   7.0000000   7.0000000   7.0000000   7.0000000   7.0000000
  30.0000000  30.0000000
 TTTTTTTTTTTTTTTTTTTTTTTTTTTTTT MOQGAD      TELAPSE        6.57 TCPU        4.41
 TTTTTTTTTTTTTTTTTTTTTTTTTTTTTT SHELLXN     TELAPSE       81.95 TCPU       65.18
 TTTTTTTTTTTTTTTTTTTTTTTTTTTTTT MONMO3      TELAPSE       85.62 TCPU       68.83
 NUMERICALLY INTEGRATED DENSITY    456.0002934506
 TTTTTTTTTTTTTTTTTTTTTTTTTTTTTT NUMDFT      TELAPSE       87.89 TCPU       71.09
 CYC   0 ETOT(AU) -6.771763099774E+03 DETOT -6.77E+03 tst  0.00E+00 PX  1.00E+00
 TTTTTTTTTTTTTTTTTTTTTTTTTTTTTT DIIS        TELAPSE       87.98 TCPU       71.18
 TTTTTTTTTTTTTTTTTTTTTTTTTTTTTT FDIK        TELAPSE      133.91 TCPU      110.52
 INSULATING STATE
 TOP OF VALENCE BANDS -    BAND    228; K    4; EIG -1.3023733E-01 AU
 TOP OF VALENCE BANDS -    BAND    228; K    1; EIG -1.3096026E-01 AU
 BOTTOM OF VIRTUAL BANDS - BAND    229; K    5; EIG -8.2529818E-02 AU
 INDIRECT ENERGY BAND GAP:   1.2982 eV
 BOTTOM OF VIRTUAL BANDS - BAND    229; K    1; EIG -8.0362308E-02 AU
 TTTTTTTTTTTTTTTTTTTTTTTTTTTTTT PDIG        TELAPSE      134.60 TCPU      111.21
 CHARGE NORMALIZATION FACTOR   1.00000000
 TOTAL ATOMIC CHARGES:
   8.9190798   8.9190798   8.9190798   8.9190798   8.9182834   8.9182834
   8.9182834   8.9182834   1.2331764   1.2331764   1.2331764   1.2331764
   8.9138917   8.9138917   8.9138917   8.9138917   6.5414038   6.5414038
   6.5414038   6.5414038   5.5796521   5.5796521   5.5796521   5.5796521
   5.5309145   5.5309145   5.5309145   5.5309145   5.2301476   5.2301476
   5.2301476   5.2301476   5.2560067   5.2560067   5.2560067   5.2560067
   6.6721668   6.6721668   6.6721668   6.6721668   7.4646128   7.4646128
   7.4646128   7.4646128   7.2438670   7.2438670   7.2438670   7.2438670
   7.4520514   7.4520514   7.4520514   7.4520514   7.1802286   7.1802286
   7.1802286   7.1802286   7.8710113   7.8710113   7.8710113   7.8710113
  27.9800057  27.9940200
 TTTTTTTTTTTTTTTTTTTTTTTTTTTTTT MOQGAD      TELAPSE      134.65 TCPU      111.26
 TTTTTTTTTTTTTTTTTTTTTTTTTTTTTT SHELLXN     TELAPSE      208.93 TCPU      182.21
 TTTTTTTTTTTTTTTTTTTTTTTTTTTTTT MONMO3      TELAPSE      213.12 TCPU      186.39
 NUMERICALLY INTEGRATED DENSITY    456.0003120287
 TTTTTTTTTTTTTTTTTTTTTTTTTTTTTT NUMDFT      TELAPSE      219.68 TCPU      192.93
 CYC   1 ETOT(AU) -6.759582790924E+03 DETOT  1.22E+01 tst  0.00E+00 PX  1.00E+00
 TTTTTTTTTTTTTTTTTTTTTTTTTTTTTT DIIS        TELAPSE      219.84 TCPU      193.09
 DIIS TEST: 0.11976E+02 AT SCF   CYCLE   1 - MIX   30 %
 TTTTTTTTTTTTTTTTTTTTTTTTTTTTTT FDIK        TELAPSE      234.01 TCPU      205.79
 INSULATING STATE
 TOP OF VALENCE BANDS -    BAND    228; K    1; EIG -1.1822776E-01 AU
 BOTTOM OF VIRTUAL BANDS - BAND    229; K    1; EIG -8.3157392E-02 AU
 DIRECT ENERGY BAND GAP:   0.9543 eV
 TTTTTTTTTTTTTTTTTTTTTTTTTTTTTT PDIG        TELAPSE      234.69 TCPU      206.46
 CHARGE NORMALIZATION FACTOR   1.00000000
 TOTAL ATOMIC CHARGES:
   8.8325746   8.8325746   8.8325746   8.8325746   8.8468858   8.8468858
   8.8468858   8.8468858   1.2704048   1.2704048   1.2704048   1.2704048
   8.7593807   8.7593807   8.7593807   8.7593807   6.2508062   6.2508062
   6.2508062   6.2508062   6.3686848   6.3686848   6.3686848   6.3686848
   6.2844247   6.2844247   6.2844247   6.2844247   6.1850807   6.1850807
   6.1850807   6.1850807   6.3488863   6.3488863   6.3488863   6.3488863
   6.0149359   6.0149359   6.0149359   6.0149359   7.0094224   7.0094224
   7.0094224   7.0094224   6.8962706   6.8962706   6.8962706   6.8962706
   6.9924326   6.9924326   6.9924326   6.9924326   6.8514125   6.8514125
   6.8514125   6.8514125   6.2166688   6.2166688   6.2166688   6.2166688
  29.7665663  29.7203486
 TTTTTTTTTTTTTTTTTTTTTTTTTTTTTT MOQGAD      TELAPSE      234.74 TCPU      206.51
 TTTTTTTTTTTTTTTTTTTTTTTTTTTTTT SHELLXN     TELAPSE      307.99 TCPU      277.46
 TTTTTTTTTTTTTTTTTTTTTTTTTTTTTT MONMO3      TELAPSE      310.70 TCPU      280.16
 NUMERICALLY INTEGRATED DENSITY    456.0003630683
 TTTTTTTTTTTTTTTTTTTTTTTTTTTTTT NUMDFT      TELAPSE      317.17 TCPU      286.61
 CYC   2 ETOT(AU) -6.758703374335E+03 DETOT  8.79E-01 tst  7.82E-02 PX  6.73E-01
 TTTTTTTTTTTTTTTTTTTTTTTTTTTTTT DIIS        TELAPSE      317.33 TCPU      286.77
 DIIS TEST: 0.16412E+02 AT SCF   CYCLE   2 - DIIS ACTIVE - HISTORY:     2 CYCLES
 TTTTTTTTTTTTTTTTTTTTTTTTTTTTTT FDIK        TELAPSE      334.40 TCPU      301.56
 INSULATING STATE
 TOP OF VALENCE BANDS -    BAND    228; K    1; EIG -1.9980274E-01 AU
 BOTTOM OF VIRTUAL BANDS - BAND    229; K    6; EIG -7.3134870E-02 AU
 INDIRECT ENERGY BAND GAP:   3.4468 eV
 BOTTOM OF VIRTUAL BANDS - BAND    229; K    1; EIG -7.2528460E-02 AU
 TTTTTTTTTTTTTTTTTTTTTTTTTTTTTT PDIG        TELAPSE      335.09 TCPU      302.25
 CHARGE NORMALIZATION FACTOR   1.00000000
 TOTAL ATOMIC CHARGES:
   8.8035381   8.8035381   8.8035381   8.8035381   8.7867893   8.7867893
   8.7867893   8.7867893   1.2186220   1.2186220   1.2186220   1.2186220
   8.8180151   8.8180151   8.8180151   8.8180151   6.0776976   6.0776976
   6.0776976   6.0776976   5.8983495   5.8983495   5.8983495   5.8983495
   5.8569454   5.8569454   5.8569454   5.8569454   5.9131080   5.9131080
   5.9131080   5.9131080   5.7313173   5.7313173   5.7313173   5.7313173
   6.2770730   6.2770730   6.2770730   6.2770730   7.0869953   7.0869953
   7.0869953   7.0869953   7.2226374   7.2226374   7.2226374   7.2226374
   7.0728222   7.0728222   7.0728222   7.0728222   7.1214947   7.1214947
   7.1214947   7.1214947   7.5540727   7.5540727   7.5540727   7.5540727
  29.1208183  29.1212710
 TTTTTTTTTTTTTTTTTTTTTTTTTTTTTT MOQGAD      TELAPSE      335.14 TCPU      302.30
 TTTTTTTTTTTTTTTTTTTTTTTTTTTTTT SHELLXN     TELAPSE      408.46 TCPU      373.19
 TTTTTTTTTTTTTTTTTTTTTTTTTTTTTT MONMO3      TELAPSE      411.06 TCPU      375.79
 NUMERICALLY INTEGRATED DENSITY    456.0003296456
 TTTTTTTTTTTTTTTTTTTTTTTTTTTTTT NUMDFT      TELAPSE      417.49 TCPU      382.20
 CYC   3 ETOT(AU) -6.761296449106E+03 DETOT -2.59E+00 tst  1.04E-02 PX  5.70E-01
 TTTTTTTTTTTTTTTTTTTTTTTTTTTTTT DIIS        TELAPSE      417.68 TCPU      382.39
 DIIS TEST: 0.28877E+01 AT SCF   CYCLE   3 - DIIS ACTIVE - HISTORY:     3 CYCLES
 TTTTTTTTTTTTTTTTTTTTTTTTTTTTTT FDIK        TELAPSE      432.93 TCPU      394.06
 INSULATING STATE
 TOP OF VALENCE BANDS -    BAND    228; K    6; EIG -2.0850623E-01 AU
 TOP OF VALENCE BANDS -    BAND    228; K    1; EIG -2.0856950E-01 AU
 BOTTOM OF VIRTUAL BANDS - BAND    229; K    6; EIG -7.8913560E-02 AU
 DIRECT ENERGY BAND GAP:   3.5264 eV
 BOTTOM OF VIRTUAL BANDS - BAND    229; K    1; EIG -7.8276703E-02 AU
 TTTTTTTTTTTTTTTTTTTTTTTTTTTTTT PDIG        TELAPSE      433.61 TCPU      394.73
 CHARGE NORMALIZATION FACTOR   1.00000000
 TOTAL ATOMIC CHARGES:
   8.8850598   8.8850598   8.8850598   8.8850598   8.8796119   8.8796119
   8.8796119   8.8796119   1.2364291   1.2364291   1.2364291   1.2364291
   8.8291018   8.8291018   8.8291018   8.8291018   6.3828470   6.3828470
   6.3828470   6.3828470   5.9089259   5.9089259   5.9089259   5.9089259
   5.8872347   5.8872347   5.8872347   5.8872347   5.6022942   5.6022942
   5.6022942   5.6022942   5.6907913   5.6907913   5.6907913   5.6907913
   6.4130190   6.4130190   6.4130190   6.4130190   7.2724271   7.2724271
   7.2724271   7.2724271   7.0631546   7.0631546   7.0631546   7.0631546
   7.2595704   7.2595704   7.2595704   7.2595704   7.0383145   7.0383145
   7.0383145   7.0383145   7.2066251   7.2066251   7.2066251   7.2066251
  28.8854740  28.8929006
 TTTTTTTTTTTTTTTTTTTTTTTTTTTTTT MOQGAD      TELAPSE      433.66 TCPU      394.78
 TTTTTTTTTTTTTTTTTTTTTTTTTTTTTT SHELLXN     TELAPSE      509.89 TCPU      465.94
 TTTTTTTTTTTTTTTTTTTTTTTTTTTTTT MONMO3      TELAPSE      511.13 TCPU      467.17
 NUMERICALLY INTEGRATED DENSITY    456.0003329176
 TTTTTTTTTTTTTTTTTTTTTTTTTTTTTT NUMDFT      TELAPSE      517.61 TCPU      473.63
 CYC   4 ETOT(AU) -6.761628491842E+03 DETOT -3.32E-01 tst  3.40E-03 PX  1.23E-01
 TTTTTTTTTTTTTTTTTTTTTTTTTTTTTT DIIS        TELAPSE      517.78 TCPU      473.80
 DIIS TEST: 0.53706E+00 AT SCF   CYCLE   4 - DIIS ACTIVE - HISTORY:     4 CYCLES
 TTTTTTTTTTTTTTTTTTTTTTTTTTTTTT FDIK        TELAPSE      531.39 TCPU      485.96
 INSULATING STATE
 TOP OF VALENCE BANDS -    BAND    228; K    1; EIG -2.1871769E-01 AU
 BOTTOM OF VIRTUAL BANDS - BAND    229; K    1; EIG -7.8076241E-02 AU
 DIRECT ENERGY BAND GAP:   3.8271 eV
 TTTTTTTTTTTTTTTTTTTTTTTTTTTTTT PDIG        TELAPSE      532.07 TCPU      486.65
 CHARGE NORMALIZATION FACTOR   1.00000000
 TOTAL ATOMIC CHARGES:
   8.8741840   8.8741840   8.8741840   8.8741840   8.8864983   8.8864983
   8.8864983   8.8864983   1.2267884   1.2267884   1.2267884   1.2267884
   8.8612104   8.8612104   8.8612104   8.8612104   6.3419000   6.3419000
   6.3419000   6.3419000   5.9245586   5.9245586   5.9245586   5.9245586
   5.8419972   5.8419972   5.8419972   5.8419972   5.6809315   5.6809315
   5.6809315   5.6809315   5.7291310   5.7291310   5.7291310   5.7291310
   6.3605740   6.3605740   6.3605740   6.3605740   7.2036863   7.2036863
   7.2036863   7.2036863   7.1579006   7.1579006   7.1579006   7.1579006
   7.1343600   7.1343600   7.1343600   7.1343600   7.0430552   7.0430552
   7.0430552   7.0430552   7.2628412   7.2628412   7.2628412   7.2628412
  28.9472268  28.9343067
 TTTTTTTTTTTTTTTTTTTTTTTTTTTTTT MOQGAD      TELAPSE      532.12 TCPU      486.69
 TTTTTTTTTTTTTTTTTTTTTTTTTTTTTT SHELLXN     TELAPSE      605.52 TCPU      557.71
 TTTTTTTTTTTTTTTTTTTTTTTTTTTTTT MONMO3      TELAPSE      608.14 TCPU      560.32
 NUMERICALLY INTEGRATED DENSITY    456.0003304360
 TTTTTTTTTTTTTTTTTTTTTTTTTTTTTT NUMDFT      TELAPSE      614.61 TCPU      566.78
 CYC   5 ETOT(AU) -6.761698613023E+03 DETOT -7.01E-02 tst  3.89E-04 PX  9.19E-02
 TTTTTTTTTTTTTTTTTTTTTTTTTTTTTT DIIS        TELAPSE      614.79 TCPU      566.96
 DIIS TEST: 0.85065E-01 AT SCF   CYCLE   5 - DIIS ACTIVE - HISTORY:     5 CYCLES
 TTTTTTTTTTTTTTTTTTTTTTTTTTTTTT FDIK        TELAPSE      626.56 TCPU      578.55
 INSULATING STATE
 TOP OF VALENCE BANDS -    BAND    228; K    5; EIG -2.1519178E-01 AU
 TOP OF VALENCE BANDS -    BAND    228; K    1; EIG -2.1527407E-01 AU
 BOTTOM OF VIRTUAL BANDS - BAND    229; K    6; EIG -7.8014141E-02 AU
 INDIRECT ENERGY BAND GAP:   3.7328 eV
 BOTTOM OF VIRTUAL BANDS - BAND    229; K    1; EIG -7.7913471E-02 AU
 TTTTTTTTTTTTTTTTTTTTTTTTTTTTTT PDIG        TELAPSE      627.23 TCPU      579.22
 CHARGE NORMALIZATION FACTOR   1.00000000
 TOTAL ATOMIC CHARGES:
   8.8689888   8.8689888   8.8689888   8.8689888   8.8582483   8.8582483
   8.8582483   8.8582483   1.2282084   1.2282084   1.2282084   1.2282084
   8.8357070   8.8357070   8.8357070   8.8357070   6.3079786   6.3079786
   6.3079786   6.3079786   5.9253691   5.9253691   5.9253691   5.9253691
   5.8884921   5.8884921   5.8884921   5.8884921   5.7100329   5.7100329
   5.7100329   5.7100329   5.7211872   5.7211872   5.7211872   5.7211872
   6.3539928   6.3539928   6.3539928   6.3539928   7.1857197   7.1857197
   7.1857197   7.1857197   7.0765701   7.0765701   7.0765701   7.0765701
   7.2232407   7.2232407   7.2232407   7.2232407   7.0801973   7.0801973
   7.0801973   7.0801973   7.2711228   7.2711228   7.2711228   7.2711228
  28.9274156  28.9323611
 TTTTTTTTTTTTTTTTTTTTTTTTTTTTTT MOQGAD      TELAPSE      627.29 TCPU      579.28
 TTTTTTTTTTTTTTTTTTTTTTTTTTTTTT SHELLXN     TELAPSE      700.53 TCPU      650.20
 TTTTTTTTTTTTTTTTTTTTTTTTTTTTTT MONMO3      TELAPSE      703.03 TCPU      652.69
 NUMERICALLY INTEGRATED DENSITY    456.0003328396
 TTTTTTTTTTTTTTTTTTTTTTTTTTTTTT NUMDFT      TELAPSE      709.50 TCPU      659.15
 CYC   6 ETOT(AU) -6.761703861902E+03 DETOT -5.25E-03 tst  1.20E-04 PX  2.44E-02
 TTTTTTTTTTTTTTTTTTTTTTTTTTTTTT DIIS        TELAPSE      709.68 TCPU      659.32
 DIIS TEST: 0.51796E-01 AT SCF   CYCLE   6 - DIIS ACTIVE - HISTORY:     6 CYCLES
 TTTTTTTTTTTTTTTTTTTTTTTTTTTTTT FDIK        TELAPSE      722.77 TCPU      670.24
 INSULATING STATE
 TOP OF VALENCE BANDS -    BAND    228; K    1; EIG -2.1471629E-01 AU
 BOTTOM OF VIRTUAL BANDS - BAND    229; K    1; EIG -7.7830714E-02 AU
 DIRECT ENERGY BAND GAP:   3.7248 eV
 TTTTTTTTTTTTTTTTTTTTTTTTTTTTTT PDIG        TELAPSE      723.46 TCPU      670.92
 CHARGE NORMALIZATION FACTOR   1.00000000
 TOTAL ATOMIC CHARGES:
   8.8625645   8.8625645   8.8625645   8.8625645   8.8623884   8.8623884
   8.8623884   8.8623884   1.2294604   1.2294604   1.2294604   1.2294604
   8.8332312   8.8332312   8.8332312   8.8332312   6.3037326   6.3037326
   6.3037326   6.3037326   5.9269011   5.9269011   5.9269011   5.9269011
   5.8882292   5.8882292   5.8882292   5.8882292   5.7073743   5.7073743
   5.7073743   5.7073743   5.7337598   5.7337598   5.7337598   5.7337598
   6.3515594   6.3515594   6.3515594   6.3515594   7.2281033   7.2281033
   7.2281033   7.2281033   7.1244512   7.1244512   7.1244512   7.1244512
   7.1757912   7.1757912   7.1757912   7.1757912   7.0402998   7.0402998
   7.0402998   7.0402998   7.2670556   7.2670556   7.2670556   7.2670556
  28.9319112  28.9284811
 TTTTTTTTTTTTTTTTTTTTTTTTTTTTTT MOQGAD      TELAPSE      723.50 TCPU      670.97
 TTTTTTTTTTTTTTTTTTTTTTTTTTTTTT SHELLXN     TELAPSE      796.34 TCPU      741.33
 TTTTTTTTTTTTTTTTTTTTTTTTTTTTTT MONMO3      TELAPSE      799.13 TCPU      744.11
 NUMERICALLY INTEGRATED DENSITY    456.0003325015
 TTTTTTTTTTTTTTTTTTTTTTTTTTTTTT NUMDFT      TELAPSE      805.60 TCPU      750.55
 CYC   7 ETOT(AU) -6.761710255047E+03 DETOT -6.39E-03 tst  4.81E-05 PX  1.56E-02
 TTTTTTTTTTTTTTTTTTTTTTTTTTTTTT DIIS        TELAPSE      805.78 TCPU      750.73
 DIIS TEST: 0.99296E-02 AT SCF   CYCLE   7 - DIIS ACTIVE - HISTORY:     7 CYCLES
 TTTTTTTTTTTTTTTTTTTTTTTTTTTTTT FDIK        TELAPSE      820.32 TCPU      763.12
 INSULATING STATE
 TOP OF VALENCE BANDS -    BAND    228; K    5; EIG -2.1486894E-01 AU
 TOP OF VALENCE BANDS -    BAND    228; K    1; EIG -2.1487683E-01 AU
[...]
  61 ZN   4     2.8698     5.4232   45 N   -1-1 0   46 N    0-1 1   47 N    0-1 0
                                    48 N    0 0 1
  61 ZN   4     2.9149     5.5083    5 F    0-1 1    6 F   -1-1 0    7 F    0 0 1
                                     8 F    0-1 0
  61 ZN   4     3.1624     5.9760   21 C    0-1 1   22 C   -1-1 0   23 C    0 0 1
                                    24 C    0-1 0
  61 ZN   4     3.5527     6.7137   33 C    0-1 1   34 C   -1-1 0   35 C    0 0 1
                                    36 C    0-1 0
  61 ZN   4     3.6862     6.9659   17 C    0-1 1   18 C   -1-1 0   19 C    0 0 1
                                    20 C    0-1 0

  62 ZN   4     1.9978     3.7753   49 N    1 1 0   50 N    1 1 0   51 N    0 0 0
                                    52 N    0 0 0
  62 ZN   4     2.8313     5.3504   53 N    0 1 0   54 N    1 0 0   55 N    0 0-1
                                    56 N    1 1 1
  62 ZN   4     3.0919     5.8429    1 F    1 1 0    2 F    1 1 0    3 F    0 0 0
                                     4 F    0 0 0
  62 ZN   4     3.1542     5.9607   21 C    1 1 1   22 C    0 0-1   23 C    0 1 0
                                    24 C    1 0 0
  62 ZN   4     3.7725     7.1290   17 C    1 1 1   18 C    0 0-1   19 C    0 1 0
                                    20 C    1 0 0
  62 ZN   4     3.8089     7.1977   25 C    1 1 1   26 C    0 0-1   27 C    0 1 0
                                    28 C    1 0 0


 FINAL OPTIMIZED GEOMETRY - DIMENSIONALITY OF THE SYSTEM      3
 (NON PERIODIC DIRECTION: LATTICE PARAMETER FORMALLY SET TO 500)
 *******************************************************************************
 LATTICE PARAMETERS (ANGSTROMS AND DEGREES) - BOHR = 0.5291772083 ANGSTROM
 PRIMITIVE CELL - CENTRING CODE 6/0 VOLUME=   711.981485 - DENSITY  2.164 g/cm^3
         A              B              C           ALPHA      BETA       GAMMA 
     9.78846303     9.78846303     9.78846303   113.538643 113.538643 101.610944
 *******************************************************************************
 ATOMS IN THE ASYMMETRIC UNIT   17 - ATOMS IN THE UNIT CELL:   62
     ATOM                 X/A                 Y/B                 Z/C    
 *******************************************************************************
      1 T   9 F    -1.242729563277E-01 -3.083724112590E-01  2.735549862944E-01
      2 F   9 F     4.180726024466E-01 -3.978279426221E-01 -2.735549862944E-01
      3 F   9 F     3.083724112590E-01 -4.180726024466E-01  1.840994549313E-01
      4 F   9 F     3.978279426221E-01  1.242729563277E-01 -1.840994549313E-01
      5 T   9 F    -2.386001066416E-01  5.140725368267E-02 -3.428442679363E-01
      6 F   9 F     3.942515216190E-01  1.042441612947E-01  3.428442679363E-01
      7 F   9 F    -5.140725368267E-02 -3.942515216190E-01 -2.900073603243E-01
      8 F   9 F    -1.042441612947E-01  2.386001066416E-01  2.900073603243E-01
      9 T   1 H     1.204704576038E-01 -2.497987364799E-01 -4.346787461322E-01
     10 F   1 H     1.848800096523E-01 -4.448507962640E-01  4.346787461322E-01
     11 F   1 H     2.497987364799E-01 -1.848800096523E-01  3.702691940837E-01
     12 F   1 H     4.448507962640E-01 -1.204704576038E-01 -3.702691940837E-01
     13 T   9 F     2.037314703876E-01 -4.869277002936E-02 -1.117760107489E-01
     14 F   9 F     6.308324071951E-02  3.155074811364E-01  1.117760107489E-01
     15 F   9 F     4.869277002936E-02 -6.308324071951E-02  2.524242404169E-01
     16 F   9 F    -3.155074811364E-01 -2.037314703876E-01 -2.524242404169E-01
     17 T   6 C    -1.878891268565E-01 -1.215299626476E-01  4.532654007243E-01
     18 F   6 C     4.252046366281E-01  3.588454724192E-01 -4.532654007243E-01
     19 F   6 C     1.215299626476E-01 -4.252046366281E-01 -6.635916420896E-02
     20 F   6 C    -3.588454724192E-01  1.878891268565E-01  6.635916420896E-02
     21 T   6 C    -3.180503106000E-01 -1.258560351078E-01  3.085392348019E-01
     22 F   6 C    -4.343952699096E-01  3.734104545981E-01 -3.085392348019E-01
     23 F   6 C     1.258560351078E-01  4.343952699096E-01 -1.921942754922E-01
     24 F   6 C    -3.734104545981E-01  3.180503106000E-01  1.921942754922E-01
     25 T   6 C    -8.870561392943E-02 -2.046676072724E-01  4.357025239480E-01
     26 F   6 C     3.596298687795E-01  4.755918621225E-01 -4.357025239480E-01
     27 F   6 C     2.046676072724E-01 -3.596298687795E-01  1.159619933430E-01
     28 F   6 C    -4.755918621225E-01  8.870561392943E-02 -1.159619933430E-01
     29 T   6 C     7.516867441811E-02 -7.548450251993E-02 -2.555207605325E-01
     30 F   6 C     1.800362580125E-01  3.306894349506E-01  2.555207605325E-01
     31 F   6 C     7.548450251993E-02 -1.800362580125E-01  1.506531769380E-01
     32 F   6 C    -3.306894349506E-01 -7.516867441811E-02 -1.506531769380E-01
     33 T   6 C    -1.429364845716E-01 -2.358797045453E-02 -3.714329515016E-01
     34 F   6 C     3.478449810471E-01  2.284964669300E-01  3.714329515016E-01
     35 F   6 C     2.358797045453E-02 -3.478449810471E-01 -1.193485141171E-01
     36 F   6 C    -2.284964669300E-01  1.429364845716E-01  1.193485141171E-01
     37 T   6 C     2.365776376346E-01  4.655649886053E-01  4.204608290852E-01
     38 F   6 C     4.510415952014E-02 -1.838831914506E-01 -4.204608290852E-01
     39 F   6 C    -4.655649886053E-01 -4.510415952014E-02 -2.289873509707E-01
     40 F   6 C     1.838831914506E-01 -2.365776376346E-01  2.289873509707E-01
     41 T   7 N    -3.500197630775E-01  6.208796928804E-03  3.221523639415E-01
     42 F   7 N    -3.159435670127E-01  3.278278729810E-01 -3.221523639415E-01
     43 F   7 N    -6.208796928804E-03  3.159435670127E-01 -3.562285600063E-01
     44 F   7 N    -3.278278729810E-01  3.500197630775E-01  3.562285600063E-01
     45 T   7 N    -4.794874932689E-01 -4.558341899158E-02  1.591486162183E-01
     46 F   7 N    -2.047320352099E-01  3.613638905128E-01 -1.591486162183E-01
     47 F   7 N     4.558341899158E-02  2.047320352099E-01 -4.339040742774E-01
     48 F   7 N    -3.613638905128E-01  4.794874932689E-01  4.339040742774E-01
     49 T   7 N    -4.248790834195E-01 -2.562529342147E-01  1.410084636302E-01
     50 F   7 N    -3.972613978448E-01  4.341124529504E-01 -1.410084636302E-01
     51 F   7 N     2.562529342147E-01  3.972613978448E-01 -1.686261492048E-01
     52 F   7 N    -4.341124529504E-01  4.248790834195E-01  1.686261492048E-01
     53 T   7 N     4.754769848183E-01 -2.023196956000E-01  5.067949518574E-02
     54 F   7 N    -2.529991907858E-01  4.247974896326E-01 -5.067949518574E-02
     55 F   7 N     2.023196956000E-01  2.529991907858E-01 -3.222033195816E-01
     56 F   7 N    -4.247974896326E-01 -4.754769848183E-01  3.222033195816E-01
     57 T   7 N    -1.681537368439E-02  2.232067479585E-03 -2.299276161258E-01
     58 F   7 N     2.321596836054E-01  2.131122424414E-01  2.299276161258E-01
     59 F   7 N    -2.232067479585E-03 -2.321596836054E-01 -1.904744116397E-02
     60 F   7 N    -2.131122424414E-01  1.681537368439E-02  1.904744116397E-02
     61 T  30 ZN   -2.500000000000E-01  2.500000000000E-01 -5.000000000000E-01
     62 T  30 ZN   -5.000000000000E-01 -5.000000000000E-01  4.667266930170E-19

 TRANSFORMATION MATRIX PRIMITIVE-CRYSTALLOGRAPHIC CELL
  0.0000  1.0000  1.0000  1.0000  0.0000  1.0000  1.0000  1.0000  0.0000

 *******************************************************************************
 CRYSTALLOGRAPHIC CELL (VOLUME=       1423.96297024)
         A              B              C           ALPHA      BETA       GAMMA 
    10.72837440    10.72837440    12.37174196    90.000000  90.000000  90.000000

 COORDINATES IN THE CRYSTALLOGRAPHIC CELL
     ATOM                 X/A                 Y/B                 Z/C    
 *******************************************************************************
      1 T   9 F     4.472776568156E-02  2.288272206129E-01 -3.531001769405E-01
      2 F   9 F    -4.472776568156E-02 -2.288272206129E-01 -3.531001769405E-01
      3 F   9 F     2.288272206129E-01 -4.472776568156E-02  3.531001769405E-01
      4 F   9 F    -2.288272206129E-01  4.472776568156E-02  3.531001769405E-01
      5 T   9 F    -2.641845380601E-02 -3.164258141303E-01  7.782570748867E-02
      6 F   9 F     2.641845380601E-02  3.164258141303E-01  7.782570748867E-02
      7 F   9 F    -3.164258141303E-01  2.641845380601E-02 -7.782570748867E-02
      8 F   9 F     3.164258141303E-01 -2.641845380601E-02 -7.782570748867E-02
      9 T   1 H    -4.024739701080E-01 -3.220477602425E-02  1.526752336280E-01
     10 F   1 H     4.024739701080E-01  3.220477602425E-02  1.526752336281E-01
     11 F   1 H    -3.220477602425E-02  4.024739701080E-01 -1.526752336280E-01
     12 F   1 H     3.220477602425E-02 -4.024739701080E-01 -1.526752336281E-01
     13 T   9 F    -1.821001255829E-01  7.032411483404E-02  1.334073555535E-01
     14 F   9 F     1.821001255829E-01 -7.032411483404E-02  1.334073555535E-01
     15 F   9 F     7.032411483404E-02  1.821001255829E-01 -1.334073555535E-01
     16 F   9 F    -7.032411483404E-02 -1.821001255829E-01 -1.334073555535E-01
     17 T   6 C    -2.401877175334E-01 -3.065468817423E-01  1.186577548858E-01
     18 F   6 C     2.401877175334E-01  3.065468817423E-01  1.186577548858E-01
     19 F   6 C    -3.065468817423E-01  2.401877175334E-01 -1.186577548858E-01
     20 F   6 C     3.065468817423E-01 -2.401877175334E-01 -1.186577548858E-01
     21 T   6 C    -2.496332448530E-01 -4.418275203452E-01  1.237772097452E-01
     22 F   6 C     2.496332448530E-01  4.418275203452E-01  1.237772097452E-01
     23 F   6 C    -4.418275203452E-01  2.496332448530E-01 -1.237772097452E-01
     24 F   6 C     4.418275203452E-01 -2.496332448530E-01 -1.237772097452E-01
     25 T   6 C    -3.401297346975E-01 -2.241677413545E-01  1.354621274250E-01
     26 F   6 C     3.401297346975E-01  2.241677413545E-01  1.354621274250E-01
     27 F   6 C    -2.241677413545E-01  3.401297346975E-01 -1.354621274250E-01
     28 F   6 C     2.241677413545E-01 -3.401297346975E-01 -1.354621274250E-01
     29 T   6 C    -2.030869687352E-01 -5.243379179721E-02  1.276024662153E-01
     30 F   6 C     2.030869687352E-01  5.243379179721E-02  1.276024662153E-01
     31 F   6 C    -5.243379179721E-02  2.030869687352E-01 -1.276024662153E-01
     32 F   6 C     5.243379179721E-02 -2.030869687352E-01 -1.276024662153E-01
     33 T   6 C    -1.260422186922E-01 -2.453907328093E-01  1.024542482377E-01
     34 F   6 C     1.260422186922E-01  2.453907328093E-01  1.024542482377E-01
     35 F   6 C    -2.453907328093E-01  1.260422186922E-01 -1.024542482377E-01
     36 F   6 C     2.453907328093E-01 -1.260422186922E-01 -1.024542482377E-01
     37 T   6 C     3.247240900279E-01  9.573673905721E-02  1.408408985773E-01
     38 F   6 C    -3.247240900279E-01 -9.573673905721E-02  1.408408985773E-01
     39 F   6 C     9.573673905721E-02 -3.247240900279E-01 -1.408408985773E-01
     40 F   6 C    -9.573673905721E-02  3.247240900279E-01 -1.408408985773E-01
     41 T   7 N    -1.608095380261E-01  4.829619019676E-01  1.670183349549E-01
     42 F   7 N     1.608095380261E-01 -4.829619019676E-01  1.670183349549E-01
     43 F   7 N     4.829619019676E-01  1.608095380261E-01 -1.670183349549E-01
     44 F   7 N    -4.829619019676E-01 -1.608095380261E-01 -1.670183349549E-01
     45 T   7 N    -2.034736547522E-01  3.626222709705E-01  1.578902357606E-01
     46 F   7 N     2.034736547522E-01 -3.626222709705E-01  1.578902357606E-01
     47 F   7 N     3.626222709705E-01  2.034736547522E-01 -1.578902357606E-01
     48 F   7 N    -3.626222709705E-01 -2.034736547522E-01 -1.578902357606E-01
     49 T   7 N     1.548173064175E-01 -1.380884278732E-02 -4.110702406322E-01
     50 F   7 N    -1.548173064175E-01  1.380884278732E-02 -4.110702406322E-01
     51 F   7 N    -1.380884278732E-02 -1.548173064175E-01  4.110702406322E-01
     52 F   7 N     1.380884278732E-02  1.548173064175E-01  4.110702406322E-01
     53 T   7 N    -3.135585926163E-01  3.642380878020E-01  1.112388970163E-01
     54 F   7 N     3.135585926163E-01 -3.642380878020E-01  1.112388970163E-01
     55 F   7 N     3.642380878020E-01  3.135585926163E-01 -1.112388970163E-01
     56 F   7 N    -3.642380878020E-01 -3.135585926163E-01 -1.112388970163E-01
     57 T   7 N    -1.054400874809E-01 -1.244875286449E-01  1.076721549605E-01
     58 F   7 N     1.054400874809E-01  1.244875286449E-01  1.076721549605E-01
     59 F   7 N    -1.244875286449E-01  1.054400874809E-01 -1.076721549605E-01
     60 F   7 N     1.244875286449E-01 -1.054400874809E-01 -1.076721549605E-01
     61 T  30 ZN    4.626932236752E-17  5.000000000000E-01  2.500000000000E-01
     62 T  30 ZN    0.000000000000E+00  4.667266930170E-19 -5.000000000000E-01

 T = ATOM BELONGING TO THE ASYMMETRIC UNIT
 INFORMATION **** fort.34 **** GEOMETRY OUTPUT FILE

 DIRECT LATTICE VECTORS CARTESIAN COMPONENTS (ANGSTROM)
          X                    Y                    Z
  -0.536418720093E+01   0.536418720093E+01   0.618587098007E+01
   0.536418720093E+01  -0.536418720093E+01   0.618587098007E+01
   0.536418720093E+01   0.536418720093E+01  -0.618587098007E+01


 CARTESIAN COORDINATES - PRIMITIVE CELL
 *******************************************************************************
 *      ATOM          X(ANGSTROM)         Y(ANGSTROM)         Z(ANGSTROM)
 *******************************************************************************
    1     9 F     4.798562163903E-01  2.454944096071E+00 -4.368464275191E+00
    2     9 F    -4.798562163903E-01 -2.454944096071E+00 -4.368464275191E+00
    3     9 F     2.454944096071E+00 -4.798562163903E-01  4.368464275191E+00
    4     9 F    -2.454944096071E+00  4.798562163903E-01  4.368464275191E+00
    5     9 F    -2.834270635490E-01 -3.394734604402E+00  9.628395709158E-01
    6     9 F     2.834270635490E-01  3.394734604402E+00  9.628395709158E-01
    7     9 F    -3.394734604402E+00  2.834270635490E-01 -9.628395709158E-01
    8     9 F     3.394734604402E+00 -2.834270635490E-01 -9.628395709158E-01
    9     1 H    -4.317891438320E+00 -3.455048947161E-01  1.888858594152E+00
   10     1 H     4.317891438320E+00  3.455048947161E-01  1.888858594152E+00
   11     1 H    -3.455048947161E-01  4.317891438320E+00 -1.888858594152E+00
   12     1 H     3.455048947161E-01 -4.317891438320E+00 -1.888858594152E+00
   13     9 F    -1.953638325878E+00  7.544634334187E-01  1.650481378494E+00
   14     9 F     1.953638325878E+00 -7.544634334187E-01  1.650481378494E+00
   15     9 F     7.544634334187E-01  1.953638325878E+00 -1.650481378494E+00
   16     9 F    -7.544634334187E-01 -1.953638325878E+00 -1.650481378494E+00
   17     6 C    -2.576823760425E+00 -3.288749719053E+00  1.468003125018E+00
   18     6 C     2.576823760425E+00  3.288749719053E+00  1.468003125018E+00
   19     6 C    -3.288749719053E+00  2.576823760425E+00 -1.468003125018E+00
   20     6 C     3.288749719053E+00 -2.576823760425E+00 -1.468003125018E+00
   21     6 C    -2.678158913933E+00 -4.740091059307E+00  1.531339699515E+00
   22     6 C     2.678158913933E+00  4.740091059307E+00  1.531339699515E+00
   23     6 C    -4.740091059307E+00  2.678158913933E+00 -1.531339699515E+00
   24     6 C     4.740091059307E+00 -2.678158913933E+00 -1.531339699515E+00
   25     6 C    -3.649039139039E+00 -2.404955458069E+00  1.675902485875E+00
   26     6 C     3.649039139039E+00  2.404955458069E+00  1.675902485875E+00
   27     6 C    -2.404955458069E+00  3.649039139039E+00 -1.675902485875E+00
   28     6 C     2.404955458069E+00 -3.649039139039E+00 -1.675902485875E+00
   29     6 C    -2.178793036730E+00 -5.625293497094E-01  1.578664785494E+00
   30     6 C     2.178793036730E+00  5.625293497094E-01  1.578664785494E+00
   31     6 C    -5.625293497094E-01  2.178793036730E+00 -1.578664785494E+00
   32     6 C     5.625293497094E-01 -2.178793036730E+00 -1.578664785494E+00
   33     6 C    -1.352228112571E+00 -2.632643656324E+00  1.267537521918E+00
   34     6 C     1.352228112571E+00  2.632643656324E+00  1.267537521918E+00
   35     6 C    -2.632643656324E+00  1.352228112571E+00 -1.267537521918E+00
   36     6 C     2.632643656324E+00 -1.352228112571E+00 -1.267537521918E+00
   37     6 C     3.483761615122E+00  1.027099580619E+00  1.742447254634E+00
   38     6 C    -3.483761615122E+00 -1.027099580619E+00  1.742447254634E+00
   39     6 C     1.027099580619E+00 -3.483761615122E+00 -1.742447254634E+00
   40     6 C    -1.027099580619E+00  3.483761615122E+00 -1.742447254634E+00
   41     7 N    -1.725224931334E+00  5.181396106141E+00  2.066307742676E+00
   42     7 N     1.725224931334E+00 -5.181396106141E+00  2.066307742676E+00
   43     7 N     5.181396106141E+00  1.725224931334E+00 -2.066307742676E+00
   44     7 N    -5.181396106141E+00 -1.725224931334E+00 -2.066307742676E+00
   45     7 N    -2.182941549095E+00  3.890347489423E+00  1.953377254857E+00
   46     7 N     2.182941549095E+00 -3.890347489423E+00  1.953377254857E+00
   47     7 N     3.890347489423E+00  2.182941549095E+00 -1.953377254857E+00
   48     7 N    -3.890347489423E+00 -2.182941549095E+00 -1.953377254857E+00
   49     7 N     1.660938027134E+00 -1.481464354787E-01 -5.085654944597E+00
   50     7 N    -1.660938027134E+00  1.481464354787E-01 -5.085654944597E+00
   51     7 N    -1.481464354787E-01 -1.660938027134E+00  5.085654944597E+00
   52     7 N     1.481464354787E-01  1.660938027134E+00  5.085654944597E+00
   53     7 N    -3.363973978507E+00  3.907682577356E+00  1.376218929817E+00
   54     7 N     3.363973978507E+00 -3.907682577356E+00  1.376218929817E+00
   55     7 N     3.907682577356E+00  3.363973978507E+00 -1.376218929817E+00
   56     7 N    -3.907682577356E+00 -3.363973978507E+00 -1.376218929817E+00
   57     7 N    -1.131200735460E+00 -1.335548815664E+00  1.332092117464E+00
   58     7 N     1.131200735460E+00  1.335548815664E+00  1.332092117464E+00
   59     7 N    -1.335548815664E+00  1.131200735460E+00 -1.332092117464E+00
   60     7 N     1.335548815664E+00 -1.131200735460E+00 -1.332092117464E+00
   61    30 ZN    4.963946136789E-16  5.364187200928E+00 -9.278806470111E+00
   62    30 ZN    0.000000000000E+00  5.007218706027E-18  6.185870980074E+00

 ****    4 SYMMOPS - TRANSLATORS IN FRACTIONAL UNITS
 **** MATRICES AND TRANSLATORS IN THE CRYSTALLOGRAPHIC REFERENCE FRAME
   V INV                    ROTATION MATRICES                   TRANSLATORS
   1   1  1.00  0.00  0.00  0.00  1.00  0.00  0.00  0.00  1.00  0.00  0.00  0.00
   2   2  0.00  1.00 -1.00  1.00  0.00 -1.00 -0.00  0.00 -1.00  0.00  0.00  0.00
   3   4 -0.00 -1.00  0.00  0.00 -1.00  1.00  1.00 -1.00  0.00  0.00  0.00  0.00
   4   3 -1.00 -0.00  1.00 -1.00  0.00 -0.00 -1.00  1.00 -0.00  0.00  0.00  0.00
 TTTTTTTTTTTTTTTTTTTTTTTTTTTTTT END         TELAPSE    62613.56 TCPU    60718.58
 EEEEEEEEEE TERMINATION  DATE 19 11 2023 TIME 10:32:26.6
NODE    0 CPU TIME =     60718.579
NODE    1 CPU TIME =     61208.382
NODE    2 CPU TIME =     61261.155
NODE    3 CPU TIME =     60852.179
NODE    4 CPU TIME =     61116.830
NODE    5 CPU TIME =     61460.810
NODE    6 CPU TIME =     61272.084
NODE    7 CPU TIME =     60887.891
NODE    8 CPU TIME =     61057.033
NODE    9 CPU TIME =     61047.199
NODE   10 CPU TIME =     61121.229
NODE   11 CPU TIME =     60845.882
NODE   12 CPU TIME =     61193.070
NODE   13 CPU TIME =     61116.520
NODE   14 CPU TIME =     61132.514
NODE   15 CPU TIME =     60916.508
NODE   16 CPU TIME =     60889.891
NODE   17 CPU TIME =     60937.136
NODE   18 CPU TIME =     61055.582
NODE   19 CPU TIME =     60916.340
NODE   20 CPU TIME =     60892.213
NODE   21 CPU TIME =     60842.837
NODE   22 CPU TIME =     60850.944
NODE   23 CPU TIME =     60772.623
    TOTAL CPU TIME =   1464365.430
trying normal rsh (/usr/bin/rsh)
exec: No such file or directory
trying normal rsh (/usr/bin/rsh)
exec: No such file or directory
trying normal rsh (/usr/bin/rsh)
exec: No such file or directory
trying normal rsh (/usr/bin/rsh)
exec: No such file or directory
