Loading crystal17/1.0.2/intel/19.0
  Loading requirement: intel/19.0 ompi/4.0.1/intel/19.0
 PROCESS            2  OF           24  WORKING
 PROCESS            6  OF           24  WORKING
 PROCESS           12  OF           24  WORKING
 PROCESS           13  OF           24  WORKING
 PROCESS           19  OF           24  WORKING
 PROCESS           23  OF           24  WORKING
 PROCESS            0  OF           24  WORKING
 PROCESS            1  OF           24  WORKING
 PROCESS            3  OF           24  WORKING
 PROCESS            4  OF           24  WORKING
 PROCESS            5  OF           24  WORKING
 PROCESS            7  OF           24  WORKING
 PROCESS            8  OF           24  WORKING
 PROCESS            9  OF           24  WORKING
 PROCESS           10  OF           24  WORKING
 PROCESS           14  OF           24  WORKING
 PROCESS           15  OF           24  WORKING
 PROCESS           16  OF           24  WORKING
 PROCESS           18  OF           24  WORKING
 PROCESS           20  OF           24  WORKING
 PROCESS           21  OF           24  WORKING
 PROCESS           22  OF           24  WORKING
 PROCESS           17  OF           24  WORKING
 PROCESS           11  OF           24  WORKING

         
 *******************************************************************************
 *                                                                             *
 *                               CRYSTAL17                                     *
 *                      public : 1.0.2 - March 1st, 2018                       *
 *                       HTTP://WWW.CRYSTAL.UNITO.IT                           *
 *                                                                             *
 *                              MAIN AUTHORS                                   *
 *                                                                             *
 *  R. DOVESI(1,11), V.R. SAUNDERS(2), C. ROETTI(1,11), R. ORLANDO(1,11),      *
 *  C.M. ZICOVICH-WILSON(1,3), F. PASCALE(4), B. CIVALLERI(1,11),              *
 *  K. DOLL(5), N.M. HARRISON(2,6), I.J. BUSH(7), Ph. D'ARCO(8),               *
 *  M. LLUNELL(9), M. CAUSA'(10), Y. NOEL(8), L. MASCHIO(1,11), A. ERBA(1,11)  *
 *  M. RE'RAT(14), S. CASASSA(1,11)                                            *
 *                                                                             *
 *        CONTRIBUTIONS TO THE CODE HAVE ALSO BEEN GIVEN BY                    *
 *                                                                             *
 *  M. FERRABONE(1,11), M. DE LA PIERRE(1,11), M. FERRERO(1,11),               *
 *  J. BAIMA(1,11), E. ALBANESE(1,11), M.F. PEINTINGER(12), R. BAST(13),       *
 *  B. KIRTMAN(15), V. LACIVITA(1,11), R. DEMICHELIS(1,16)                     *
 *  G. BRANDEBURG(17), S. SALUSTRO(1,11), G. SANSONE(1,11)                     *
 *  M.T. RUGGIERO(18)                                                          *
 *                                                                             *
 * (1) THEORETICAL CHEMISTRY GROUP - UNIVERSITA' DI TORINO - TORINO (ITALY)    *
 * (2) COMPUTATIONAL SCIENCE & ENGINEERING DEPARTMENT - STFC DARESBURY (UK)    *
 * (3) UNIVERSIDAD AUTONOMA DEL ESTADO DE MORELOS - CUERNAVACA (MEXICO)        *
 * (4) UNIVERSITE' DE LORRAINE - NANCY (FRANCE)                                *
 * (5) UNIVERSITAET STUTTGART- STUTTGART (GERMANY)                             *
 * (6) IMPERIAL COLLEGE - LONDON (UK)                                          *
 * (7) OXFORD E-RESEARCH CENTRE - OXFORD (UK)                                  *
 * (8) UPMC - SORBONNE UNIVERSITES - PARIS (FRANCE)                            *
 * (9) UNIVERSIDAD DE BARCELONA - BARCELONA (SPAIN)                            *
 *(10) UNIVERSITA' DI NAPOLI "FEDERICO II" - NAPOLI (ITALY)                    *
 *(11) NIS - NANOSTRUCTURED INTERFACES AND SURFACES - TORINO (ITALY)           *
 *(12) MPI FUER CHEMISCHE ENERGIEKONVERSION - MUELHEIM AN DER RUHR (GERMANY)   *
 *(13) UNIVERSITY OF TROMSO - TROMSO (NORWAY)                                  *
 *(14) UNIVERSITE' DE PAU ET DES PAYS DE L'ADOUR - PAU (FRANCE)                *
 *(15) UNIVERSITY OF CALIFORNIA SANTA BARBARA - SANTA BARBARA (USA)            *
 *(16) CURTIN UNIVERSITY - PERTH (AUSTRALIA)                                   *
 *(17) UNIVERSITY COLLEGE LONDON - LONDON (UK)                                 *
 *(18) CAMBRIDGE UNIVERSITY - CAMBRIDGE (UK)                                   *
 *                                                                             *
 *******************************************************************************
 EEEEEEEEEE STARTING  DATE 17 11 2023 TIME 19:10:22.4
 C:\Users\wilso\AppData\Local\Temp\tmp_p\newconn.mol                             

 CRYSTAL CALCULATION
 (INPUT ACCORDING TO THE INTERNATIONAL TABLES FOR X-RAY CRYSTALLOGRAPHY)
 CRYSTAL FAMILY                       :  TETRAGONAL  
 CRYSTAL CLASS  (GROTH - 1921)        :  TETRAGONAL DISPHENOIDAL              

 SPACE GROUP (NONCENTROSYMMETRIC)     :  I -4            

 LATTICE PARAMETERS  (ANGSTROMS AND DEGREES) - CONVENTIONAL CELL
        A           B           C        ALPHA        BETA       GAMMA
    10.15800    10.15800    13.29400    90.00000    90.00000    90.00000


 NUMBER OF IRREDUCIBLE ATOMS IN THE CONVENTIONAL CELL:  124

 INPUT COORDINATES

 ATOM AT. N.              COORDINATES
   1   9     5.576100000000E-01  7.373700000000E-01  1.366700000000E-01
   2   9     4.423900000000E-01  2.626300000000E-01  1.366700000000E-01
   3   9     7.373700000000E-01  4.423900000000E-01  8.633300000000E-01
   4   9     2.626300000000E-01  5.576100000000E-01  8.633300000000E-01
   5   9     5.761000000000E-02  2.373700000000E-01  6.366700000000E-01
   6   9     9.423900000000E-01  7.626300000000E-01  6.366700000000E-01
   7   9     2.373700000000E-01  9.423900000000E-01  3.633300000000E-01
   8   9     7.626300000000E-01  5.761000000000E-02  3.633300000000E-01
   9   1     9.759200000000E-01  6.751900000000E-01  9.083000000000E-02
  10   1     2.408000000000E-02  3.248100000000E-01  9.083000000000E-02
  11   1     6.751900000000E-01  2.408000000000E-02  9.091700000000E-01
  12   1     3.248100000000E-01  9.759200000000E-01  9.091700000000E-01
  13   1     4.759200000000E-01  1.751900000000E-01  5.908300000000E-01
  14   1     5.240800000000E-01  8.248100000000E-01  5.908300000000E-01
  15   1     1.751900000000E-01  5.240800000000E-01  4.091700000000E-01
  16   1     8.248100000000E-01  4.759200000000E-01  4.091700000000E-01
  17   1     6.058200000000E-01  9.805800000000E-01  1.369900000000E-01
  18   1     3.941800000000E-01  1.942000000000E-02  1.369900000000E-01
  19   1     9.805800000000E-01  3.941800000000E-01  8.630100000000E-01
  20   1     1.942000000000E-02  6.058200000000E-01  8.630100000000E-01
  21   1     1.058200000000E-01  4.805800000000E-01  6.369900000000E-01
  22   1     8.941800000000E-01  5.194200000000E-01  6.369900000000E-01
  23   1     4.805800000000E-01  8.941800000000E-01  3.630100000000E-01
  24   1     5.194200000000E-01  1.058200000000E-01  3.630100000000E-01
  25   1     8.420800000000E-01  5.709000000000E-02  1.240200000000E-01
  26   1     1.579200000000E-01  9.429100000000E-01  1.240200000000E-01
  27   1     5.709000000000E-02  1.579200000000E-01  8.759800000000E-01
  28   1     9.429100000000E-01  8.420800000000E-01  8.759800000000E-01
  29   1     3.420800000000E-01  5.570900000000E-01  6.240200000000E-01
  30   1     6.579200000000E-01  4.429100000000E-01  6.240200000000E-01
  31   1     5.570900000000E-01  6.579200000000E-01  3.759800000000E-01
  32   1     4.429100000000E-01  3.420800000000E-01  3.759800000000E-01
  33   6     2.646500000000E-01  1.859800000000E-01  6.165500000000E-01
  34   6     7.353500000000E-01  8.140200000000E-01  6.165500000000E-01
  35   6     1.859800000000E-01  7.353500000000E-01  3.834500000000E-01
  36   6     8.140200000000E-01  2.646500000000E-01  3.834500000000E-01
  37   6     7.646500000000E-01  6.859800000000E-01  1.165500000000E-01
  38   6     2.353500000000E-01  3.140200000000E-01  1.165500000000E-01
  39   6     6.859800000000E-01  2.353500000000E-01  8.834500000000E-01
  40   6     3.140200000000E-01  7.646500000000E-01  8.834500000000E-01
  41   6     2.514000000000E-01  4.317000000000E-02  6.230000000000E-01
  42   6     7.486000000000E-01  9.568300000000E-01  6.230000000000E-01
  43   6     4.317000000000E-02  7.486000000000E-01  3.770000000000E-01
  44   6     9.568300000000E-01  2.514000000000E-01  3.770000000000E-01
  45   6     7.514000000000E-01  5.431700000000E-01  1.230000000000E-01
  46   6     2.486000000000E-01  4.568300000000E-01  1.230000000000E-01
  47   6     5.431700000000E-01  2.486000000000E-01  8.770000000000E-01
  48   6     4.568300000000E-01  7.514000000000E-01  8.770000000000E-01
  49   6     6.583700000000E-01  7.736700000000E-01  1.273400000000E-01
  50   6     3.416300000000E-01  2.263300000000E-01  1.273400000000E-01
  51   6     7.736700000000E-01  3.416300000000E-01  8.726600000000E-01
  52   6     2.263300000000E-01  6.583700000000E-01  8.726600000000E-01
  53   6     1.583700000000E-01  2.736700000000E-01  6.273400000000E-01
  54   6     8.416300000000E-01  7.263300000000E-01  6.273400000000E-01
  55   6     2.736700000000E-01  8.416300000000E-01  3.726600000000E-01
  56   6     7.263300000000E-01  1.583700000000E-01  3.726600000000E-01
  57   6     8.156900000000E-01  9.525900000000E-01  1.204300000000E-01
  58   6     1.843100000000E-01  4.741000000000E-02  1.204300000000E-01
  59   6     9.525900000000E-01  1.843100000000E-01  8.795700000000E-01
  60   6     4.741000000000E-02  8.156900000000E-01  8.795700000000E-01
  61   6     3.156900000000E-01  4.525900000000E-01  6.204300000000E-01
  62   6     6.843100000000E-01  5.474100000000E-01  6.204300000000E-01
  63   6     4.525900000000E-01  6.843100000000E-01  3.795700000000E-01
  64   6     5.474100000000E-01  3.156900000000E-01  3.795700000000E-01
  65   6     3.914300000000E-01  2.396500000000E-01  6.044300000000E-01
  66   6     6.085700000000E-01  7.603500000000E-01  6.044300000000E-01
  67   6     2.396500000000E-01  6.085700000000E-01  3.955700000000E-01
  68   6     7.603500000000E-01  3.914300000000E-01  3.955700000000E-01
  69   6     8.914300000000E-01  7.396500000000E-01  1.044300000000E-01
  70   6     1.085700000000E-01  2.603500000000E-01  1.044300000000E-01
  71   6     7.396500000000E-01  1.085700000000E-01  8.955700000000E-01
  72   6     2.603500000000E-01  8.914300000000E-01  8.955700000000E-01
  73   6     3.150000000000E-01  9.141000000000E-02  1.282200000000E-01
  74   6     6.850000000000E-01  9.085900000000E-01  1.282200000000E-01
  75   6     9.141000000000E-02  6.850000000000E-01  8.717800000000E-01
  76   6     9.085900000000E-01  3.150000000000E-01  8.717800000000E-01
  77   6     8.150000000000E-01  5.914100000000E-01  6.282200000000E-01
  78   6     1.850000000000E-01  4.085900000000E-01  6.282200000000E-01
  79   6     5.914100000000E-01  1.850000000000E-01  3.717800000000E-01
  80   6     4.085900000000E-01  8.150000000000E-01  3.717800000000E-01
  81   7     8.407700000000E-01  4.628300000000E-01  1.672900000000E-01
  82   7     1.592300000000E-01  5.371700000000E-01  1.672900000000E-01
  83   7     4.628300000000E-01  1.592300000000E-01  8.327100000000E-01
  84   7     5.371700000000E-01  8.407700000000E-01  8.327100000000E-01
  85   7     3.407700000000E-01  9.628300000000E-01  6.672900000000E-01
  86   7     6.592300000000E-01  3.717000000000E-02  6.672900000000E-01
  87   7     9.628300000000E-01  6.592300000000E-01  3.327100000000E-01
  88   7     3.717000000000E-02  3.407700000000E-01  3.327100000000E-01
  89   7     2.940400000000E-01  8.358500000000E-01  6.597700000000E-01
  90   7     7.059600000000E-01  1.641500000000E-01  6.597700000000E-01
  91   7     8.358500000000E-01  7.059600000000E-01  3.402300000000E-01
  92   7     1.641500000000E-01  2.940400000000E-01  3.402300000000E-01
  93   7     7.940400000000E-01  3.358500000000E-01  1.597700000000E-01
  94   7     2.059600000000E-01  6.641500000000E-01  1.597700000000E-01
  95   7     3.358500000000E-01  2.059600000000E-01  8.402300000000E-01
  96   7     6.641500000000E-01  7.940400000000E-01  8.402300000000E-01
  97   7     1.518600000000E-01  9.677900000000E-01  5.884000000000E-01
  98   7     8.481400000000E-01  3.221000000000E-02  5.884000000000E-01
  99   7     9.677900000000E-01  8.481400000000E-01  4.116000000000E-01
 100   7     3.221000000000E-02  1.518600000000E-01  4.116000000000E-01
 101   7     6.518600000000E-01  4.677900000000E-01  8.840000000000E-02
 102   7     3.481400000000E-01  5.322100000000E-01  8.840000000000E-02
 103   7     4.677900000000E-01  3.481400000000E-01  9.116000000000E-01
 104   7     5.322100000000E-01  6.518600000000E-01  9.116000000000E-01
 105   7     1.800200000000E-01  8.388700000000E-01  6.128200000000E-01
 106   7     8.199800000000E-01  1.611300000000E-01  6.128200000000E-01
 107   7     8.388700000000E-01  8.199800000000E-01  3.871800000000E-01
 108   7     1.611300000000E-01  1.800200000000E-01  3.871800000000E-01
 109   7     6.800200000000E-01  3.388700000000E-01  1.128200000000E-01
 110   7     3.199800000000E-01  6.611300000000E-01  1.128200000000E-01
 111   7     3.388700000000E-01  3.199800000000E-01  8.871800000000E-01
 112   7     6.611300000000E-01  6.800200000000E-01  8.871800000000E-01
 113   7     9.174200000000E-01  8.687700000000E-01  1.079100000000E-01
 114   7     8.258000000000E-02  1.312300000000E-01  1.079100000000E-01
 115   7     8.687700000000E-01  8.258000000000E-02  8.920900000000E-01
 116   7     1.312300000000E-01  9.174200000000E-01  8.920900000000E-01
 117   7     4.174200000000E-01  3.687700000000E-01  6.079100000000E-01
 118   7     5.825800000000E-01  6.312300000000E-01  6.079100000000E-01
 119   7     3.687700000000E-01  5.825800000000E-01  3.920900000000E-01
 120   7     6.312300000000E-01  4.174200000000E-01  3.920900000000E-01
 121  30     0.000000000000E+00  5.000000000000E-01  2.500000000000E-01
 122  30     5.000000000000E-01  0.000000000000E+00  7.500000000000E-01
 123  30     0.000000000000E+00  0.000000000000E+00  5.000000000000E-01
 124  30     5.000000000000E-01  5.000000000000E-01  0.000000000000E+00

 *******************************************************************************

 << INFORMATION >>: FROM NOW ON, ALL COORDINATES REFER TO THE PRIMITIVE CELL

 *******************************************************************************

 LATTICE PARAMETERS  (ANGSTROMS AND DEGREES) - PRIMITIVE CELL
       A          B          C        ALPHA      BETA     GAMMA        VOLUME
    9.78647    9.78647    9.78647   117.47208 117.47208  94.43726    685.870456

 INPUT LIST - ATOM N.   2 NOT IRREDUCIBLE

 INPUT LIST - ATOM N.   3 NOT IRREDUCIBLE

 INPUT LIST - ATOM N.   4 NOT IRREDUCIBLE

 INPUT LIST - ATOM N.   1 NOT IRREDUCIBLE

 INPUT LIST - ATOM N.   2 NOT IRREDUCIBLE

 INPUT LIST - ATOM N.   3 NOT IRREDUCIBLE

 INPUT LIST - ATOM N.   4 NOT IRREDUCIBLE

 INPUT LIST - ATOM N.   6 NOT IRREDUCIBLE

 INPUT LIST - ATOM N.   7 NOT IRREDUCIBLE

 INPUT LIST - ATOM N.   8 NOT IRREDUCIBLE

 INPUT LIST - ATOM N.   5 NOT IRREDUCIBLE

 INPUT LIST - ATOM N.   6 NOT IRREDUCIBLE

 INPUT LIST - ATOM N.   7 NOT IRREDUCIBLE

 INPUT LIST - ATOM N.   8 NOT IRREDUCIBLE

 INPUT LIST - ATOM N.  10 NOT IRREDUCIBLE

 INPUT LIST - ATOM N.  11 NOT IRREDUCIBLE

 INPUT LIST - ATOM N.  12 NOT IRREDUCIBLE

 INPUT LIST - ATOM N.   9 NOT IRREDUCIBLE

 INPUT LIST - ATOM N.  10 NOT IRREDUCIBLE

 INPUT LIST - ATOM N.  11 NOT IRREDUCIBLE

 INPUT LIST - ATOM N.  12 NOT IRREDUCIBLE

 INPUT LIST - ATOM N.  14 NOT IRREDUCIBLE

 INPUT LIST - ATOM N.  15 NOT IRREDUCIBLE

 INPUT LIST - ATOM N.  16 NOT IRREDUCIBLE

 INPUT LIST - ATOM N.  13 NOT IRREDUCIBLE

 INPUT LIST - ATOM N.  14 NOT IRREDUCIBLE

 INPUT LIST - ATOM N.  15 NOT IRREDUCIBLE

 INPUT LIST - ATOM N.  16 NOT IRREDUCIBLE

 INPUT LIST - ATOM N.  18 NOT IRREDUCIBLE

 INPUT LIST - ATOM N.  19 NOT IRREDUCIBLE

 INPUT LIST - ATOM N.  20 NOT IRREDUCIBLE

 INPUT LIST - ATOM N.  17 NOT IRREDUCIBLE

 INPUT LIST - ATOM N.  18 NOT IRREDUCIBLE

 INPUT LIST - ATOM N.  19 NOT IRREDUCIBLE

 INPUT LIST - ATOM N.  20 NOT IRREDUCIBLE

 INPUT LIST - ATOM N.  22 NOT IRREDUCIBLE

 INPUT LIST - ATOM N.  23 NOT IRREDUCIBLE

 INPUT LIST - ATOM N.  24 NOT IRREDUCIBLE

 INPUT LIST - ATOM N.  21 NOT IRREDUCIBLE

 INPUT LIST - ATOM N.  22 NOT IRREDUCIBLE

 INPUT LIST - ATOM N.  23 NOT IRREDUCIBLE

 INPUT LIST - ATOM N.  24 NOT IRREDUCIBLE

 INPUT LIST - ATOM N.  26 NOT IRREDUCIBLE

 INPUT LIST - ATOM N.  27 NOT IRREDUCIBLE

 INPUT LIST - ATOM N.  28 NOT IRREDUCIBLE

 INPUT LIST - ATOM N.  25 NOT IRREDUCIBLE

 INPUT LIST - ATOM N.  26 NOT IRREDUCIBLE

 INPUT LIST - ATOM N.  27 NOT IRREDUCIBLE

 INPUT LIST - ATOM N.  28 NOT IRREDUCIBLE

 INPUT LIST - ATOM N.  30 NOT IRREDUCIBLE

 INPUT LIST - ATOM N.  31 NOT IRREDUCIBLE

 INPUT LIST - ATOM N.  32 NOT IRREDUCIBLE

 INPUT LIST - ATOM N.  29 NOT IRREDUCIBLE

 INPUT LIST - ATOM N.  30 NOT IRREDUCIBLE

 INPUT LIST - ATOM N.  31 NOT IRREDUCIBLE

 INPUT LIST - ATOM N.  32 NOT IRREDUCIBLE

 INPUT LIST - ATOM N.  34 NOT IRREDUCIBLE

 INPUT LIST - ATOM N.  35 NOT IRREDUCIBLE

 INPUT LIST - ATOM N.  36 NOT IRREDUCIBLE

 INPUT LIST - ATOM N.  33 NOT IRREDUCIBLE

 INPUT LIST - ATOM N.  34 NOT IRREDUCIBLE

 INPUT LIST - ATOM N.  35 NOT IRREDUCIBLE

 INPUT LIST - ATOM N.  36 NOT IRREDUCIBLE

 INPUT LIST - ATOM N.  38 NOT IRREDUCIBLE

 INPUT LIST - ATOM N.  39 NOT IRREDUCIBLE

 INPUT LIST - ATOM N.  40 NOT IRREDUCIBLE

 INPUT LIST - ATOM N.  37 NOT IRREDUCIBLE

 INPUT LIST - ATOM N.  38 NOT IRREDUCIBLE

 INPUT LIST - ATOM N.  39 NOT IRREDUCIBLE

 INPUT LIST - ATOM N.  40 NOT IRREDUCIBLE

 INPUT LIST - ATOM N.  42 NOT IRREDUCIBLE

 INPUT LIST - ATOM N.  43 NOT IRREDUCIBLE

 INPUT LIST - ATOM N.  44 NOT IRREDUCIBLE

 INPUT LIST - ATOM N.  41 NOT IRREDUCIBLE

 INPUT LIST - ATOM N.  42 NOT IRREDUCIBLE

 INPUT LIST - ATOM N.  43 NOT IRREDUCIBLE

 INPUT LIST - ATOM N.  44 NOT IRREDUCIBLE

 INPUT LIST - ATOM N.  46 NOT IRREDUCIBLE

 INPUT LIST - ATOM N.  47 NOT IRREDUCIBLE

 INPUT LIST - ATOM N.  48 NOT IRREDUCIBLE

 INPUT LIST - ATOM N.  45 NOT IRREDUCIBLE

 INPUT LIST - ATOM N.  46 NOT IRREDUCIBLE

 INPUT LIST - ATOM N.  47 NOT IRREDUCIBLE

 INPUT LIST - ATOM N.  48 NOT IRREDUCIBLE

 INPUT LIST - ATOM N.  50 NOT IRREDUCIBLE

 INPUT LIST - ATOM N.  51 NOT IRREDUCIBLE

 INPUT LIST - ATOM N.  52 NOT IRREDUCIBLE

 INPUT LIST - ATOM N.  49 NOT IRREDUCIBLE

 INPUT LIST - ATOM N.  50 NOT IRREDUCIBLE

 INPUT LIST - ATOM N.  51 NOT IRREDUCIBLE

 INPUT LIST - ATOM N.  52 NOT IRREDUCIBLE

 INPUT LIST - ATOM N.  54 NOT IRREDUCIBLE

 INPUT LIST - ATOM N.  55 NOT IRREDUCIBLE

 INPUT LIST - ATOM N.  56 NOT IRREDUCIBLE

 INPUT LIST - ATOM N.  53 NOT IRREDUCIBLE

 INPUT LIST - ATOM N.  54 NOT IRREDUCIBLE

 INPUT LIST - ATOM N.  55 NOT IRREDUCIBLE

 INPUT LIST - ATOM N.  56 NOT IRREDUCIBLE

 INPUT LIST - ATOM N.  58 NOT IRREDUCIBLE

 INPUT LIST - ATOM N.  59 NOT IRREDUCIBLE

 INPUT LIST - ATOM N.  60 NOT IRREDUCIBLE

 INPUT LIST - ATOM N.  57 NOT IRREDUCIBLE

 INPUT LIST - ATOM N.  58 NOT IRREDUCIBLE

 INPUT LIST - ATOM N.  59 NOT IRREDUCIBLE

 INPUT LIST - ATOM N.  60 NOT IRREDUCIBLE

 INPUT LIST - ATOM N.  61 NOT IRREDUCIBLE

 INPUT LIST - ATOM N.  62 NOT IRREDUCIBLE

 COORDINATES OF THE EQUIVALENT ATOMS (FRACTIONAL UNITS)

 N. ATOM EQUIV AT. N.          X                  Y                  Z

   1   1   1    9 F    -1.25960000000E-01 -3.05720000000E-01  2.94980000000E-01
   2   1   2    9 F     3.99300000000E-01 -4.20940000000E-01 -2.94980000000E-01
   3   1   3    9 F     3.05720000000E-01 -3.99300000000E-01  1.79760000000E-01
   4   1   4    9 F     4.20940000000E-01  1.25960000000E-01 -1.79760000000E-01








   5   9   1    1 H    -2.33980000000E-01  6.67500000000E-02 -3.48890000000E-01
   6   9   2    1 H     4.15640000000E-01  1.14910000000E-01  3.48890000000E-01
   7   9   3    1 H    -6.67500000000E-02 -4.15640000000E-01 -3.00730000000E-01
   8   9   4    1 H    -1.14910000000E-01  2.33980000000E-01  3.00730000000E-01








   9  17   1    1 H     1.17570000000E-01 -2.57190000000E-01 -4.13600000000E-01
  10  17   2    1 H     1.56410000000E-01 -4.68830000000E-01  4.13600000000E-01
  11  17   3    1 H     2.57190000000E-01 -1.56410000000E-01  3.74760000000E-01
  12  17   4    1 H     4.68830000000E-01 -1.17570000000E-01 -3.74760000000E-01

 NUMBER OF SYMMETRY OPERATORS         :    4
 *******************************************************************************
 * GEOMETRY EDITING - INPUT COORDINATES ARE GIVEN IN ANGSTROM         
 *******************************************************************************

 GEOMETRY NOW FULLY CONSISTENT WITH THE GROUP
 *******************************************************************************
 *  GEOMETRY EDITING
 *  THE SYMMETRY OF THE CRYSTAL IS KEPT AND APPLIED TO THE PERTURBATION
 *******************************************************************************
 INFORMATION **** NEW DEFAULT **** FINALRUN 4 FOR GEOMETRY OPTIMIZATIONS
 INFORMATION **** NEW DEFAULT **** OPTGEOM OPTIMIZES BOTH ATOMIC COORDINATES AND CELL PARAMETERS
 INFORMATION **** NEW DEFAULT **** TOL. ON ATOMIC DISP TO REDEFINE REF. GEOMETRY: 0.8 Angs
 INFORMATION **** NEW DEFAULT **** N POINTS TO REDEFINE REF. GEOMETRY: N OF OPT DEGS OF FREEDOM
 INFORMATION **** NEW DEFAULT **** TOL. ON ENERGY TO REDEFINE REF. GEOMETRY: 10**-3*(5*N. ATOMS)

 IMPORTANT INFORMATION:
 THE COORDINATE SYSTEM ADOPTED IN THE OPTIMIZATION IS NOT IN
 GENERAL HOMOGENEOUS UNITS. FOR THIS REASON THE GRADIENT AND 
 HESSIAN MATRIX IN TERMS OF THIS SYSTEM ARE GIVEN WITHOUT
 UNITS. FOR MORE DETAILS SEE THE MANUAL.

 *******************************************************************************
 COMBINED CELL/ATOM OPTIMIZATION CONTROL

 INITIAL TRUST RADIUS         0.50000 MAXIMUM TRUST RADIUS               4.00000
 MAXIMUM GRADIENT COMPONENT   0.00045 MAXIMUM DISPLACEMENT COMPONENT     0.00180
 R.M.S. OF GRADIENT COMPONENT 0.00030 R.M.S. OF DISPLACEMENT COMPONENTS  0.00120
 THRESHOLD ON ENERGY CHANGE 0.100E-06 EXTRAPOLATING POLYNOMIAL ORDER           2
 MAXIMUM ALLOWED NUMBER OF STEPS   -1 SORTING OF ENERGY POINTS:               NO
 ANALYTICAL  GRADIENT                 HESSIAN UPDATING                      BFGS
 STEP SIZE NUMERICAL GRADIENT 0.00100
 INITIAL HESSIAN MATRIX: SCHLEGEL MODEL 2
 *******************************************************************************


 GCALCO - MAX INDICES DIRECT LATTICE VECTOR    14    14    16
 NO.OF VECTORS CREATED 6999 STARS  481 RMAX   197.96270 BOHR

 GEOMETRY FOR WAVE FUNCTION - DIMENSIONALITY OF THE SYSTEM    3
 (NON PERIODIC DIRECTION: LATTICE PARAMETER FORMALLY SET TO 500)
 *******************************************************************************
 LATTICE PARAMETERS (ANGSTROMS AND DEGREES) - BOHR = 0.5291772083 ANGSTROM
 PRIMITIVE CELL - CENTRING CODE 6/0 VOLUME=   685.870456 - DENSITY  1.898 g/cm^3
         A              B              C           ALPHA      BETA       GAMMA 
     9.78647490     9.78647490     9.78647490   117.472078 117.472078  94.437262
 *******************************************************************************
 ATOMS IN THE ASYMMETRIC UNIT   17 - ATOMS IN THE UNIT CELL:   62
     ATOM                 X/A                 Y/B                 Z/C    
 *******************************************************************************
      1 T   9 F    -1.259600000000E-01 -3.057200000000E-01  2.949800000000E-01
      2 F   9 F     3.993000000000E-01 -4.209400000000E-01 -2.949800000000E-01
      3 F   9 F     3.057200000000E-01 -3.993000000000E-01  1.797600000000E-01
      4 F   9 F     4.209400000000E-01  1.259600000000E-01 -1.797600000000E-01
      5 T   1 H    -2.339800000000E-01  6.675000000000E-02 -3.488900000000E-01
      6 F   1 H     4.156400000000E-01  1.149100000000E-01  3.488900000000E-01
      7 F   1 H    -6.675000000000E-02 -4.156400000000E-01 -3.007300000000E-01
      8 F   1 H    -1.149100000000E-01  2.339800000000E-01  3.007300000000E-01
      9 T   1 H     1.175700000000E-01 -2.571900000000E-01 -4.136000000000E-01
     10 F   1 H     1.564100000000E-01 -4.688300000000E-01  4.136000000000E-01
     11 F   1 H     2.571900000000E-01 -1.564100000000E-01  3.747600000000E-01
     12 F   1 H     4.688300000000E-01 -1.175700000000E-01 -3.747600000000E-01
     13 T   1 H     1.811100000000E-01 -3.390000000000E-02 -1.008300000000E-01
     14 F   1 H     6.693000000000E-02  2.819400000000E-01  1.008300000000E-01
     15 F   1 H     3.390000000000E-02 -6.693000000000E-02  2.150100000000E-01
     16 F   1 H    -2.819400000000E-01 -1.811100000000E-01 -2.150100000000E-01
     17 T   6 C    -1.974700000000E-01 -1.188000000000E-01  4.506300000000E-01
     18 F   6 C     4.305700000000E-01  3.519000000000E-01 -4.506300000000E-01
     19 F   6 C     1.188000000000E-01 -4.305700000000E-01 -7.867000000000E-02
     20 F   6 C    -3.519000000000E-01  1.974700000000E-01  7.867000000000E-02
     21 T   6 C    -3.338300000000E-01 -1.256000000000E-01  2.945700000000E-01
     22 F   6 C    -4.201700000000E-01  3.716000000000E-01 -2.945700000000E-01
     23 F   6 C     1.256000000000E-01  4.201700000000E-01 -2.082300000000E-01
     24 F   6 C    -3.716000000000E-01  3.338300000000E-01  2.082300000000E-01
     25 T   6 C    -9.899000000000E-02 -2.142900000000E-01  4.320400000000E-01
     26 F   6 C     3.536700000000E-01  4.689700000000E-01 -4.320400000000E-01
     27 F   6 C     2.142900000000E-01 -3.536700000000E-01  1.153000000000E-01
     28 F   6 C    -4.689700000000E-01  9.899000000000E-02 -1.153000000000E-01
     29 T   6 C     7.302000000000E-02 -6.388000000000E-02 -2.317200000000E-01
     30 F   6 C     1.678400000000E-01  3.047400000000E-01  2.317200000000E-01
     31 F   6 C     6.388000000000E-02 -1.678400000000E-01  1.369000000000E-01
     32 F   6 C    -3.047400000000E-01 -7.302000000000E-02 -1.369000000000E-01
     33 T   6 C    -1.559200000000E-01 -4.140000000000E-03 -3.689200000000E-01
     34 F   6 C     3.647800000000E-01  2.130000000000E-01  3.689200000000E-01
     35 F   6 C     4.140000000000E-03 -3.647800000000E-01 -1.517800000000E-01
     36 F   6 C    -2.130000000000E-01  1.559200000000E-01  1.517800000000E-01
     37 T   6 C     2.196300000000E-01  4.432200000000E-01  4.064100000000E-01
     38 F   6 C     3.681000000000E-02 -1.867800000000E-01 -4.064100000000E-01
     39 F   6 C    -4.432200000000E-01 -3.681000000000E-02 -2.235900000000E-01
     40 F   6 C     1.867800000000E-01 -2.196300000000E-01  2.235900000000E-01
     41 T   7 N    -3.698800000000E-01  8.060000000000E-03  3.036000000000E-01
     42 F   7 N    -2.955400000000E-01  3.265200000000E-01 -3.036000000000E-01
     43 F   7 N    -8.060000000000E-03  2.955400000000E-01 -3.779400000000E-01
     44 F   7 N    -3.265200000000E-01  3.698800000000E-01  3.779400000000E-01
     45 T   7 N     4.956200000000E-01 -4.619000000000E-02  1.298900000000E-01
     46 F   7 N    -1.760800000000E-01  3.657300000000E-01 -1.298900000000E-01
     47 F   7 N     4.619000000000E-02  1.760800000000E-01 -4.581900000000E-01
     48 F   7 N    -3.657300000000E-01 -4.956200000000E-01  4.581900000000E-01
     49 T   7 N    -4.438100000000E-01 -2.597400000000E-01  1.196500000000E-01
     50 F   7 N    -3.793900000000E-01  4.365400000000E-01 -1.196500000000E-01
     51 F   7 N     2.597400000000E-01  3.793900000000E-01 -1.840700000000E-01
     52 F   7 N    -4.365400000000E-01  4.438100000000E-01  1.840700000000E-01
     53 T   7 N     4.516900000000E-01 -2.071600000000E-01  1.889000000000E-02
     54 F   7 N    -2.260500000000E-01  4.328000000000E-01 -1.889000000000E-02
     55 F   7 N     2.071600000000E-01  2.260500000000E-01 -3.411500000000E-01
     56 F   7 N    -4.328000000000E-01 -4.516900000000E-01  3.411500000000E-01
     57 T   7 N    -2.332000000000E-02  2.533000000000E-02 -2.138100000000E-01
     58 F   7 N     2.391400000000E-01  1.904900000000E-01  2.138100000000E-01
     59 F   7 N    -2.533000000000E-02 -2.391400000000E-01 -4.865000000000E-02
     60 F   7 N    -1.904900000000E-01  2.332000000000E-02  4.865000000000E-02
     61 T  30 ZN   -2.500000000000E-01  2.500000000000E-01  5.000000000000E-01
     62 T  30 ZN   -5.000000000000E-01  5.000000000000E-01  0.000000000000E+00

 TRANSFORMATION MATRIX PRIMITIVE-CRYSTALLOGRAPHIC CELL
  0.0000  1.0000  1.0000  1.0000  0.0000  1.0000  1.0000  1.0000  0.0000

 *******************************************************************************
 CRYSTALLOGRAPHIC CELL (VOLUME=       1371.74091142)
         A              B              C           ALPHA      BETA       GAMMA 
    10.15800000    10.15800000    13.29400000    90.000000  90.000000  90.000000

 COORDINATES IN THE CRYSTALLOGRAPHIC CELL
     ATOM                 X/A                 Y/B                 Z/C    
 *******************************************************************************
      1 T   9 F     5.761000000000E-02  2.373700000000E-01 -3.633300000000E-01
      2 F   9 F    -5.761000000000E-02 -2.373700000000E-01 -3.633300000000E-01
      3 F   9 F     2.373700000000E-01 -5.761000000000E-02  3.633300000000E-01
      4 F   9 F    -2.373700000000E-01  5.761000000000E-02  3.633300000000E-01
      5 T   1 H    -2.408000000000E-02 -3.248100000000E-01  9.083000000000E-02
      6 F   1 H     2.408000000000E-02  3.248100000000E-01  9.083000000000E-02
      7 F   1 H    -3.248100000000E-01  2.408000000000E-02 -9.083000000000E-02
      8 F   1 H     3.248100000000E-01 -2.408000000000E-02 -9.083000000000E-02
      9 T   1 H    -3.941800000000E-01 -1.942000000000E-02  1.369900000000E-01
     10 F   1 H     3.941800000000E-01  1.942000000000E-02  1.369900000000E-01
     11 F   1 H    -1.942000000000E-02  3.941800000000E-01 -1.369900000000E-01
     12 F   1 H     1.942000000000E-02 -3.941800000000E-01 -1.369900000000E-01
     13 T   1 H    -1.579200000000E-01  5.709000000000E-02  1.240200000000E-01
     14 F   1 H     1.579200000000E-01 -5.709000000000E-02  1.240200000000E-01
     15 F   1 H     5.709000000000E-02  1.579200000000E-01 -1.240200000000E-01
     16 F   1 H    -5.709000000000E-02 -1.579200000000E-01 -1.240200000000E-01
     17 T   6 C    -2.353500000000E-01 -3.140200000000E-01  1.165500000000E-01
     18 F   6 C     2.353500000000E-01  3.140200000000E-01  1.165500000000E-01
     19 F   6 C    -3.140200000000E-01  2.353500000000E-01 -1.165500000000E-01
     20 F   6 C     3.140200000000E-01 -2.353500000000E-01 -1.165500000000E-01
     21 T   6 C    -2.486000000000E-01 -4.568300000000E-01  1.230000000000E-01
     22 F   6 C     2.486000000000E-01  4.568300000000E-01  1.230000000000E-01
     23 F   6 C    -4.568300000000E-01  2.486000000000E-01 -1.230000000000E-01
     24 F   6 C     4.568300000000E-01 -2.486000000000E-01 -1.230000000000E-01
     25 T   6 C    -3.416300000000E-01 -2.263300000000E-01  1.273400000000E-01
     26 F   6 C     3.416300000000E-01  2.263300000000E-01  1.273400000000E-01
     27 F   6 C    -2.263300000000E-01  3.416300000000E-01 -1.273400000000E-01
     28 F   6 C     2.263300000000E-01 -3.416300000000E-01 -1.273400000000E-01
     29 T   6 C    -1.843100000000E-01 -4.741000000000E-02  1.204300000000E-01
     30 F   6 C     1.843100000000E-01  4.741000000000E-02  1.204300000000E-01
     31 F   6 C    -4.741000000000E-02  1.843100000000E-01 -1.204300000000E-01
     32 F   6 C     4.741000000000E-02 -1.843100000000E-01 -1.204300000000E-01
     33 T   6 C    -1.085700000000E-01 -2.603500000000E-01  1.044300000000E-01
     34 F   6 C     1.085700000000E-01  2.603500000000E-01  1.044300000000E-01
     35 F   6 C    -2.603500000000E-01  1.085700000000E-01 -1.044300000000E-01
     36 F   6 C     2.603500000000E-01 -1.085700000000E-01 -1.044300000000E-01
     37 T   6 C     3.150000000000E-01  9.141000000000E-02  1.282200000000E-01
     38 F   6 C    -3.150000000000E-01 -9.141000000000E-02  1.282200000000E-01
     39 F   6 C     9.141000000000E-02 -3.150000000000E-01 -1.282200000000E-01
     40 F   6 C    -9.141000000000E-02  3.150000000000E-01 -1.282200000000E-01
     41 T   7 N    -1.592300000000E-01  4.628300000000E-01  1.672900000000E-01
     42 F   7 N     1.592300000000E-01 -4.628300000000E-01  1.672900000000E-01
     43 F   7 N     4.628300000000E-01  1.592300000000E-01 -1.672900000000E-01
     44 F   7 N    -4.628300000000E-01 -1.592300000000E-01 -1.672900000000E-01
     45 T   7 N    -2.059600000000E-01  3.358500000000E-01  1.597700000000E-01
     46 F   7 N     2.059600000000E-01 -3.358500000000E-01  1.597700000000E-01
     47 F   7 N     3.358500000000E-01  2.059600000000E-01 -1.597700000000E-01
     48 F   7 N    -3.358500000000E-01 -2.059600000000E-01 -1.597700000000E-01
     49 T   7 N     1.518600000000E-01 -3.221000000000E-02 -4.116000000000E-01
     50 F   7 N    -1.518600000000E-01  3.221000000000E-02 -4.116000000000E-01
     51 F   7 N    -3.221000000000E-02 -1.518600000000E-01  4.116000000000E-01
     52 F   7 N     3.221000000000E-02  1.518600000000E-01  4.116000000000E-01
     53 T   7 N    -3.199800000000E-01  3.388700000000E-01  1.128200000000E-01
     54 F   7 N     3.199800000000E-01 -3.388700000000E-01  1.128200000000E-01
     55 F   7 N     3.388700000000E-01  3.199800000000E-01 -1.128200000000E-01
     56 F   7 N    -3.388700000000E-01 -3.199800000000E-01 -1.128200000000E-01
     57 T   7 N    -8.258000000000E-02 -1.312300000000E-01  1.079100000000E-01
     58 F   7 N     8.258000000000E-02  1.312300000000E-01  1.079100000000E-01
     59 F   7 N    -1.312300000000E-01  8.258000000000E-02 -1.079100000000E-01
     60 F   7 N     1.312300000000E-01 -8.258000000000E-02 -1.079100000000E-01
     61 T  30 ZN    4.626932236752E-17  5.000000000000E-01  2.500000000000E-01
     62 T  30 ZN    0.000000000000E+00  0.000000000000E+00  5.000000000000E-01

 T = ATOM BELONGING TO THE ASYMMETRIC UNIT

 ****    4 SYMMOPS - TRANSLATORS IN FRACTIONAL UNITS
 **** MATRICES AND TRANSLATORS IN THE CRYSTALLOGRAPHIC REFERENCE FRAME
   V INV                    ROTATION MATRICES                   TRANSLATORS
   1   1  1.00  0.00  0.00  0.00  1.00  0.00  0.00  0.00  1.00  0.00  0.00  0.00
   2   2  0.00  1.00 -1.00  1.00 -0.00 -1.00 -0.00  0.00 -1.00  0.00  0.00  0.00
   3   4 -0.00 -1.00  0.00  0.00 -1.00  1.00  1.00 -1.00  0.00  0.00  0.00  0.00
   4   3 -1.00 -0.00  1.00 -1.00  0.00 -0.00 -1.00  1.00 -0.00  0.00  0.00  0.00

 DIRECT LATTICE VECTORS CARTESIAN COMPONENTS (ANGSTROM)
          X                    Y                    Z
  -0.507900000000E+01   0.507900000000E+01   0.664700000000E+01
   0.507900000000E+01  -0.507900000000E+01   0.664700000000E+01
   0.507900000000E+01   0.507900000000E+01  -0.664700000000E+01


 CARTESIAN COORDINATES - PRIMITIVE CELL
 *******************************************************************************
 *      ATOM          X(ANGSTROM)         Y(ANGSTROM)         Z(ANGSTROM)
 *******************************************************************************
    1     9 F     5.852023800000E-01  2.411204460000E+00 -4.830109020000E+00
    2     9 F    -5.852023800000E-01 -2.411204460000E+00 -4.830109020000E+00
    3     9 F     2.411204460000E+00 -5.852023800000E-01  4.830109020000E+00
    4     9 F    -2.411204460000E+00  5.852023800000E-01  4.830109020000E+00
    5     1 H    -2.446046400000E-01 -3.299419980000E+00  1.207494020000E+00
    6     1 H     2.446046400000E-01  3.299419980000E+00  1.207494020000E+00
    7     1 H    -3.299419980000E+00  2.446046400000E-01 -1.207494020000E+00
    8     1 H     3.299419980000E+00 -2.446046400000E-01 -1.207494020000E+00
    9     1 H    -4.004080440000E+00 -1.972683600000E-01  1.821145060000E+00
   10     1 H     4.004080440000E+00  1.972683600000E-01  1.821145060000E+00
   11     1 H    -1.972683600000E-01  4.004080440000E+00 -1.821145060000E+00
   12     1 H     1.972683600000E-01 -4.004080440000E+00 -1.821145060000E+00
   13     1 H    -1.604151360000E+00  5.799202200000E-01  1.648721880000E+00
   14     1 H     1.604151360000E+00 -5.799202200000E-01  1.648721880000E+00
   15     1 H     5.799202200000E-01  1.604151360000E+00 -1.648721880000E+00
   16     1 H    -5.799202200000E-01 -1.604151360000E+00 -1.648721880000E+00
   17     6 C    -2.390685300000E+00 -3.189815160000E+00  1.549415700000E+00
   18     6 C     2.390685300000E+00  3.189815160000E+00  1.549415700000E+00
   19     6 C    -3.189815160000E+00  2.390685300000E+00 -1.549415700000E+00
   20     6 C     3.189815160000E+00 -2.390685300000E+00 -1.549415700000E+00
   21     6 C    -2.525278800000E+00 -4.640479140000E+00  1.635162000000E+00
   22     6 C     2.525278800000E+00  4.640479140000E+00  1.635162000000E+00
   23     6 C    -4.640479140000E+00  2.525278800000E+00 -1.635162000000E+00
   24     6 C     4.640479140000E+00 -2.525278800000E+00 -1.635162000000E+00
   25     6 C    -3.470277540000E+00 -2.299060140000E+00  1.692857960000E+00
   26     6 C     3.470277540000E+00  2.299060140000E+00  1.692857960000E+00
   27     6 C    -2.299060140000E+00  3.470277540000E+00 -1.692857960000E+00
   28     6 C     2.299060140000E+00 -3.470277540000E+00 -1.692857960000E+00
   29     6 C    -1.872220980000E+00 -4.815907800000E-01  1.600996420000E+00
   30     6 C     1.872220980000E+00  4.815907800000E-01  1.600996420000E+00
   31     6 C    -4.815907800000E-01  1.872220980000E+00 -1.600996420000E+00
   32     6 C     4.815907800000E-01 -1.872220980000E+00 -1.600996420000E+00
   33     6 C    -1.102854060000E+00 -2.644635300000E+00  1.388292420000E+00
   34     6 C     1.102854060000E+00  2.644635300000E+00  1.388292420000E+00
   35     6 C    -2.644635300000E+00  1.102854060000E+00 -1.388292420000E+00
   36     6 C     2.644635300000E+00 -1.102854060000E+00 -1.388292420000E+00
   37     6 C     3.199770000000E+00  9.285427800000E-01  1.704556680000E+00
   38     6 C    -3.199770000000E+00 -9.285427800000E-01  1.704556680000E+00
   39     6 C     9.285427800000E-01 -3.199770000000E+00 -1.704556680000E+00
   40     6 C    -9.285427800000E-01  3.199770000000E+00 -1.704556680000E+00
   41     7 N    -1.617458340000E+00  4.701427140000E+00  2.223953260000E+00
   42     7 N     1.617458340000E+00 -4.701427140000E+00  2.223953260000E+00
   43     7 N     4.701427140000E+00  1.617458340000E+00 -2.223953260000E+00
   44     7 N    -4.701427140000E+00 -1.617458340000E+00 -2.223953260000E+00
   45     7 N    -2.092141680000E+00  3.411564300000E+00  2.123982380000E+00
   46     7 N     2.092141680000E+00 -3.411564300000E+00  2.123982380000E+00
   47     7 N     3.411564300000E+00  2.092141680000E+00 -2.123982380000E+00
   48     7 N    -3.411564300000E+00 -2.092141680000E+00 -2.123982380000E+00
   49     7 N     1.542593880000E+00 -3.271891800000E-01 -5.471810400000E+00
   50     7 N    -1.542593880000E+00  3.271891800000E-01 -5.471810400000E+00
   51     7 N    -3.271891800000E-01 -1.542593880000E+00  5.471810400000E+00
   52     7 N     3.271891800000E-01  1.542593880000E+00  5.471810400000E+00
   53     7 N    -3.250356840000E+00  3.442241460000E+00  1.499829080000E+00
   54     7 N     3.250356840000E+00 -3.442241460000E+00  1.499829080000E+00
   55     7 N     3.442241460000E+00  3.250356840000E+00 -1.499829080000E+00
   56     7 N    -3.442241460000E+00 -3.250356840000E+00 -1.499829080000E+00
   57     7 N    -8.388476400000E-01 -1.333034340000E+00  1.434555540000E+00
   58     7 N     8.388476400000E-01  1.333034340000E+00  1.434555540000E+00
   59     7 N    -1.333034340000E+00  8.388476400000E-01 -1.434555540000E+00
   60     7 N     1.333034340000E+00 -8.388476400000E-01 -1.434555540000E+00
   61    30 ZN    4.700037766092E-16  5.079000000000E+00 -9.970500000000E+00
   62    30 ZN    0.000000000000E+00  0.000000000000E+00  6.647000000000E+00

 *******************************************************************************
 STARTING BASIS SET HANDLING 
 *******************************************************************************

 Loading internal basis set: POB-DZVPP           

 Please cite in your publication:
 Peintinger, M. F., Oliveira, D. V. and Bredow, T. (2013), Generally applicable 
 solid-state Gaussian basis sets, in preparation                                
                                                                                
                    

 *******************************************************************************
 LOCAL ATOMIC FUNCTIONS BASIS SET
 *******************************************************************************
   ATOM   X(AU)   Y(AU)   Z(AU)  N. TYPE  EXPONENT  S COEF   P COEF   D/F/G COEF
 *******************************************************************************
   1 F    1.106   4.557  -9.128
                                  1 S  
                                         2.895E+03-5.341E-03 0.000E+00 0.000E+00
                                         4.354E+02-3.990E-02 0.000E+00 0.000E+00
                                         9.884E+01-1.791E-01 0.000E+00 0.000E+00
                                         2.749E+01-4.676E-01 0.000E+00 0.000E+00
                                         8.541E+00-4.465E-01 0.000E+00 0.000E+00
                                  2 S  
                                         1.123E+00 1.000E+00 0.000E+00 0.000E+00
                                  3 S  
                                         3.743E-01 1.000E+00 0.000E+00 0.000E+00
                           4-     6 P  
                                         2.270E+01 0.000E+00-4.521E-02 0.000E+00
                                         4.987E+00 0.000E+00-2.375E-01 0.000E+00
                                         1.349E+00 0.000E+00-5.129E-01 0.000E+00
                           7-     9 P  
                                         3.474E-01 0.000E+00 1.000E+00 0.000E+00
                          10-    14 D  
                                         9.203E-01 0.000E+00 0.000E+00 1.000E+00
                          15-    19 D  
                                         3.977E-01 0.000E+00 0.000E+00 1.000E+00
   2 F   -1.106  -4.557  -9.128
   3 F    4.557  -1.106   9.128
   4 F   -4.557   1.106   9.128
   5 H   -0.462  -6.235   2.282
                                 77 S  
                                         2.263E+01 1.441E-02 0.000E+00 0.000E+00
                                         3.236E+00 1.072E-01 0.000E+00 0.000E+00
                                         7.304E-01 3.846E-01 0.000E+00 0.000E+00
                                 78 S  
                                         1.417E-01 1.000E+00 0.000E+00 0.000E+00
                          79-    81 P  
                                         3.944E-01 0.000E+00 1.000E+00 0.000E+00
                          82-    84 P  
                                         1.006E-01 0.000E+00 1.000E+00 0.000E+00
   6 H    0.462   6.235   2.282
   7 H   -6.235   0.462  -2.282
   8 H    6.235  -0.462  -2.282
   9 H   -7.567  -0.373   3.441
  10 H    7.567   0.373   3.441
  11 H   -0.373   7.567  -3.441
  12 H    0.373  -7.567  -3.441
  13 H   -3.031   1.096   3.116
  14 H    3.031  -1.096   3.116
  15 H    1.096   3.031  -3.116
  16 H   -1.096  -3.031  -3.116
  17 C   -4.518  -6.028   2.928
                                173 S  
                                         1.238E+03 5.457E-03 0.000E+00 0.000E+00
                                         1.863E+02 4.064E-02 0.000E+00 0.000E+00
                                         4.225E+01 1.803E-01 0.000E+00 0.000E+00
                                         1.168E+01 4.632E-01 0.000E+00 0.000E+00
                                         3.593E+00 4.409E-01 0.000E+00 0.000E+00
                                174 S  
                                         5.281E+00 1.000E+00 0.000E+00 0.000E+00
                                175 S  
                                         4.447E-01 1.000E+00 0.000E+00 0.000E+00
                         176-   178 P  
                                         9.468E+00 0.000E+00 3.839E-02 0.000E+00
                                         2.010E+00 0.000E+00 2.112E-01 0.000E+00
                                         5.477E-01 0.000E+00 5.133E-01 0.000E+00
                         179-   181 P  
                                         1.604E-01 0.000E+00 1.000E+00 0.000E+00
                         182-   186 D  
                                         6.070E-01 0.000E+00 0.000E+00 1.000E+00
                         187-   191 D  
                                         2.939E-01 0.000E+00 0.000E+00 1.000E+00
  18 C    4.518   6.028   2.928
  19 C   -6.028   4.518  -2.928
  20 C    6.028  -4.518  -2.928
  21 C   -4.772  -8.769   3.090
  22 C    4.772   8.769   3.090
  23 C   -8.769   4.772  -3.090
  24 C    8.769  -4.772  -3.090
  25 C   -6.558  -4.345   3.199
  26 C    6.558   4.345   3.199
  27 C   -4.345   6.558  -3.199
  28 C    4.345  -6.558  -3.199
  29 C   -3.538  -0.910   3.025
  30 C    3.538   0.910   3.025
  31 C   -0.910   3.538  -3.025
  32 C    0.910  -3.538  -3.025
  33 C   -2.084  -4.998   2.623
  34 C    2.084   4.998   2.623
  35 C   -4.998   2.084  -2.623
  36 C    4.998  -2.084  -2.623
  37 C    6.047   1.755   3.221
  38 C   -6.047  -1.755   3.221
  39 C    1.755  -6.047  -3.221
  40 C   -1.755   6.047  -3.221
  41 N   -3.057   8.884   4.203
                                629 S  
                                         1.713E+03-5.393E-03 0.000E+00 0.000E+00
                                         2.576E+02-4.022E-02 0.000E+00 0.000E+00
                                         5.846E+01-1.793E-01 0.000E+00 0.000E+00
                                         1.620E+01-4.638E-01 0.000E+00 0.000E+00
                                         5.005E+00-4.417E-01 0.000E+00 0.000E+00
                                630 S  
                                         6.217E-01 1.000E+00 0.000E+00 0.000E+00
                                631 S  
                                         2.921E-01 1.000E+00 0.000E+00 0.000E+00
                         632-   634 P  
                                         1.357E+01 0.000E+00-4.007E-02 0.000E+00
                                         2.926E+00 0.000E+00-2.181E-01 0.000E+00
                                         7.993E-01 0.000E+00-5.129E-01 0.000E+00
                         635-   637 P  
                                         2.244E-01 0.000E+00 1.000E+00 0.000E+00
                         638-   642 D  
                                         3.118E-01 0.000E+00 0.000E+00 1.000E+00
  42 N    3.057  -8.884   4.203
  43 N    8.884   3.057  -4.203
  44 N   -8.884  -3.057  -4.203
  45 N   -3.954   6.447   4.014
  46 N    3.954  -6.447   4.014
  47 N    6.447   3.954  -4.014
  48 N   -6.447  -3.954  -4.014
  49 N    2.915  -0.618 -10.340
  50 N   -2.915   0.618 -10.340
  51 N   -0.618  -2.915  10.340
  52 N    0.618   2.915  10.340
  53 N   -6.142   6.505   2.834
  54 N    6.142  -6.505   2.834
  55 N    6.505   6.142  -2.834
  56 N   -6.505  -6.142  -2.834
  57 N   -1.585  -2.519   2.711
  58 N    1.585   2.519   2.711
  59 N   -2.519   1.585  -2.711
  60 N    2.519  -1.585  -2.711
  61 ZN   0.000   9.598 -18.842
                                909 S  
                                         8.200E+04 1.421E-03 0.000E+00 0.000E+00
                                         1.231E+04 1.089E-02 0.000E+00 0.000E+00
                                         2.801E+03 5.406E-02 0.000E+00 0.000E+00
                                         7.910E+02 1.885E-01 0.000E+00 0.000E+00
                                         2.576E+02 3.835E-01 0.000E+00 0.000E+00
                                         8.881E+01 2.972E-01 0.000E+00 0.000E+00
                                910 S  
                                         1.719E+02-1.105E-01 0.000E+00 0.000E+00
                                         2.030E+01 6.461E-01 0.000E+00 0.000E+00
                                         8.346E+00 4.422E-01 0.000E+00 0.000E+00
                                911 S  
                                         1.485E+01-2.271E-01 0.000E+00 0.000E+00
                                         2.450E+00 7.243E-01 0.000E+00 0.000E+00
                                         9.985E-01 4.484E-01 0.000E+00 0.000E+00
                                912 S  
                                         1.493E+00 1.000E+00 0.000E+00 0.000E+00
                                913 S  
                                         1.830E-01 1.000E+00 0.000E+00 0.000E+00
                         914-   916 P  
                                         1.072E+03 0.000E+00 9.277E-03 0.000E+00
                                         2.527E+02 0.000E+00 6.954E-02 0.000E+00
                                         8.010E+01 0.000E+00 2.716E-01 0.000E+00
                                         2.890E+01 0.000E+00 5.340E-01 0.000E+00
                                         1.077E+01 0.000E+00 3.450E-01 0.000E+00
                         917-   919 P  
                                         5.645E+00 0.000E+00 3.413E-01 0.000E+00
                                         2.168E+00 0.000E+00 5.639E-01 0.000E+00
                                         8.054E-01 0.000E+00 2.368E-01 0.000E+00
                         920-   922 P  
                                         2.721E-01 0.000E+00 1.000E+00 0.000E+00
                         923-   927 D  
                                         5.609E+01 0.000E+00 0.000E+00 2.959E-02
                                         1.575E+01 0.000E+00 0.000E+00 1.587E-01
                                         5.312E+00 0.000E+00 0.000E+00 3.798E-01
                                         1.774E+00 0.000E+00 0.000E+00 4.690E-01
                         928-   932 D  
                                         5.073E-01 0.000E+00 0.000E+00 1.000E+00
                         933-   939 F  
                                         2.814E+00 0.000E+00 0.000E+00 1.000E+00
                         940-   946 F  
                                         1.300E+00 0.000E+00 0.000E+00 1.000E+00
  62 ZN   0.000   0.000  12.561

 *******************************************************************************
 FINISHED BASIS SET HANDLING 
 *******************************************************************************

 INFORMATION **** SET_MPP **** PCRYSTAL CALCULATION
 INFORMATION **** READM2 **** NEW DEFAULT: FOCK/KS MATRIX MIXING SET TO 30 %
 INFORMATION **** READM2 **** NEW DEFAULT: FULL DIRECT SCF MODE
 INFORMATION **** READM2 **** NEW DEFAULT: COULOMB BIPOLAR BUFFER SET TO 32 Mb
 INFORMATION **** READM2 **** NEW DEFAULT: EXCHANGE BIPOLAR BUFFER SET TO 32 Mb

 *******************************************************************************
 NEW DEFAULT: DFT INTEGRATION GRID INCREASED TO XLGRID
 NEW DEFAULT: DIIS ACCELERATOR ACTIVE
 USE KEYWORD NODIIS TO TURN IT OFF
 *******************************************************************************

 INFORMATION **** DFTD3_INPUT **** PERFORM DISPERSION CORRECTION DFT-D3(BJ) IN THE BECKE-JOHNSON DAMPING SCHEME

 PLEASE CITE:
 (1) DFT-D3 Reference
  S. Grimme, J. Antony, S. Ehrlich, and H. Krieg, J. Chem. Phys. 132 (2010), 154104
 (2) BJ-Damping Reference
  S. Grimme, S. Ehrlich, and L. Goerigk, J. Comput. Chem. 32 (2011), 1456-1465
 (3) General DFT-D Review
  S. Grimme, A. Hansen, J. G. Brandenburg, and C. Bannwarth,
  Chem. Rev. 116 (2016), 5105-5154

 INFORMATION **** BIPOSIZE **** COULOMB BIPOLAR BUFFER SET TO    30000000
 INFORMATION **** EXCHSIZE **** EXCHANGE BIPOLAR BUFFER SIZE SET TO    30000000
 INFORMATION **** TOLINTEG **** COULOMB AND EXCHANGE SERIES TOLERANCES MODIFIED
 INFORMATION **** MAXCYCLE **** MAX NUMBER OF SCF CYCLES SET TO          50
 *******************************************************************************
 N. OF ATOMS PER CELL        62  COULOMB OVERLAP TOL         (T1) 10**  -12
 NUMBER OF SHELLS           388  COULOMB PENETRATION TOL     (T2) 10**  -12
 NUMBER OF AO               984  EXCHANGE OVERLAP TOL        (T3) 10**   20
 N. OF ELECTRONS PER CELL   392  EXCHANGE PSEUDO OVP (F(G))  (T4) 10**   20
 CORE ELECTRONS PER CELL    132  EXCHANGE PSEUDO OVP (P(G))  (T5) 10**   20
 N. OF SYMMETRY OPERATORS     4  POLE ORDER IN MONO ZONE                  4
 *******************************************************************************
 TYPE OF CALCULATION :  RESTRICTED CLOSED SHELL
 KOHN-SHAM HAMILTONIAN

 (EXCHANGE)[CORRELATION] FUNCTIONAL:(PERDEW-BURKE-ERNZERHOF)[PERDEW-BURKE-ERNZERHOF]


 CAPPA:IS1  3;IS2  3;IS3  3; K PTS MONK NET   6; SYMMOPS:K SPACE   8;G SPACE   4

 *******************************************************************************
 MAX NUMBER OF SCF CYCLES      50  CONVERGENCE ON DELTAP        10**-16
 WEIGHT OF F(I) IN F(I+1)      30% CONVERGENCE ON ENERGY        10**- 7
 SHRINK. FACT.(MONKH.)    3  3  3  NUMBER OF K POINTS IN THE IBZ      6
 SHRINKING FACTOR(GILAT NET)    3  NUMBER OF K POINTS(GILAT NET)      6
 *******************************************************************************
 *** K POINTS COORDINATES (OBLIQUE COORDINATES IN UNITS OF IS =  3)
   1-R(  0  0  0)   2-C(  1  0  0)   3-C(  1  1  0)   4-C(  2  1  0)
   5-C(  2  1  1)   6-C(  2  2  1)

 DIRECT LATTICE VECTORS COMPON. (A.U.)     RECIP. LATTICE VECTORS COMPON. (A.U.) 
        X            Y            Z              X            Y            Z
   -9.5979190    9.5979190   12.5610096      0.0000000    0.3273202    0.2501067
    9.5979190   -9.5979190   12.5610096      0.3273202    0.0000000    0.2501067
    9.5979190    9.5979190  -12.5610096      0.3273202    0.3273202    0.0000000

 DISK SPACE FOR EIGENVECTORS (FTN 10)    10650816 REALS

 SYMMETRY ADAPTION OF THE BLOCH FUNCTIONS ENABLED
 TTTTTTTTTTTTTTTTTTTTTTTTTTTTTT gordsh1     TELAPSE        1.77 TCPU        0.04

 MATRIX SIZE: P(G) 1855280, F(G)  928708, P(G) IRR  234895, F(G) IRR  234895
 MAX G-VECTOR INDEX FOR 1- AND 2-ELECTRON INTEGRALS  63

 TTTTTTTTTTTTTTTTTTTTTTTTTTTTTT INPUT       TELAPSE        1.85 TCPU        0.12

 NEIGHBORS OF THE NON-EQUIVALENT ATOMS

 N = NUMBER OF NEIGHBORS AT DISTANCE R
    ATOM  N     R/ANG      R/AU   NEIGHBORS (ATOM LABELS AND CELL INDICES)
   1 F    1     1.0950     2.0692   25 C    0 0 1
   1 F    1     2.1707     4.1021   38 C    0 0 1
   1 F    1     2.1834     4.1260   17 C    0 0 1
   1 F    1     2.5186     4.7595    9 H    0 0 1
   1 F    1     2.5548     4.8279   54 N    0-1 0
   1 F    1     2.7928     5.2776   21 C    0 0 1

   5 H    1     1.0945     2.0684   33 C    0 0 0
   5 H    1     2.0667     3.9055   57 N    0 0 0
   5 H    1     2.1759     4.1119   17 C    0 0 0
   5 H    1     2.5126     4.7480   46 N    0 0 0
   5 H    1     2.5429     4.8053   42 N    0 0 0
   5 H    1     2.6801     5.0646   21 C    0 0 0

   9 H    1     1.0933     2.0660   38 C    0 0 0
   9 H    1     2.1620     4.0855   29 C    0 0 0
   9 H    1     2.1723     4.1051   25 C    0 0 0
   9 H    1     2.1857     4.1305   10 H    0-1-1
   9 H    1     2.5186     4.7595    1 F    0 0-1
   9 H    1     2.5285     4.7782   13 H    0 0 0

  13 H    1     1.0959     2.0709   29 C    0 0 0
  13 H    1     2.0715     3.9145   57 N    0 0 0
  13 H    1     2.1965     4.1508   38 C    0 0 0
  13 H    1     2.5285     4.7782    9 H    0 0 0
  13 H    1     2.5654     4.8479   58 N    0 0 0
  13 H    1     2.9124     5.5037   45 N    0 0 0

  17 C    1     1.4070     2.6588   25 C    0 0 0
  17 C    1     1.4077     2.6602   33 C    0 0 0
  17 C    1     1.4594     2.7579   21 C    0 0 0
  17 C    1     2.1759     4.1119    5 H    0 0 0
  17 C    1     2.1834     4.1260    1 F    0 0-1
  17 C    1     2.4067     4.5479   38 C    0 0 0

  21 C    1     1.3492     2.5496   49 N    0 0-1
  21 C    1     1.3553     2.5611   41 N   -1 0-1
  21 C    1     1.4594     2.7579   17 C    0 0 0
  21 C    1     2.2025     4.1620   53 N   -1 0-1
  21 C    1     2.2049     4.1667   45 N   -1 0-1
  21 C    1     2.4633     4.6549   33 C    0 0 0

  25 C    1     1.0950     2.0692    1 F    0 0-1
  25 C    1     1.3970     2.6400   38 C    0 0 0
  25 C    1     1.4070     2.6588   17 C    0 0 0
  25 C    1     2.1723     4.1051    9 H    0 0 0
  25 C    1     2.4118     4.5577   33 C    0 0 0
  25 C    1     2.4219     4.5767   29 C    0 0 0

  29 C    1     1.0959     2.0709   13 H    0 0 0
  29 C    1     1.3493     2.5497   57 N    0 0 0
  29 C    1     1.4046     2.6543   38 C    0 0 0
  29 C    1     2.1620     4.0855    9 H    0 0 0
  29 C    1     2.3056     4.3570   33 C    0 0 0
  29 C    1     2.4219     4.5767   25 C    0 0 0

  33 C    1     1.0945     2.0684    5 H    0 0 0
  33 C    1     1.3387     2.5298   57 N    0 0 0
  33 C    1     1.4077     2.6602   17 C    0 0 0
  33 C    1     2.3056     4.3570   29 C    0 0 0
  33 C    1     2.4118     4.5577   25 C    0 0 0
  33 C    1     2.4633     4.6549   21 C    0 0 0

  37 C    1     1.0933     2.0660   10 H    0 0 0
  37 C    1     1.3970     2.6400   26 C    0 0 0
  37 C    1     1.4046     2.6543   30 C    0 0 0
  37 C    1     2.1707     4.1021    2 F    1 1 1
  37 C    1     2.1965     4.1508   14 H    0 0 0
  37 C    1     2.4067     4.5479   18 C    0 0 0

  41 N    1     1.3553     2.5611   21 C    1 0 1
  41 N    1     1.3781     2.6042   45 N    0 0 0
  41 N    1     1.9919     3.7642   61 ZN   1 1 0
  41 N    1     2.1855     4.1299   53 N    0 0 0
  41 N    1     2.1874     4.1336   49 N    1 0 0
  41 N    1     2.4882     4.7020   17 C    1 0 1

  45 N    1     1.3160     2.4870   53 N    0 0 0
  45 N    1     1.3781     2.6042   41 N    0 0 0
  45 N    1     2.1869     4.1326   49 N    1 0 0
  45 N    1     2.2049     4.1667   21 C    1 0 1
  45 N    1     2.5126     4.7480    6 H    0 0 0
  45 N    1     2.9124     5.5037   13 H    0 0 0

  49 N    1     1.3492     2.5496   21 C    0 0 1
  49 N    1     1.3792     2.6063   53 N   -1 0 0
  49 N    1     1.9667     3.7164   62 ZN  -1-1 0
  49 N    1     2.1869     4.1326   45 N   -1 0 0
  49 N    1     2.1874     4.1336   41 N   -1 0 0
  49 N    1     2.5229     4.7676   17 C    0 0 1

  53 N    1     1.3160     2.4870   45 N    0 0 0
  53 N    1     1.3792     2.6063   49 N    1 0 0
  53 N    1     2.1855     4.1299   41 N    0 0 0
  53 N    1     2.2025     4.1620   21 C    1 0 1
  53 N    1     2.5548     4.8279    2 F    1 0 0
  53 N    1     2.8762     5.4352   62 ZN   0-1 0

  57 N    1     1.3387     2.5298   33 C    0 0 0
  57 N    1     1.3493     2.5497   29 C    0 0 0
  57 N    1     2.0667     3.9055    5 H    0 0 0
  57 N    1     2.0715     3.9145   13 H    0 0 0
  57 N    1     2.4105     4.5552   38 C    0 0 0
  57 N    1     2.4226     4.5781   17 C    0 0 0

  61 ZN   4     1.9919     3.7642   41 N   -1-1 0   42 N    0-1 1   43 N    0-1 0
                                    44 N    0 0 1
  61 ZN   4     2.7756     5.2452    5 H    0-1 1    6 H   -1-1 0    7 H    0 0 1
                                     8 H    0-1 0
  61 ZN   4     2.9319     5.5406   45 N   -1-1 0   46 N    0-1 1   47 N    0-1 0
                                    48 N    0 0 1
  61 ZN   4     3.0692     5.7999   21 C    0-1 1   22 C   -1-1 0   23 C    0 0 1
                                    24 C    0-1 0
  61 ZN   4     3.2996     6.2354   33 C    0-1 1   34 C   -1-1 0   35 C    0 0 1
                                    36 C    0-1 0
  61 ZN   4     3.5259     6.6629   17 C    0-1 1   18 C   -1-1 0   19 C    0 0 1
                                    20 C    0-1 0

  62 ZN   4     1.9667     3.7164   49 N    1 1 0   50 N    1 1 0   51 N    0 0 0
                                    52 N    0 0 0
  62 ZN   4     2.8762     5.4352   53 N    0 1 0   54 N    1 0 0   55 N    0 0-1
                                    56 N    1 1 1
  62 ZN   4     3.0639     5.7900   21 C    1 1 1   22 C    0 0-1   23 C    0 1 0
                                    24 C    1 0 0
  62 ZN   4     3.0753     5.8115    1 F    1 1 0    2 F    1 1 0    3 F    0 0 0
                                     4 F    0 0 0
  62 ZN   4     3.6307     6.8610   25 C    1 1 1   26 C    0 0-1   27 C    0 1 0
                                    28 C    1 0 0
  62 ZN   4     3.6327     6.8649   17 C    1 1 1   18 C    0 0-1   19 C    0 1 0
                                    20 C    1 0 0


 SYMMETRY ALLOWED ELASTIC DISTORTION 1
  0.5773503  0.0000000  0.0000000
  0.0000000  0.5773503  0.0000000
  0.0000000  0.0000000  0.5773503

 SYMMETRY ALLOWED ELASTIC DISTORTION 2
  0.4082483  0.0000000  0.0000000
  0.0000000  0.4082483  0.0000000
  0.0000000  0.0000000 -0.8164966

 SYMMETRY ALLOWED INTERNAL DEGREE(S) OF FREEDOM:  45
 TTTTTTTTTTTTTTTTTTTTTTTTTTTTTT SYMM        TELAPSE        3.54 TCPU        1.78
 TTTTTTTTTTTTTTTTTTTTTTTTTTTTTT INT_SCREEN  TELAPSE        3.55 TCPU        1.79

 *******************************************************************************
 *                             OPTIMIZATION STARTS                             *
 *******************************************************************************
 RECLASIFICATION OF INDICES FOR INTEGRAL CALC ACCORDING TO DIFFERENT CRITERIA:
           FIXDELTE                  FIXDELTX              FIXDELTN
          0.10000000               0.80000000                 47
 DEFAULT MAX NUM OF POINTS  100
 *******************************************************************************

 *******************************************************************************
 COORDINATE AND CELL OPTIMIZATION - POINT    1
 INFORMATION **** EXCBUF **** EXCH. BIPO BUFFER: WORDS USED =           0

 DFT PARAMETERS

     ATOM       ELECTRONS   NET CHARGE   R(ANGSTROM)
   1   9  F       9.0000      0.0000     0.72000000
   5   1  H       1.0000      0.0000     1.11000000
  17   6  C       6.0000      0.0000     0.77000000
  41   7  N       7.0000      0.0000     0.74000000
  61  30  ZN     30.0000      0.0000     1.37000000

 SIZE OF GRID=     457188
 TTTTTTTTTTTTTTTTTTTTTTTTTTTTTT MAKE_GRID2  TELAPSE        9.53 TCPU        7.72
 BECKE WEIGHT FUNCTION
 RADSAFE =     2.00
 TOLERANCES - DENSITY:10**- 6; POTENTIAL:10**- 9; GRID WGT:10**-14

 RADIAL INTEGRATION  - INTERVALS (POINTS,UPPER LIMIT):            1( 75,  4.0*R)

 ANGULAR INTEGRATION - INTERVALS (ACCURACY LEVEL [N. POINTS] UPPER LIMIT):
  1(  4[  86]   0.2)  2(  8[ 194]   0.5)  3( 12[ 350]   0.9)  4( 16[ 974]   3.5)
  5( 12[ 350]9999.0)
 TTTTTTTTTTTTTTTTTTTTTTTTTTTTTT INT_CALC    TELAPSE        9.64 TCPU        7.83

 *******************************************************************************
 C:\Users\wilso\AppData\Local\Temp\tmp_p\newconn.mol                             
 CRYSTAL - SCF - TYPE OF CALCULATION :  RESTRICTED CLOSED SHELL
 *******************************************************************************

 CAPPA:IS1  3;IS2  3;IS3  3; K PTS MONK NET   6; SYMMOPS:K SPACE   8;G SPACE   4

 TTTTTTTTTTTTTTTTTTTTTTTTTTTTTT SDIK        TELAPSE        9.94 TCPU        8.13

 AAAAAAAAAAAAAAAAAAAAAAAAAAAAAAAAAAAAAAAAAAAAAAAAAAAAAAAAAAAAAAAAAAAAAAAAAAAAAAA
         ATOMIC WAVEFUNCTION(S)


 NUCLEAR CHARGE  9.0  SYMMETRY SPECIES            S    P
 N. ELECTRONS    9.0  NUMBER OF PRIMITIVE GTOS    7    4
                      NUMBER OF CONTRACTED GTOS   3    2
                      NUMBER OF CLOSED SHELLS     2    0
                      OPEN SHELL OCCUPATION       0    5

  ZNUC SCFIT  TOTAL HF ENERGY   KINETIC ENERGY   VIRIAL THEOREM ACCURACY
   9.0  14   -9.927886620E+01  9.927374065E+01 -2.000051630E+00  4.0E-06

 NUCLEAR CHARGE  1.0  SYMMETRY SPECIES            S
 N. ELECTRONS    1.0  NUMBER OF PRIMITIVE GTOS    4
                      NUMBER OF CONTRACTED GTOS   2
                      NUMBER OF CLOSED SHELLS     0
                      OPEN SHELL OCCUPATION       1

  ZNUC SCFIT  TOTAL HF ENERGY   KINETIC ENERGY   VIRIAL THEOREM ACCURACY
   1.0   1   -4.946643675E-01  4.917913167E-01 -2.005842012E+00  9.4E-17

 NUCLEAR CHARGE  6.0  SYMMETRY SPECIES            S    P
 N. ELECTRONS    6.0  NUMBER OF PRIMITIVE GTOS    7    4
                      NUMBER OF CONTRACTED GTOS   3    2
                      NUMBER OF CLOSED SHELLS     2    0
                      OPEN SHELL OCCUPATION       0    2

  ZNUC SCFIT  TOTAL HF ENERGY   KINETIC ENERGY   VIRIAL THEOREM ACCURACY
   6.0   6   -3.750912652E+01  3.905246519E+01 -1.960480378E+00  3.7E-06

 NUCLEAR CHARGE  7.0  SYMMETRY SPECIES            S    P
 N. ELECTRONS    7.0  NUMBER OF PRIMITIVE GTOS    7    4
                      NUMBER OF CONTRACTED GTOS   3    2
                      NUMBER OF CLOSED SHELLS     2    0
                      OPEN SHELL OCCUPATION       0    3

  ZNUC SCFIT  TOTAL HF ENERGY   KINETIC ENERGY   VIRIAL THEOREM ACCURACY
   7.0   9   -5.432196661E+01  5.425066284E+01 -2.001314339E+00  1.2E-06

 NUCLEAR CHARGE 30.0  SYMMETRY SPECIES            S    P    D
 N. ELECTRONS   30.0  NUMBER OF PRIMITIVE GTOS   14    9    5
                      NUMBER OF CONTRACTED GTOS   5    3    2
                      NUMBER OF CLOSED SHELLS     4    2    1
                      OPEN SHELL OCCUPATION       0    0    0

  ZNUC SCFIT  TOTAL HF ENERGY   KINETIC ENERGY   VIRIAL THEOREM ACCURACY
  30.0  10   -1.777404290E+03  1.777325716E+03 -2.000044209E+00  2.5E-06

 AAAAAAAAAAAAAAAAAAAAAAAAAAAAAAAAAAAAAAAAAAAAAAAAAAAAAAAAAAAAAAAAAAAAAAAAAAAAAAA

 CHARGE NORMALIZATION FACTOR   1.00000000
 TOTAL ATOMIC CHARGES:
   9.0000000   9.0000000   9.0000000   9.0000000   1.0000000   1.0000000
   1.0000000   1.0000000   1.0000000   1.0000000   1.0000000   1.0000000
   1.0000000   1.0000000   1.0000000   1.0000000   6.0000000   6.0000000
   6.0000000   6.0000000   6.0000000   6.0000000   6.0000000   6.0000000
   6.0000000   6.0000000   6.0000000   6.0000000   6.0000000   6.0000000
   6.0000000   6.0000000   6.0000000   6.0000000   6.0000000   6.0000000
   6.0000000   6.0000000   6.0000000   6.0000000   7.0000000   7.0000000
   7.0000000   7.0000000   7.0000000   7.0000000   7.0000000   7.0000000
   7.0000000   7.0000000   7.0000000   7.0000000   7.0000000   7.0000000
   7.0000000   7.0000000   7.0000000   7.0000000   7.0000000   7.0000000
  30.0000000  30.0000000
 TTTTTTTTTTTTTTTTTTTTTTTTTTTTTT MOQGAD      TELAPSE       11.53 TCPU        9.69
 TTTTTTTTTTTTTTTTTTTTTTTTTTTTTT SHELLXN     TELAPSE      101.57 TCPU       89.05
 TTTTTTTTTTTTTTTTTTTTTTTTTTTTTT MONMO3      TELAPSE      111.22 TCPU       98.67
 NUMERICALLY INTEGRATED DENSITY    392.0001473215
 TTTTTTTTTTTTTTTTTTTTTTTTTTTTTT NUMDFT      TELAPSE      113.76 TCPU      101.20
 CYC   0 ETOT(AU) -5.974611805829E+03 DETOT -5.97E+03 tst  0.00E+00 PX  1.00E+00
 TTTTTTTTTTTTTTTTTTTTTTTTTTTTTT DIIS        TELAPSE      113.85 TCPU      101.28
 TTTTTTTTTTTTTTTTTTTTTTTTTTTTTT FDIK        TELAPSE      149.71 TCPU      130.56
 INSULATING STATE
 TOP OF VALENCE BANDS -    BAND    196; K    4; EIG -1.3124856E-01 AU
 TOP OF VALENCE BANDS -    BAND    196; K    1; EIG -1.3228415E-01 AU
 BOTTOM OF VIRTUAL BANDS - BAND    197; K    6; EIG -9.3642455E-02 AU
 INDIRECT ENERGY BAND GAP:   1.0233 eV
 BOTTOM OF VIRTUAL BANDS - BAND    197; K    1; EIG -8.9183723E-02 AU
 TTTTTTTTTTTTTTTTTTTTTTTTTTTTTT PDIG        TELAPSE      150.24 TCPU      131.09
 CHARGE NORMALIZATION FACTOR   1.00000000
 TOTAL ATOMIC CHARGES:
   8.9083829   8.9083829   8.9083829   8.9083829   1.2940623   1.2940623
   1.2940623   1.2940623   1.0902648   1.0902648   1.0902648   1.0902648
   1.2343329   1.2343329   1.2343329   1.2343329   6.2313455   6.2313455
   6.2313455   6.2313455   5.5161197   5.5161197   5.5161197   5.5161197
   5.3283096   5.3283096   5.3283096   5.3283096   5.7154623   5.7154623
   5.7154623   5.7154623   5.8352568   5.8352568   5.8352568   5.8352568
   6.2395913   6.2395913   6.2395913   6.2395913   7.3843742   7.3843742
   7.3843742   7.3843742   7.1937853   7.1937853   7.1937853   7.1937853
   7.4096502   7.4096502   7.4096502   7.4096502   7.1702692   7.1702692
   7.1702692   7.1702692   7.5476992   7.5476992   7.5476992   7.5476992
  27.6891303  27.9152453
 TTTTTTTTTTTTTTTTTTTTTTTTTTTTTT MOQGAD      TELAPSE      150.29 TCPU      131.14
 TTTTTTTTTTTTTTTTTTTTTTTTTTTTTT SHELLXN     TELAPSE      247.38 TCPU      223.68
 TTTTTTTTTTTTTTTTTTTTTTTTTTTTTT MONMO3      TELAPSE      254.81 TCPU      231.07
 NUMERICALLY INTEGRATED DENSITY    392.0001141256
 TTTTTTTTTTTTTTTTTTTTTTTTTTTTTT NUMDFT      TELAPSE      261.94 TCPU      238.17
 CYC   1 ETOT(AU) -5.967481818535E+03 DETOT  7.13E+00 tst  0.00E+00 PX  1.00E+00
 TTTTTTTTTTTTTTTTTTTTTTTTTTTTTT DIIS        TELAPSE      262.10 TCPU      238.33
 DIIS TEST: 0.14212E+02 AT SCF   CYCLE   1 - MIX   30 %
 TTTTTTTTTTTTTTTTTTTTTTTTTTTTTT FDIK        TELAPSE      277.68 TCPU      251.76
 INSULATING STATE
 TOP OF VALENCE BANDS -    BAND    196; K    5; EIG -1.1023817E-01 AU
 TOP OF VALENCE BANDS -    BAND    196; K    1; EIG -1.1225009E-01 AU
 BOTTOM OF VIRTUAL BANDS - BAND    197; K    3; EIG -9.9166099E-02 AU
 INDIRECT ENERGY BAND GAP:   0.3013 eV
 BOTTOM OF VIRTUAL BANDS - BAND    197; K    1; EIG -9.5994370E-02 AU
 TTTTTTTTTTTTTTTTTTTTTTTTTTTTTT PDIG        TELAPSE      278.21 TCPU      252.29
 CHARGE NORMALIZATION FACTOR   1.00000000
 TOTAL ATOMIC CHARGES:
   8.8746799   8.8746799   8.8746799   8.8746799   1.2913736   1.2913736
   1.2913736   1.2913736   1.0679498   1.0679498   1.0679498   1.0679498
   1.1226701   1.1226701   1.1226701   1.1226701   6.3198874   6.3198874
   6.3198874   6.3198874   6.5760517   6.5760517   6.5760517   6.5760517
   6.3317497   6.3317497   6.3317497   6.3317497   6.0289294   6.0289294
   6.0289294   6.0289294   6.3058342   6.3058342   6.3058342   6.3058342
   5.9471428   5.9471428   5.9471428   5.9471428   7.2263421   7.2263421
   7.2263421   7.2263421   6.8578567   6.8578567   6.8578567   6.8578567
   7.2903212   7.2903212   7.2903212   7.2903212   6.8795734   6.8795734
   6.8795734   6.8795734   4.8932980   4.8932980   4.8932980   4.8932980
  30.0604735  29.8848870
 TTTTTTTTTTTTTTTTTTTTTTTTTTTTTT MOQGAD      TELAPSE      278.26 TCPU      252.34
 TTTTTTTTTTTTTTTTTTTTTTTTTTTTTT SHELLXN     TELAPSE      373.26 TCPU      344.93
 TTTTTTTTTTTTTTTTTTTTTTTTTTTTTT MONMO3      TELAPSE      381.78 TCPU      353.41
 NUMERICALLY INTEGRATED DENSITY    392.0001207371
 TTTTTTTTTTTTTTTTTTTTTTTTTTTTTT NUMDFT      TELAPSE      388.99 TCPU      360.60
 CYC   2 ETOT(AU) -5.959857877548E+03 DETOT  7.62E+00 tst  1.11E-01 PX  8.72E-01
 TTTTTTTTTTTTTTTTTTTTTTTTTTTTTT DIIS        TELAPSE      389.15 TCPU      360.76
 DIIS TEST: 0.68655E+02 AT SCF   CYCLE   2 - DIIS ACTIVE - HISTORY:     2 CYCLES
 TTTTTTTTTTTTTTTTTTTTTTTTTTTTTT FDIK        TELAPSE      401.37 TCPU      370.85
 INSULATING STATE
 TOP OF VALENCE BANDS -    BAND    196; K    4; EIG -2.1065452E-01 AU
 TOP OF VALENCE BANDS -    BAND    196; K    1; EIG -2.1149956E-01 AU
 BOTTOM OF VIRTUAL BANDS - BAND    197; K    6; EIG -1.1186220E-01 AU
 INDIRECT ENERGY BAND GAP:   2.6883 eV
 BOTTOM OF VIRTUAL BANDS - BAND    197; K    1; EIG -1.1044385E-01 AU
 TTTTTTTTTTTTTTTTTTTTTTTTTTTTTT PDIG        TELAPSE      401.89 TCPU      371.37
 CHARGE NORMALIZATION FACTOR   1.00000000
 TOTAL ATOMIC CHARGES:
   8.7169870   8.7169870   8.7169870   8.7169870   1.1949778   1.1949778
   1.1949778   1.1949778   1.0207327   1.0207327   1.0207327   1.0207327
   1.1458845   1.1458845   1.1458845   1.1458845   5.8879922   5.8879922
   5.8879922   5.8879922   6.0382187   6.0382187   6.0382187   6.0382187
   5.8067043   5.8067043   5.8067043   5.8067043   6.1903587   6.1903587
   6.1903587   6.1903587   6.0607602   6.0607602   6.0607602   6.0607602
   5.9088818   5.9088818   5.9088818   5.9088818   6.7619023   6.7619023
   6.7619023   6.7619023   7.0818942   7.0818942   7.0818942   7.0818942
   6.7159961   6.7159961   6.7159961   6.7159961   6.9791160   6.9791160
   6.9791160   6.9791160   7.6071809   7.6071809   7.6071809   7.6071809
  29.8337477  29.6959027
 TTTTTTTTTTTTTTTTTTTTTTTTTTTTTT MOQGAD      TELAPSE      401.94 TCPU      371.42
 TTTTTTTTTTTTTTTTTTTTTTTTTTTTTT SHELLXN     TELAPSE      501.84 TCPU      464.32
 TTTTTTTTTTTTTTTTTTTTTTTTTTTTTT MONMO3      TELAPSE      509.08 TCPU      471.52
 NUMERICALLY INTEGRATED DENSITY    392.0001254589
 TTTTTTTTTTTTTTTTTTTTTTTTTTTTTT NUMDFT      TELAPSE      516.46 TCPU      478.86
 CYC   3 ETOT(AU) -5.967584926467E+03 DETOT -7.73E+00 tst  6.43E-01 PX  5.01E-01
 TTTTTTTTTTTTTTTTTTTTTTTTTTTTTT DIIS        TELAPSE      516.59 TCPU      478.99
 DIIS TEST: 0.11556E+02 AT SCF   CYCLE   3 - DIIS ACTIVE - HISTORY:     3 CYCLES
 TTTTTTTTTTTTTTTTTTTTTTTTTTTTTT FDIK        TELAPSE      526.63 TCPU      487.86
 INSULATING STATE
 TOP OF VALENCE BANDS -    BAND    196; K    4; EIG -2.0782589E-01 AU
 TOP OF VALENCE BANDS -    BAND    196; K    1; EIG -2.0826089E-01 AU
 BOTTOM OF VIRTUAL BANDS - BAND    197; K    6; EIG -1.0640666E-01 AU
 INDIRECT ENERGY BAND GAP:   2.7598 eV
 BOTTOM OF VIRTUAL BANDS - BAND    197; K    1; EIG -1.0261659E-01 AU
 TTTTTTTTTTTTTTTTTTTTTTTTTTTTTT PDIG        TELAPSE      527.16 TCPU      488.38
 CHARGE NORMALIZATION FACTOR   1.00000000
 TOTAL ATOMIC CHARGES:
   8.9092532   8.9092532   8.9092532   8.9092532   1.2218819   1.2218819
   1.2218819   1.2218819   1.0499886   1.0499886   1.0499886   1.0499886
   1.2119603   1.2119603   1.2119603   1.2119603   6.2602415   6.2602415
   6.2602415   6.2602415   5.7304142   5.7304142   5.7304142   5.7304142
   5.7239693   5.7239693   5.7239693   5.7239693   5.7776707   5.7776707
   5.7776707   5.7776707   5.9526203   5.9526203   5.9526203   5.9526203
   6.2498325   6.2498325   6.2498325   6.2498325   7.1958897   7.1958897
   7.1958897   7.1958897   6.9867849   6.9867849   6.9867849   6.9867849
   7.3248360   7.3248360   7.3248360   7.3248360   7.0918071   7.0918071
   7.0918071   7.0918071   6.9106265   6.9106265   6.9106265   6.9106265
  28.7649970  28.8438963
 TTTTTTTTTTTTTTTTTTTTTTTTTTTTTT MOQGAD      TELAPSE      527.21 TCPU      488.43
 TTTTTTTTTTTTTTTTTTTTTTTTTTTTTT SHELLXN     TELAPSE      622.52 TCPU      581.37
 TTTTTTTTTTTTTTTTTTTTTTTTTTTTTT MONMO3      TELAPSE      630.44 TCPU      589.25
 NUMERICALLY INTEGRATED DENSITY    392.0001101919
 TTTTTTTTTTTTTTTTTTTTTTTTTTTTTT NUMDFT      TELAPSE      637.69 TCPU      596.48
 CYC   4 ETOT(AU) -5.969464685750E+03 DETOT -1.88E+00 tst  8.32E-03 PX  6.14E-01
 TTTTTTTTTTTTTTTTTTTTTTTTTTTTTT DIIS        TELAPSE      637.82 TCPU      596.62
 DIIS TEST: 0.15310E+01 AT SCF   CYCLE   4 - DIIS ACTIVE - HISTORY:     4 CYCLES
 TTTTTTTTTTTTTTTTTTTTTTTTTTTTTT FDIK        TELAPSE      649.35 TCPU      606.00
 INSULATING STATE
 TOP OF VALENCE BANDS -    BAND    196; K    3; EIG -2.1808921E-01 AU
 TOP OF VALENCE BANDS -    BAND    196; K    1; EIG -2.1853018E-01 AU
 BOTTOM OF VIRTUAL BANDS - BAND    197; K    6; EIG -1.2055920E-01 AU
 INDIRECT ENERGY BAND GAP:   2.6539 eV
 BOTTOM OF VIRTUAL BANDS - BAND    197; K    1; EIG -1.1588912E-01 AU
 TTTTTTTTTTTTTTTTTTTTTTTTTTTTTT PDIG        TELAPSE      649.87 TCPU      606.52
 CHARGE NORMALIZATION FACTOR   1.00000000
 TOTAL ATOMIC CHARGES:
   8.8727510   8.8727510   8.8727510   8.8727510   1.2199207   1.2199207
   1.2199207   1.2199207   1.0601206   1.0601206   1.0601206   1.0601206
   1.1837887   1.1837887   1.1837887   1.1837887   6.1827998   6.1827998
   6.1827998   6.1827998   5.8720914   5.8720914   5.8720914   5.8720914
   5.5678604   5.5678604   5.5678604   5.5678604   5.9785882   5.9785882
   5.9785882   5.9785882   6.1264599   6.1264599   6.1264599   6.1264599
   6.0483254   6.0483254   6.0483254   6.0483254   7.3131825   7.3131825
   7.3131825   7.3131825   7.2069311   7.2069311   7.2069311   7.2069311
   7.0553397   7.0553397   7.0553397   7.0553397   6.9188718   6.9188718
   6.9188718   6.9188718   6.9644535   6.9644535   6.9644535   6.9644535
  28.8506136  28.8634475
 TTTTTTTTTTTTTTTTTTTTTTTTTTTTTT MOQGAD      TELAPSE      649.92 TCPU      606.57
 TTTTTTTTTTTTTTTTTTTTTTTTTTTTTT SHELLXN     TELAPSE      745.32 TCPU      699.26
 TTTTTTTTTTTTTTTTTTTTTTTTTTTTTT MONMO3      TELAPSE      752.58 TCPU      706.48
 NUMERICALLY INTEGRATED DENSITY    392.0001063649
 TTTTTTTTTTTTTTTTTTTTTTTTTTTTTT NUMDFT      TELAPSE      759.84 TCPU      713.70
 CYC   5 ETOT(AU) -5.969513151441E+03 DETOT -4.85E-02 tst  1.20E-03 PX  1.23E-01
 TTTTTTTTTTTTTTTTTTTTTTTTTTTTTT DIIS        TELAPSE      759.98 TCPU      713.84
 DIIS TEST: 0.13147E+01 AT SCF   CYCLE   5 - DIIS ACTIVE - HISTORY:     5 CYCLES
 TTTTTTTTTTTTTTTTTTTTTTTTTTTTTT FDIK        TELAPSE      772.67 TCPU      722.25
 INSULATING STATE
 TOP OF VALENCE BANDS -    BAND    196; K    3; EIG -2.2291550E-01 AU
 TOP OF VALENCE BANDS -    BAND    196; K    1; EIG -2.2339467E-01 AU
 BOTTOM OF VIRTUAL BANDS - BAND    197; K    6; EIG -1.1205637E-01 AU
 INDIRECT ENERGY BAND GAP:   3.0166 eV
 BOTTOM OF VIRTUAL BANDS - BAND    197; K    1; EIG -1.0713656E-01 AU
 TTTTTTTTTTTTTTTTTTTTTTTTTTTTTT PDIG        TELAPSE      773.22 TCPU      722.79
 CHARGE NORMALIZATION FACTOR   1.00000000
 TOTAL ATOMIC CHARGES:
   8.8774536   8.8774536   8.8774536   8.8774536   1.2147767   1.2147767
   1.2147767   1.2147767   1.0508029   1.0508029   1.0508029   1.0508029
   1.1824467   1.1824467   1.1824467   1.1824467   6.1700126   6.1700126
   6.1700126   6.1700126   5.8613484   5.8613484   5.8613484   5.8613484
   5.6680495   5.6680495   5.6680495   5.6680495   5.9307475   5.9307475
   5.9307475   5.9307475   6.0046395   6.0046395   6.0046395   6.0046395
   6.1155191   6.1155191   6.1155191   6.1155191   7.0938099   7.0938099
   7.0938099   7.0938099   7.0273065   7.0273065   7.0273065   7.0273065
   7.2108896   7.2108896   7.2108896   7.2108896   7.1050748   7.1050748
   7.1050748   7.1050748   7.0423230   7.0423230   7.0423230   7.0423230
  28.8619478  28.9172514
 TTTTTTTTTTTTTTTTTTTTTTTTTTTTTT MOQGAD      TELAPSE      773.27 TCPU      722.84
 TTTTTTTTTTTTTTTTTTTTTTTTTTTTTT SHELLXN     TELAPSE      868.44 TCPU      815.45
 TTTTTTTTTTTTTTTTTTTTTTTTTTTTTT MONMO3      TELAPSE      875.89 TCPU      822.87
 NUMERICALLY INTEGRATED DENSITY    392.0001112516
 TTTTTTTTTTTTTTTTTTTTTTTTTTTTTT NUMDFT      TELAPSE      883.17 TCPU      830.12
 CYC   6 ETOT(AU) -5.969672698825E+03 DETOT -1.60E-01 tst  6.70E-04 PX  6.42E-02
 TTTTTTTTTTTTTTTTTTTTTTTTTTTTTT DIIS        TELAPSE      883.34 TCPU      830.29
 DIIS TEST: 0.13239E+00 AT SCF   CYCLE   6 - DIIS ACTIVE - HISTORY:     6 CYCLES
 TTTTTTTTTTTTTTTTTTTTTTTTTTTTTT FDIK        TELAPSE      893.89 TCPU      838.71
 INSULATING STATE
 TOP OF VALENCE BANDS -    BAND    196; K    3; EIG -2.2590556E-01 AU
 TOP OF VALENCE BANDS -    BAND    196; K    1; EIG -2.2629019E-01 AU
 BOTTOM OF VIRTUAL BANDS - BAND    197; K    6; EIG -1.1159401E-01 AU
 INDIRECT ENERGY BAND GAP:   3.1106 eV
 BOTTOM OF VIRTUAL BANDS - BAND    197; K    1; EIG -1.0533653E-01 AU
 TTTTTTTTTTTTTTTTTTTTTTTTTTTTTT PDIG        TELAPSE      894.41 TCPU      839.23
 CHARGE NORMALIZATION FACTOR   1.00000000
 TOTAL ATOMIC CHARGES:
   8.8604690   8.8604690   8.8604690   8.8604690   1.2131414   1.2131414
   1.2131414   1.2131414   1.0470815   1.0470815   1.0470815   1.0470815
   1.1843049   1.1843049   1.1843049   1.1843049   6.1785497   6.1785497
   6.1785497   6.1785497   5.8359058   5.8359058   5.8359058   5.8359058
   5.7150185   5.7150185   5.7150185   5.7150185   5.8756419   5.8756419
   5.8756419   5.8756419   5.9996526   5.9996526   5.9996526   5.9996526
   6.1440218   6.1440218   6.1440218   6.1440218   7.1755653   7.1755653
   7.1755653   7.1755653   7.0748750   7.0748750   7.0748750   7.0748750
   7.1556132   7.1556132   7.1556132   7.1556132   7.0251533   7.0251533
   7.0251533   7.0251533   7.0648712   7.0648712   7.0648712   7.0648712
  28.8792540  28.9212855
 TTTTTTTTTTTTTTTTTTTTTTTTTTTTTT MOQGAD      TELAPSE      894.46 TCPU      839.28
 TTTTTTTTTTTTTTTTTTTTTTTTTTTTTT SHELLXN     TELAPSE      989.69 TCPU      931.88
 TTTTTTTTTTTTTTTTTTTTTTTTTTTTTT MONMO3      TELAPSE      997.16 TCPU      939.33
 NUMERICALLY INTEGRATED DENSITY    392.0001115274
 TTTTTTTTTTTTTTTTTTTTTTTTTTTTTT NUMDFT      TELAPSE     1004.52 TCPU      946.67
[...]
  61 ZN   4     2.7541     5.2044    5 H    0-1 1    6 H   -1-1 0    7 H    0 0 1
                                     8 H    0-1 0
  61 ZN   4     2.8928     5.4667   45 N   -1-1 0   46 N    0-1 1   47 N    0-1 0
                                    48 N    0 0 1
  61 ZN   4     3.0867     5.8330   21 C    0-1 1   22 C   -1-1 0   23 C    0 0 1
                                    24 C    0-1 0
  61 ZN   4     3.3032     6.2421   33 C    0-1 1   34 C   -1-1 0   35 C    0 0 1
                                    36 C    0-1 0
  61 ZN   4     3.5294     6.6695   17 C    0-1 1   18 C   -1-1 0   19 C    0 0 1
                                    20 C    0-1 0

  62 ZN   4     1.9872     3.7552   49 N    1 1 0   50 N    1 1 0   51 N    0 0 0
                                    52 N    0 0 0
  62 ZN   4     2.8274     5.3430   53 N    0 1 0   54 N    1 0 0   55 N    0 0-1
                                    56 N    1 1 1
  62 ZN   4     3.1353     5.9249   21 C    1 1 1   22 C    0 0-1   23 C    0 1 0
                                    24 C    1 0 0
  62 ZN   4     3.1781     6.0057    1 F    1 1 0    2 F    1 1 0    3 F    0 0 0
                                     4 F    0 0 0
  62 ZN   4     3.7954     7.1722   17 C    1 1 1   18 C    0 0-1   19 C    0 1 0
                                    20 C    1 0 0
  62 ZN   4     3.8578     7.2901   25 C    1 1 1   26 C    0 0-1   27 C    0 1 0
                                    28 C    1 0 0


 FINAL OPTIMIZED GEOMETRY - DIMENSIONALITY OF THE SYSTEM      3
 (NON PERIODIC DIRECTION: LATTICE PARAMETER FORMALLY SET TO 500)
 *******************************************************************************
 LATTICE PARAMETERS (ANGSTROMS AND DEGREES) - BOHR = 0.5291772083 ANGSTROM
 PRIMITIVE CELL - CENTRING CODE 6/0 VOLUME=   694.481572 - DENSITY  1.875 g/cm^3
         A              B              C           ALPHA      BETA       GAMMA 
     9.73959595     9.73959595     9.73959595   114.846760 114.846760  99.184516
 *******************************************************************************
 ATOMS IN THE ASYMMETRIC UNIT   17 - ATOMS IN THE UNIT CELL:   62
     ATOM                 X/A                 Y/B                 Z/C    
 *******************************************************************************
      1 T   9 F    -1.134766573491E-01 -2.991830178733E-01  2.961321740130E-01
      2 F   9 F     4.046848081138E-01 -4.096088313621E-01 -2.961321740130E-01
      3 F   9 F     2.991830178733E-01 -4.046848081138E-01  1.857063605242E-01
      4 F   9 F     4.096088313621E-01  1.134766573491E-01 -1.857063605242E-01
      5 T   1 H    -2.345862447138E-01  6.630871093385E-02 -3.469349687036E-01
      6 F   1 H     4.132436796374E-01  1.123487239898E-01  3.469349687036E-01
      7 F   1 H    -6.630871093384E-02 -4.132436796374E-01 -3.008949556477E-01
      8 F   1 H    -1.123487239898E-01  2.345862447138E-01  3.008949556477E-01
      9 T   1 H     1.268286713446E-01 -2.270356742826E-01 -3.925308076765E-01
     10 F   1 H     1.654951333940E-01 -4.806405209788E-01  3.925308076765E-01
     11 F   1 H     2.270356742826E-01 -1.654951333940E-01  3.538643456272E-01
     12 F   1 H     4.806405209788E-01 -1.268286713446E-01 -3.538643456272E-01
     13 T   1 H     1.770295621264E-01 -1.300613847091E-02 -9.174971668237E-02
     14 F   1 H     7.874357821146E-02  2.687792788088E-01  9.174971668237E-02
     15 F   1 H     1.300613847091E-02 -7.874357821146E-02  1.900357005973E-01
     16 F   1 H    -2.687792788088E-01 -1.770295621264E-01 -1.900357005973E-01
     17 T   6 C    -1.920227760758E-01 -1.093815089625E-01  4.638233551192E-01
     18 F   6 C     4.267951359183E-01  3.441538688050E-01 -4.638233551192E-01
     19 F   6 C     1.093815089625E-01 -4.267951359183E-01 -8.264126711330E-02
     20 F   6 C    -3.441538688050E-01  1.920227760758E-01  8.264126711330E-02
     21 T   6 C    -3.258160770276E-01 -1.232571283836E-01  3.082552418591E-01
     22 F   6 C    -4.315123702427E-01  3.659286811132E-01 -3.082552418591E-01
     23 F   6 C     1.232571283836E-01  4.315123702427E-01 -2.025589486441E-01
     24 F   6 C    -3.659286811132E-01  3.258160770276E-01  2.025589486441E-01
     25 T   6 C    -8.714018518398E-02 -1.917625586239E-01  4.574639729654E-01
     26 F   6 C     3.507734684107E-01  4.553958418506E-01 -4.574639729654E-01
     27 F   6 C     1.917625586239E-01 -3.507734684107E-01  1.046223734399E-01
     28 F   6 C    -4.553958418506E-01  8.714018518398E-02 -1.046223734399E-01
     29 T   6 C     7.308344517091E-02 -4.548559364869E-02 -2.207856905374E-01
     30 F   6 C     1.753000968887E-01  2.938691357083E-01  2.207856905374E-01
     31 F   6 C     4.548559364869E-02 -1.753000968887E-01  1.185690388196E-01
     32 F   6 C    -2.938691357083E-01 -7.308344517091E-02 -1.185690388196E-01
     33 T   6 C    -1.549964502360E-01  1.499914399856E-03 -3.623405139669E-01
     34 F   6 C     3.638404283667E-01  2.073440637309E-01  3.623405139669E-01
     35 F   6 C    -1.499914399856E-03 -3.638404283667E-01 -1.564963646359E-01
     36 F   6 C    -2.073440637309E-01  1.549964502360E-01  1.564963646359E-01
     37 T   6 C     2.236158568237E-01  4.316844962862E-01  3.862162209720E-01
     38 F   6 C     4.546827531421E-02 -1.626003641483E-01 -3.862162209720E-01
     39 F   6 C    -4.316844962862E-01 -4.546827531421E-02 -2.080686394625E-01
     40 F   6 C     1.626003641483E-01 -2.236158568237E-01  2.080686394625E-01
     41 T   7 N    -3.650765027025E-01  6.941820409167E-03  3.194317931648E-01
     42 F   7 N    -3.124899727556E-01  3.154917041327E-01 -3.194317931648E-01
     43 F   7 N    -6.941820409167E-03  3.124899727556E-01 -3.720183231117E-01
     44 F   7 N    -3.154917041327E-01  3.650765027025E-01  3.720183231117E-01
     45 T   7 N    -4.998899024781E-01 -4.848377623750E-02  1.530086798560E-01
     46 F   7 N    -2.014924560935E-01  3.471014176660E-01 -1.530086798560E-01
     47 F   7 N     4.848377623750E-02  2.014924560935E-01 -4.514061262406E-01
     48 F   7 N    -3.471014176660E-01  4.998899024781E-01  4.514061262406E-01
     49 T   7 N    -4.327032728620E-01 -2.563782128551E-01  1.376665995091E-01
     50 F   7 N    -3.940448123642E-01  4.296301276289E-01 -1.376665995091E-01
     51 F   7 N     2.563782128551E-01  3.940448123642E-01 -1.763250600069E-01
     52 F   7 N    -4.296301276289E-01  4.327032728620E-01  1.763250600069E-01
     53 T   7 N     4.597963622473E-01 -2.062230237795E-01  4.383047138725E-02
     54 F   7 N    -2.500534951667E-01  4.159658908601E-01 -4.383047138725E-02
     55 F   7 N     2.062230237795E-01  2.500534951667E-01 -3.339806139732E-01
     56 F   7 N    -4.159658908601E-01 -4.597963622473E-01  3.339806139732E-01
     57 T   7 N    -2.617102234375E-02  3.508934792862E-02 -2.093416989369E-01
     58 F   7 N     2.444310468655E-01  1.831706765931E-01  2.093416989369E-01
     59 F   7 N    -3.508934792862E-02 -2.444310468655E-01 -6.126037027237E-02
     60 F   7 N    -1.831706765931E-01  2.617102234375E-02  6.126037027237E-02
     61 T  30 ZN   -2.500000000000E-01  2.500000000000E-01  5.000000000000E-01
     62 T  30 ZN   -5.000000000000E-01 -5.000000000000E-01  4.254239558333E-19

 TRANSFORMATION MATRIX PRIMITIVE-CRYSTALLOGRAPHIC CELL
  0.0000  1.0000  1.0000  1.0000  0.0000  1.0000  1.0000  1.0000  0.0000

 *******************************************************************************
 CRYSTALLOGRAPHIC CELL (VOLUME=       1388.96314358)
         A              B              C           ALPHA      BETA       GAMMA 
    10.48812230    10.48812230    12.62685625    90.000000  90.000000  90.000000

 COORDINATES IN THE CRYSTALLOGRAPHIC CELL
     ATOM                 X/A                 Y/B                 Z/C    
 *******************************************************************************
      1 T   9 F     5.521290674441E-02  2.409192672686E-01 -3.543959246177E-01
      2 F   9 F    -5.521290674441E-02 -2.409192672686E-01 -3.543959246177E-01
      3 F   9 F     2.409192672686E-01 -5.521290674441E-02  3.543959246177E-01
      4 F   9 F    -2.409192672686E-01  5.521290674441E-02  3.543959246177E-01
      5 T   1 H    -2.302000652796E-02 -3.239149621756E-01  8.932871746181E-02
      6 F   1 H     2.302000652796E-02  3.239149621756E-01  8.932871746181E-02
      7 F   1 H    -3.239149621756E-01  2.302000652796E-02 -8.932871746181E-02
      8 F   1 H     3.239149621756E-01 -2.302000652796E-02 -8.932871746181E-02
      9 T   1 H    -3.731975766519E-01 -1.933323102468E-02  1.461619023693E-01
     10 F   1 H     3.731975766519E-01  1.933323102468E-02  1.461619023693E-01
     11 F   1 H    -1.933323102468E-02  3.731975766519E-01 -1.461619023693E-01
     12 F   1 H     1.933323102468E-02 -3.731975766519E-01 -1.461619023693E-01
     13 T   1 H    -1.408927086399E-01  4.914299195748E-02  1.278865701689E-01
     14 F   1 H     1.408927086399E-01 -4.914299195748E-02  1.278865701689E-01
     15 F   1 H     4.914299195748E-02  1.408927086399E-01 -1.278865701689E-01
     16 F   1 H    -4.914299195748E-02 -1.408927086399E-01 -1.278865701689E-01
     17 T   6 C    -2.267676888838E-01 -3.094089559971E-01  1.173861799212E-01
     18 F   6 C     2.267676888838E-01  3.094089559971E-01  1.173861799212E-01
     19 F   6 C    -3.094089559971E-01  2.267676888838E-01 -1.173861799212E-01
     20 F   6 C     3.094089559971E-01 -2.267676888838E-01 -1.173861799212E-01
     21 T   6 C    -2.445929047484E-01 -4.471518533925E-01  1.213357763648E-01
     22 F   6 C     2.445929047484E-01  4.471518533925E-01  1.213357763648E-01
     23 F   6 C    -4.471518533925E-01  2.445929047484E-01 -1.213357763648E-01
     24 F   6 C     4.471518533925E-01 -2.445929047484E-01 -1.213357763648E-01
     25 T   6 C    -3.235792002372E-01 -2.189568267974E-01  1.318166416134E-01
     26 F   6 C     3.235792002372E-01  2.189568267974E-01  1.318166416134E-01
     27 F   6 C    -2.189568267974E-01  3.235792002372E-01 -1.318166416134E-01
     28 F   6 C     2.189568267974E-01 -3.235792002372E-01 -1.318166416134E-01
     29 T   6 C    -1.696773646785E-01 -5.110832585889E-02  1.241917710298E-01
     30 F   6 C     1.696773646785E-01  5.110832585889E-02  1.241917710298E-01
     31 F   6 C    -5.110832585889E-02  1.696773646785E-01 -1.241917710298E-01
     32 F   6 C     5.110832585889E-02 -1.696773646785E-01 -1.241917710298E-01
     33 T   6 C    -1.029220746655E-01 -2.594184393014E-01  1.044219890654E-01
     34 F   6 C     1.029220746655E-01  2.594184393014E-01  1.044219890654E-01
     35 F   6 C    -2.594184393014E-01  1.029220746655E-01 -1.044219890654E-01
     36 F   6 C     2.594184393014E-01 -1.029220746655E-01 -1.044219890654E-01
     37 T   6 C     2.971424302172E-01  8.907379075476E-02  1.345420660690E-01
     38 F   6 C    -2.971424302172E-01 -8.907379075476E-02  1.345420660690E-01
     39 F   6 C     8.907379075476E-02 -2.971424302172E-01 -1.345420660690E-01
     40 F   6 C    -8.907379075476E-02  2.971424302172E-01 -1.345420660690E-01
     41 T   7 N    -1.542749418618E-01  4.737067350265E-01  1.612167622709E-01
     42 F   7 N     1.542749418618E-01 -4.737067350265E-01  1.612167622709E-01
     43 F   7 N     4.737067350265E-01  1.542749418618E-01 -1.612167622709E-01
     44 F   7 N    -4.737067350265E-01 -1.542749418618E-01 -1.612167622709E-01
     45 T   7 N    -1.977925969517E-01  3.508012768077E-01  1.493088207142E-01
     46 F   7 N     1.977925969517E-01 -3.508012768077E-01  1.493088207142E-01
     47 F   7 N     3.508012768077E-01  1.977925969517E-01 -1.493088207142E-01
     48 F   7 N    -3.508012768077E-01 -1.977925969517E-01 -1.493088207142E-01
     49 T   7 N     1.569958297580E-01 -1.932923024893E-02 -4.133740426131E-01
     50 F   7 N    -1.569958297580E-01  1.932923024893E-02 -4.133740426131E-01
     51 F   7 N    -1.932923024893E-02 -1.569958297580E-01  4.133740426131E-01
     52 F   7 N     1.932923024893E-02  1.569958297580E-01  4.133740426131E-01
     53 T   7 N    -3.110944573198E-01  3.549249287070E-01  1.048714335403E-01
     54 F   7 N     3.110944573198E-01 -3.549249287070E-01  1.048714335403E-01
     55 F   7 N     3.549249287070E-01  3.110944573198E-01 -1.048714335403E-01
     56 F   7 N    -3.549249287070E-01 -3.110944573198E-01 -1.048714335403E-01
     57 T   7 N    -7.404066433225E-02 -1.353010346046E-01  1.091300122609E-01
     58 F   7 N     7.404066433225E-02  1.353010346046E-01  1.091300122609E-01
     59 F   7 N    -1.353010346046E-01  7.404066433225E-02 -1.091300122609E-01
     60 F   7 N     1.353010346046E-01 -7.404066433225E-02 -1.091300122609E-01
     61 T  30 ZN    4.626932236752E-17  5.000000000000E-01  2.500000000000E-01
     62 T  30 ZN    0.000000000000E+00  4.254239558333E-19 -5.000000000000E-01

 T = ATOM BELONGING TO THE ASYMMETRIC UNIT
 INFORMATION **** fort.34 **** GEOMETRY OUTPUT FILE

 DIRECT LATTICE VECTORS CARTESIAN COMPONENTS (ANGSTROM)
          X                    Y                    Z
  -0.524406114780E+01   0.524406114780E+01   0.631342812502E+01
   0.524406114780E+01  -0.524406114780E+01   0.631342812502E+01
   0.524406114780E+01   0.524406114780E+01  -0.631342812502E+01


 CARTESIAN COORDINATES - PRIMITIVE CELL
 *******************************************************************************
 *      ATOM          X(ANGSTROM)         Y(ANGSTROM)         Z(ANGSTROM)
 *******************************************************************************
    1     9 F     5.790797182312E-01  2.526790738480E+00 -4.474906395749E+00
    2     9 F    -5.790797182312E-01 -2.526790738480E+00 -4.474906395749E+00
    3     9 F     2.526790738480E+00 -5.790797182312E-01  4.474906395749E+00
    4     9 F    -2.526790738480E+00  5.790797182312E-01  4.474906395749E+00
    5     1 H    -2.414366437109E-01 -3.397259736674E+00  1.127940874391E+00
    6     1 H     2.414366437109E-01  3.397259736674E+00  1.127940874391E+00
    7     1 H    -3.397259736674E+00  2.414366437109E-01 -1.127940874391E+00
    8     1 H     3.397259736674E+00 -2.414366437109E-01 -1.127940874391E+00
    9     1 H    -3.914141824348E+00 -2.027692913560E-01  1.845565330450E+00
   10     1 H     3.914141824348E+00  2.027692913560E-01  1.845565330450E+00
   11     1 H    -2.027692913560E-01  3.914141824348E+00 -1.845565330450E+00
   12     1 H     2.027692913560E-01 -3.914141824348E+00 -1.845565330450E+00
   13     1 H    -1.477699958774E+00  5.154177096220E-01  1.614805337835E+00
   14     1 H     1.477699958774E+00 -5.154177096220E-01  1.614805337835E+00
   15     1 H     5.154177096220E-01  1.477699958774E+00 -1.614805337835E+00
   16     1 H    -5.154177096220E-01 -1.477699958774E+00 -1.614805337835E+00
   17     6 C    -2.378367253705E+00 -3.245118969853E+00  1.482218419607E+00
   18     6 C     2.378367253705E+00  3.245118969853E+00  1.482218419607E+00
   19     6 C    -3.245118969853E+00  2.378367253705E+00 -1.482218419607E+00
   20     6 C     3.245118969853E+00 -2.378367253705E+00 -1.482218419607E+00
   21     6 C    -2.565320297638E+00 -4.689783323086E+00  1.532089406146E+00
   22     6 C     2.565320297638E+00  4.689783323086E+00  1.532089406146E+00
   23     6 C    -4.689783323086E+00  2.565320297638E+00 -1.532089406146E+00
   24     6 C     4.689783323086E+00 -2.565320297638E+00 -1.532089406146E+00
   25     6 C    -3.393738224402E+00 -2.296445976908E+00  1.664429785016E+00
   26     6 C     3.393738224402E+00  2.296445976908E+00  1.664429785016E+00
   27     6 C    -2.296445976908E+00  3.393738224402E+00 -1.664429785016E+00
   28     6 C     2.296445976908E+00 -3.393738224402E+00 -1.664429785016E+00
   29     6 C    -1.779596951544E+00 -5.360303719317E-01  1.568151640232E+00
   30     6 C     1.779596951544E+00  5.360303719317E-01  1.568151640232E+00
   31     6 C    -5.360303719317E-01  1.779596951544E+00 -1.568151640232E+00
   32     6 C     5.360303719317E-01 -1.779596951544E+00 -1.568151640232E+00
   33     6 C    -1.079459306009E+00 -2.720812317128E+00  1.318521445272E+00
   34     6 C     1.079459306009E+00  2.720812317128E+00  1.318521445272E+00
   35     6 C    -2.720812317128E+00  1.079459306009E+00 -1.318521445272E+00
   36     6 C     2.720812317128E+00 -1.079459306009E+00 -1.318521445272E+00
   37     6 C     3.116466147331E+00  9.342168107690E-01  1.698843327837E+00
   38     6 C    -3.116466147331E+00 -9.342168107690E-01  1.698843327837E+00
   39     6 C     9.342168107690E-01 -3.116466147331E+00 -1.698843327837E+00
   40     6 C    -9.342168107690E-01  3.116466147331E+00 -1.698843327837E+00
   41     7 N    -1.618054457394E+00  4.968294169210E+00  2.035660882293E+00
   42     7 N     1.618054457394E+00 -4.968294169210E+00  2.035660882293E+00
   43     7 N     4.968294169210E+00  1.618054457394E+00 -2.035660882293E+00
   44     7 N    -4.968294169210E+00 -1.618054457394E+00 -2.035660882293E+00
   45     7 N    -2.074472945995E+00  3.679246692613E+00  1.885301016022E+00
   46     7 N     2.074472945995E+00 -3.679246692613E+00  1.885301016022E+00
   47     7 N     3.679246692613E+00  2.074472945995E+00 -1.885301016022E+00
   48     7 N    -3.679246692613E+00 -2.074472945995E+00 -1.885301016022E+00
   49     7 N     1.646591462402E+00 -2.027273307307E-01 -5.219614613575E+00
   50     7 N    -1.646591462402E+00  2.027273307307E-01 -5.219614613575E+00
   51     7 N    -2.027273307307E-01 -1.646591462402E+00  5.219614613575E+00
   52     7 N     2.027273307307E-01  1.646591462402E+00  5.219614613575E+00
   53     7 N    -3.262796713855E+00  3.722496058038E+00  1.324196516049E+00
   54     7 N     3.262796713855E+00 -3.722496058038E+00  1.324196516049E+00
   55     7 N     3.722496058038E+00  3.262796713855E+00 -1.324196516049E+00
   56     7 N    -3.722496058038E+00 -3.262796713855E+00 -1.324196516049E+00
   57     7 N    -7.765475423645E-01 -1.419053797655E+00  1.377968977384E+00
   58     7 N     7.765475423645E-01  1.419053797655E+00  1.377968977384E+00
   59     7 N    -1.419053797655E+00  7.765475423645E-01 -1.377968977384E+00
   60     7 N     1.419053797655E+00 -7.765475423645E-01 -1.377968977384E+00
   61    30 ZN    4.852783115253E-16  5.244061147802E+00 -9.470142187534E+00
   62    30 ZN    0.000000000000E+00  4.461898476260E-18  6.313428125022E+00

 ****    4 SYMMOPS - TRANSLATORS IN FRACTIONAL UNITS
 **** MATRICES AND TRANSLATORS IN THE CRYSTALLOGRAPHIC REFERENCE FRAME
   V INV                    ROTATION MATRICES                   TRANSLATORS
   1   1  1.00  0.00  0.00  0.00  1.00  0.00  0.00  0.00  1.00  0.00  0.00  0.00
   2   2  0.00  1.00 -1.00  1.00  0.00 -1.00 -0.00  0.00 -1.00  0.00  0.00  0.00
   3   4 -0.00 -1.00  0.00  0.00 -1.00  1.00  1.00 -1.00  0.00  0.00  0.00  0.00
   4   3 -1.00 -0.00  1.00 -1.00  0.00  0.00 -1.00  1.00 -0.00  0.00  0.00  0.00
 TTTTTTTTTTTTTTTTTTTTTTTTTTTTTT END         TELAPSE    91088.98 TCPU    88334.87
 EEEEEEEEEE TERMINATION  DATE 18 11 2023 TIME 20:28:31.3
NODE    0 CPU TIME =     88334.865
NODE    1 CPU TIME =     88888.104
NODE    2 CPU TIME =     89546.454
NODE    3 CPU TIME =     88878.705
NODE    4 CPU TIME =     88860.056
NODE    5 CPU TIME =     88676.891
NODE    6 CPU TIME =     89278.200
NODE    7 CPU TIME =     88670.282
NODE    8 CPU TIME =     88963.182
NODE    9 CPU TIME =     88535.129
NODE   10 CPU TIME =     88923.431
NODE   11 CPU TIME =     88763.015
NODE   12 CPU TIME =     88811.584
NODE   13 CPU TIME =     88552.023
NODE   14 CPU TIME =     89131.113
NODE   15 CPU TIME =     88507.669
NODE   16 CPU TIME =     88559.147
NODE   17 CPU TIME =     88398.957
NODE   18 CPU TIME =     88629.713
NODE   19 CPU TIME =     88572.554
NODE   20 CPU TIME =     88463.597
NODE   21 CPU TIME =     88357.603
NODE   22 CPU TIME =     88634.560
NODE   23 CPU TIME =     88488.902
    TOTAL CPU TIME =   2129425.738
trying normal rsh (/usr/bin/rsh)
exec: No such file or directory
trying normal rsh (/usr/bin/rsh)
exec: No such file or directory
trying normal rsh (/usr/bin/rsh)
exec: No such file or directory
trying normal rsh (/usr/bin/rsh)
exec: No such file or directory
