Loading crystal17/1.0.2/intel/19.0
  Loading requirement: intel/19.0 ompi/4.0.1/intel/19.0
 PROCESS           10  OF           24  WORKING
 PROCESS            4  OF           24  WORKING
 PROCESS           14  OF           24  WORKING
 PROCESS           15  OF           24  WORKING
 PROCESS            0  OF           24  WORKING
 PROCESS            7  OF           24  WORKING
 PROCESS           11  OF           24  WORKING
 PROCESS           13  OF           24  WORKING
 PROCESS           17  OF           24  WORKING
 PROCESS           18  OF           24  WORKING
 PROCESS           21  OF           24  WORKING
 PROCESS           22  OF           24  WORKING
 PROCESS            1  OF           24  WORKING
 PROCESS            2  OF           24  WORKING
 PROCESS            3  OF           24  WORKING
 PROCESS            5  OF           24  WORKING
 PROCESS            6  OF           24  WORKING
 PROCESS            8  OF           24  WORKING
 PROCESS            9  OF           24  WORKING
 PROCESS           23  OF           24  WORKING
 PROCESS           12  OF           24  WORKING
 PROCESS           16  OF           24  WORKING
 PROCESS           19  OF           24  WORKING
 PROCESS           20  OF           24  WORKING

         
 *******************************************************************************
 *                                                                             *
 *                               CRYSTAL17                                     *
 *                      public : 1.0.2 - March 1st, 2018                       *
 *                       HTTP://WWW.CRYSTAL.UNITO.IT                           *
 *                                                                             *
 *                              MAIN AUTHORS                                   *
 *                                                                             *
 *  R. DOVESI(1,11), V.R. SAUNDERS(2), C. ROETTI(1,11), R. ORLANDO(1,11),      *
 *  C.M. ZICOVICH-WILSON(1,3), F. PASCALE(4), B. CIVALLERI(1,11),              *
 *  K. DOLL(5), N.M. HARRISON(2,6), I.J. BUSH(7), Ph. D'ARCO(8),               *
 *  M. LLUNELL(9), M. CAUSA'(10), Y. NOEL(8), L. MASCHIO(1,11), A. ERBA(1,11)  *
 *  M. RE'RAT(14), S. CASASSA(1,11)                                            *
 *                                                                             *
 *        CONTRIBUTIONS TO THE CODE HAVE ALSO BEEN GIVEN BY                    *
 *                                                                             *
 *  M. FERRABONE(1,11), M. DE LA PIERRE(1,11), M. FERRERO(1,11),               *
 *  J. BAIMA(1,11), E. ALBANESE(1,11), M.F. PEINTINGER(12), R. BAST(13),       *
 *  B. KIRTMAN(15), V. LACIVITA(1,11), R. DEMICHELIS(1,16)                     *
 *  G. BRANDEBURG(17), S. SALUSTRO(1,11), G. SANSONE(1,11)                     *
 *  M.T. RUGGIERO(18)                                                          *
 *                                                                             *
 * (1) THEORETICAL CHEMISTRY GROUP - UNIVERSITA' DI TORINO - TORINO (ITALY)    *
 * (2) COMPUTATIONAL SCIENCE & ENGINEERING DEPARTMENT - STFC DARESBURY (UK)    *
 * (3) UNIVERSIDAD AUTONOMA DEL ESTADO DE MORELOS - CUERNAVACA (MEXICO)        *
 * (4) UNIVERSITE' DE LORRAINE - NANCY (FRANCE)                                *
 * (5) UNIVERSITAET STUTTGART- STUTTGART (GERMANY)                             *
 * (6) IMPERIAL COLLEGE - LONDON (UK)                                          *
 * (7) OXFORD E-RESEARCH CENTRE - OXFORD (UK)                                  *
 * (8) UPMC - SORBONNE UNIVERSITES - PARIS (FRANCE)                            *
 * (9) UNIVERSIDAD DE BARCELONA - BARCELONA (SPAIN)                            *
 *(10) UNIVERSITA' DI NAPOLI "FEDERICO II" - NAPOLI (ITALY)                    *
 *(11) NIS - NANOSTRUCTURED INTERFACES AND SURFACES - TORINO (ITALY)           *
 *(12) MPI FUER CHEMISCHE ENERGIEKONVERSION - MUELHEIM AN DER RUHR (GERMANY)   *
 *(13) UNIVERSITY OF TROMSO - TROMSO (NORWAY)                                  *
 *(14) UNIVERSITE' DE PAU ET DES PAYS DE L'ADOUR - PAU (FRANCE)                *
 *(15) UNIVERSITY OF CALIFORNIA SANTA BARBARA - SANTA BARBARA (USA)            *
 *(16) CURTIN UNIVERSITY - PERTH (AUSTRALIA)                                   *
 *(17) UNIVERSITY COLLEGE LONDON - LONDON (UK)                                 *
 *(18) CAMBRIDGE UNIVERSITY - CAMBRIDGE (UK)                                   *
 *                                                                             *
 *******************************************************************************
 EEEEEEEEEE STARTING  DATE 17 11 2023 TIME 23:32:53.6
 C:\Users\wilso\AppData\Local\Temp\tmp_p\newconn.mol                             

 CRYSTAL CALCULATION
 (INPUT ACCORDING TO THE INTERNATIONAL TABLES FOR X-RAY CRYSTALLOGRAPHY)
 CRYSTAL FAMILY                       :  TETRAGONAL  
 CRYSTAL CLASS  (GROTH - 1921)        :  TETRAGONAL DISPHENOIDAL              

 SPACE GROUP (NONCENTROSYMMETRIC)     :  I -4            

 LATTICE PARAMETERS  (ANGSTROMS AND DEGREES) - CONVENTIONAL CELL
        A           B           C        ALPHA        BETA       GAMMA
    10.15800    10.15800    13.29400    90.00000    90.00000    90.00000


 NUMBER OF IRREDUCIBLE ATOMS IN THE CONVENTIONAL CELL:  124

 INPUT COORDINATES

 ATOM AT. N.              COORDINATES
   1   1     5.576100000000E-01  7.373700000000E-01  1.366700000000E-01
   2   1     4.423900000000E-01  2.626300000000E-01  1.366700000000E-01
   3   1     7.373700000000E-01  4.423900000000E-01  8.633300000000E-01
   4   1     2.626300000000E-01  5.576100000000E-01  8.633300000000E-01
   5   1     5.761000000000E-02  2.373700000000E-01  6.366700000000E-01
   6   1     9.423900000000E-01  7.626300000000E-01  6.366700000000E-01
   7   1     2.373700000000E-01  9.423900000000E-01  3.633300000000E-01
   8   1     7.626300000000E-01  5.761000000000E-02  3.633300000000E-01
   9   9     9.759200000000E-01  6.751900000000E-01  9.083000000000E-02
  10   9     2.408000000000E-02  3.248100000000E-01  9.083000000000E-02
  11   9     6.751900000000E-01  2.408000000000E-02  9.091700000000E-01
  12   9     3.248100000000E-01  9.759200000000E-01  9.091700000000E-01
  13   9     4.759200000000E-01  1.751900000000E-01  5.908300000000E-01
  14   9     5.240800000000E-01  8.248100000000E-01  5.908300000000E-01
  15   9     1.751900000000E-01  5.240800000000E-01  4.091700000000E-01
  16   9     8.248100000000E-01  4.759200000000E-01  4.091700000000E-01
  17   1     6.058200000000E-01  9.805800000000E-01  1.369900000000E-01
  18   1     3.941800000000E-01  1.942000000000E-02  1.369900000000E-01
  19   1     9.805800000000E-01  3.941800000000E-01  8.630100000000E-01
  20   1     1.942000000000E-02  6.058200000000E-01  8.630100000000E-01
  21   1     1.058200000000E-01  4.805800000000E-01  6.369900000000E-01
  22   1     8.941800000000E-01  5.194200000000E-01  6.369900000000E-01
  23   1     4.805800000000E-01  8.941800000000E-01  3.630100000000E-01
  24   1     5.194200000000E-01  1.058200000000E-01  3.630100000000E-01
  25   1     8.420800000000E-01  5.709000000000E-02  1.240200000000E-01
  26   1     1.579200000000E-01  9.429100000000E-01  1.240200000000E-01
  27   1     5.709000000000E-02  1.579200000000E-01  8.759800000000E-01
  28   1     9.429100000000E-01  8.420800000000E-01  8.759800000000E-01
  29   1     3.420800000000E-01  5.570900000000E-01  6.240200000000E-01
  30   1     6.579200000000E-01  4.429100000000E-01  6.240200000000E-01
  31   1     5.570900000000E-01  6.579200000000E-01  3.759800000000E-01
  32   1     4.429100000000E-01  3.420800000000E-01  3.759800000000E-01
  33   6     2.646500000000E-01  1.859800000000E-01  6.165500000000E-01
  34   6     7.353500000000E-01  8.140200000000E-01  6.165500000000E-01
  35   6     1.859800000000E-01  7.353500000000E-01  3.834500000000E-01
  36   6     8.140200000000E-01  2.646500000000E-01  3.834500000000E-01
  37   6     7.646500000000E-01  6.859800000000E-01  1.165500000000E-01
  38   6     2.353500000000E-01  3.140200000000E-01  1.165500000000E-01
  39   6     6.859800000000E-01  2.353500000000E-01  8.834500000000E-01
  40   6     3.140200000000E-01  7.646500000000E-01  8.834500000000E-01
  41   6     2.514000000000E-01  4.317000000000E-02  6.230000000000E-01
  42   6     7.486000000000E-01  9.568300000000E-01  6.230000000000E-01
  43   6     4.317000000000E-02  7.486000000000E-01  3.770000000000E-01
  44   6     9.568300000000E-01  2.514000000000E-01  3.770000000000E-01
  45   6     7.514000000000E-01  5.431700000000E-01  1.230000000000E-01
  46   6     2.486000000000E-01  4.568300000000E-01  1.230000000000E-01
  47   6     5.431700000000E-01  2.486000000000E-01  8.770000000000E-01
  48   6     4.568300000000E-01  7.514000000000E-01  8.770000000000E-01
  49   6     6.583700000000E-01  7.736700000000E-01  1.273400000000E-01
  50   6     3.416300000000E-01  2.263300000000E-01  1.273400000000E-01
  51   6     7.736700000000E-01  3.416300000000E-01  8.726600000000E-01
  52   6     2.263300000000E-01  6.583700000000E-01  8.726600000000E-01
  53   6     1.583700000000E-01  2.736700000000E-01  6.273400000000E-01
  54   6     8.416300000000E-01  7.263300000000E-01  6.273400000000E-01
  55   6     2.736700000000E-01  8.416300000000E-01  3.726600000000E-01
  56   6     7.263300000000E-01  1.583700000000E-01  3.726600000000E-01
  57   6     8.156900000000E-01  9.525900000000E-01  1.204300000000E-01
  58   6     1.843100000000E-01  4.741000000000E-02  1.204300000000E-01
  59   6     9.525900000000E-01  1.843100000000E-01  8.795700000000E-01
  60   6     4.741000000000E-02  8.156900000000E-01  8.795700000000E-01
  61   6     3.156900000000E-01  4.525900000000E-01  6.204300000000E-01
  62   6     6.843100000000E-01  5.474100000000E-01  6.204300000000E-01
  63   6     4.525900000000E-01  6.843100000000E-01  3.795700000000E-01
  64   6     5.474100000000E-01  3.156900000000E-01  3.795700000000E-01
  65   6     3.914300000000E-01  2.396500000000E-01  6.044300000000E-01
  66   6     6.085700000000E-01  7.603500000000E-01  6.044300000000E-01
  67   6     2.396500000000E-01  6.085700000000E-01  3.955700000000E-01
  68   6     7.603500000000E-01  3.914300000000E-01  3.955700000000E-01
  69   6     8.914300000000E-01  7.396500000000E-01  1.044300000000E-01
  70   6     1.085700000000E-01  2.603500000000E-01  1.044300000000E-01
  71   6     7.396500000000E-01  1.085700000000E-01  8.955700000000E-01
  72   6     2.603500000000E-01  8.914300000000E-01  8.955700000000E-01
  73   6     3.150000000000E-01  9.141000000000E-02  1.282200000000E-01
  74   6     6.850000000000E-01  9.085900000000E-01  1.282200000000E-01
  75   6     9.141000000000E-02  6.850000000000E-01  8.717800000000E-01
  76   6     9.085900000000E-01  3.150000000000E-01  8.717800000000E-01
  77   6     8.150000000000E-01  5.914100000000E-01  6.282200000000E-01
  78   6     1.850000000000E-01  4.085900000000E-01  6.282200000000E-01
  79   6     5.914100000000E-01  1.850000000000E-01  3.717800000000E-01
  80   6     4.085900000000E-01  8.150000000000E-01  3.717800000000E-01
  81   7     8.407700000000E-01  4.628300000000E-01  1.672900000000E-01
  82   7     1.592300000000E-01  5.371700000000E-01  1.672900000000E-01
  83   7     4.628300000000E-01  1.592300000000E-01  8.327100000000E-01
  84   7     5.371700000000E-01  8.407700000000E-01  8.327100000000E-01
  85   7     3.407700000000E-01  9.628300000000E-01  6.672900000000E-01
  86   7     6.592300000000E-01  3.717000000000E-02  6.672900000000E-01
  87   7     9.628300000000E-01  6.592300000000E-01  3.327100000000E-01
  88   7     3.717000000000E-02  3.407700000000E-01  3.327100000000E-01
  89   7     2.940400000000E-01  8.358500000000E-01  6.597700000000E-01
  90   7     7.059600000000E-01  1.641500000000E-01  6.597700000000E-01
  91   7     8.358500000000E-01  7.059600000000E-01  3.402300000000E-01
  92   7     1.641500000000E-01  2.940400000000E-01  3.402300000000E-01
  93   7     7.940400000000E-01  3.358500000000E-01  1.597700000000E-01
  94   7     2.059600000000E-01  6.641500000000E-01  1.597700000000E-01
  95   7     3.358500000000E-01  2.059600000000E-01  8.402300000000E-01
  96   7     6.641500000000E-01  7.940400000000E-01  8.402300000000E-01
  97   7     1.518600000000E-01  9.677900000000E-01  5.884000000000E-01
  98   7     8.481400000000E-01  3.221000000000E-02  5.884000000000E-01
  99   7     9.677900000000E-01  8.481400000000E-01  4.116000000000E-01
 100   7     3.221000000000E-02  1.518600000000E-01  4.116000000000E-01
 101   7     6.518600000000E-01  4.677900000000E-01  8.840000000000E-02
 102   7     3.481400000000E-01  5.322100000000E-01  8.840000000000E-02
 103   7     4.677900000000E-01  3.481400000000E-01  9.116000000000E-01
 104   7     5.322100000000E-01  6.518600000000E-01  9.116000000000E-01
 105   7     1.800200000000E-01  8.388700000000E-01  6.128200000000E-01
 106   7     8.199800000000E-01  1.611300000000E-01  6.128200000000E-01
 107   7     8.388700000000E-01  8.199800000000E-01  3.871800000000E-01
 108   7     1.611300000000E-01  1.800200000000E-01  3.871800000000E-01
 109   7     6.800200000000E-01  3.388700000000E-01  1.128200000000E-01
 110   7     3.199800000000E-01  6.611300000000E-01  1.128200000000E-01
 111   7     3.388700000000E-01  3.199800000000E-01  8.871800000000E-01
 112   7     6.611300000000E-01  6.800200000000E-01  8.871800000000E-01
 113   7     9.174200000000E-01  8.687700000000E-01  1.079100000000E-01
 114   7     8.258000000000E-02  1.312300000000E-01  1.079100000000E-01
 115   7     8.687700000000E-01  8.258000000000E-02  8.920900000000E-01
 116   7     1.312300000000E-01  9.174200000000E-01  8.920900000000E-01
 117   7     4.174200000000E-01  3.687700000000E-01  6.079100000000E-01
 118   7     5.825800000000E-01  6.312300000000E-01  6.079100000000E-01
 119   7     3.687700000000E-01  5.825800000000E-01  3.920900000000E-01
 120   7     6.312300000000E-01  4.174200000000E-01  3.920900000000E-01
 121  30     0.000000000000E+00  5.000000000000E-01  2.500000000000E-01
 122  30     5.000000000000E-01  0.000000000000E+00  7.500000000000E-01
 123  30     0.000000000000E+00  0.000000000000E+00  5.000000000000E-01
 124  30     5.000000000000E-01  5.000000000000E-01  0.000000000000E+00

 *******************************************************************************

 << INFORMATION >>: FROM NOW ON, ALL COORDINATES REFER TO THE PRIMITIVE CELL

 *******************************************************************************

 LATTICE PARAMETERS  (ANGSTROMS AND DEGREES) - PRIMITIVE CELL
       A          B          C        ALPHA      BETA     GAMMA        VOLUME
    9.78647    9.78647    9.78647   117.47208 117.47208  94.43726    685.870456

 INPUT LIST - ATOM N.   2 NOT IRREDUCIBLE

 INPUT LIST - ATOM N.   3 NOT IRREDUCIBLE

 INPUT LIST - ATOM N.   4 NOT IRREDUCIBLE

 INPUT LIST - ATOM N.   1 NOT IRREDUCIBLE

 INPUT LIST - ATOM N.   2 NOT IRREDUCIBLE

 INPUT LIST - ATOM N.   3 NOT IRREDUCIBLE

 INPUT LIST - ATOM N.   4 NOT IRREDUCIBLE

 INPUT LIST - ATOM N.   6 NOT IRREDUCIBLE

 INPUT LIST - ATOM N.   7 NOT IRREDUCIBLE

 INPUT LIST - ATOM N.   8 NOT IRREDUCIBLE

 INPUT LIST - ATOM N.   5 NOT IRREDUCIBLE

 INPUT LIST - ATOM N.   6 NOT IRREDUCIBLE

 INPUT LIST - ATOM N.   7 NOT IRREDUCIBLE

 INPUT LIST - ATOM N.   8 NOT IRREDUCIBLE

 INPUT LIST - ATOM N.  10 NOT IRREDUCIBLE

 INPUT LIST - ATOM N.  11 NOT IRREDUCIBLE

 INPUT LIST - ATOM N.  12 NOT IRREDUCIBLE

 INPUT LIST - ATOM N.   9 NOT IRREDUCIBLE

 INPUT LIST - ATOM N.  10 NOT IRREDUCIBLE

 INPUT LIST - ATOM N.  11 NOT IRREDUCIBLE

 INPUT LIST - ATOM N.  12 NOT IRREDUCIBLE

 INPUT LIST - ATOM N.  14 NOT IRREDUCIBLE

 INPUT LIST - ATOM N.  15 NOT IRREDUCIBLE

 INPUT LIST - ATOM N.  16 NOT IRREDUCIBLE

 INPUT LIST - ATOM N.  13 NOT IRREDUCIBLE

 INPUT LIST - ATOM N.  14 NOT IRREDUCIBLE

 INPUT LIST - ATOM N.  15 NOT IRREDUCIBLE

 INPUT LIST - ATOM N.  16 NOT IRREDUCIBLE

 INPUT LIST - ATOM N.  18 NOT IRREDUCIBLE

 INPUT LIST - ATOM N.  19 NOT IRREDUCIBLE

 INPUT LIST - ATOM N.  20 NOT IRREDUCIBLE

 INPUT LIST - ATOM N.  17 NOT IRREDUCIBLE

 INPUT LIST - ATOM N.  18 NOT IRREDUCIBLE

 INPUT LIST - ATOM N.  19 NOT IRREDUCIBLE

 INPUT LIST - ATOM N.  20 NOT IRREDUCIBLE

 INPUT LIST - ATOM N.  22 NOT IRREDUCIBLE

 INPUT LIST - ATOM N.  23 NOT IRREDUCIBLE

 INPUT LIST - ATOM N.  24 NOT IRREDUCIBLE

 INPUT LIST - ATOM N.  21 NOT IRREDUCIBLE

 INPUT LIST - ATOM N.  22 NOT IRREDUCIBLE

 INPUT LIST - ATOM N.  23 NOT IRREDUCIBLE

 INPUT LIST - ATOM N.  24 NOT IRREDUCIBLE

 INPUT LIST - ATOM N.  26 NOT IRREDUCIBLE

 INPUT LIST - ATOM N.  27 NOT IRREDUCIBLE

 INPUT LIST - ATOM N.  28 NOT IRREDUCIBLE

 INPUT LIST - ATOM N.  25 NOT IRREDUCIBLE

 INPUT LIST - ATOM N.  26 NOT IRREDUCIBLE

 INPUT LIST - ATOM N.  27 NOT IRREDUCIBLE

 INPUT LIST - ATOM N.  28 NOT IRREDUCIBLE

 INPUT LIST - ATOM N.  30 NOT IRREDUCIBLE

 INPUT LIST - ATOM N.  31 NOT IRREDUCIBLE

 INPUT LIST - ATOM N.  32 NOT IRREDUCIBLE

 INPUT LIST - ATOM N.  29 NOT IRREDUCIBLE

 INPUT LIST - ATOM N.  30 NOT IRREDUCIBLE

 INPUT LIST - ATOM N.  31 NOT IRREDUCIBLE

 INPUT LIST - ATOM N.  32 NOT IRREDUCIBLE

 INPUT LIST - ATOM N.  34 NOT IRREDUCIBLE

 INPUT LIST - ATOM N.  35 NOT IRREDUCIBLE

 INPUT LIST - ATOM N.  36 NOT IRREDUCIBLE

 INPUT LIST - ATOM N.  33 NOT IRREDUCIBLE

 INPUT LIST - ATOM N.  34 NOT IRREDUCIBLE

 INPUT LIST - ATOM N.  35 NOT IRREDUCIBLE

 INPUT LIST - ATOM N.  36 NOT IRREDUCIBLE

 INPUT LIST - ATOM N.  38 NOT IRREDUCIBLE

 INPUT LIST - ATOM N.  39 NOT IRREDUCIBLE

 INPUT LIST - ATOM N.  40 NOT IRREDUCIBLE

 INPUT LIST - ATOM N.  37 NOT IRREDUCIBLE

 INPUT LIST - ATOM N.  38 NOT IRREDUCIBLE

 INPUT LIST - ATOM N.  39 NOT IRREDUCIBLE

 INPUT LIST - ATOM N.  40 NOT IRREDUCIBLE

 INPUT LIST - ATOM N.  42 NOT IRREDUCIBLE

 INPUT LIST - ATOM N.  43 NOT IRREDUCIBLE

 INPUT LIST - ATOM N.  44 NOT IRREDUCIBLE

 INPUT LIST - ATOM N.  41 NOT IRREDUCIBLE

 INPUT LIST - ATOM N.  42 NOT IRREDUCIBLE

 INPUT LIST - ATOM N.  43 NOT IRREDUCIBLE

 INPUT LIST - ATOM N.  44 NOT IRREDUCIBLE

 INPUT LIST - ATOM N.  46 NOT IRREDUCIBLE

 INPUT LIST - ATOM N.  47 NOT IRREDUCIBLE

 INPUT LIST - ATOM N.  48 NOT IRREDUCIBLE

 INPUT LIST - ATOM N.  45 NOT IRREDUCIBLE

 INPUT LIST - ATOM N.  46 NOT IRREDUCIBLE

 INPUT LIST - ATOM N.  47 NOT IRREDUCIBLE

 INPUT LIST - ATOM N.  48 NOT IRREDUCIBLE

 INPUT LIST - ATOM N.  50 NOT IRREDUCIBLE

 INPUT LIST - ATOM N.  51 NOT IRREDUCIBLE

 INPUT LIST - ATOM N.  52 NOT IRREDUCIBLE

 INPUT LIST - ATOM N.  49 NOT IRREDUCIBLE

 INPUT LIST - ATOM N.  50 NOT IRREDUCIBLE

 INPUT LIST - ATOM N.  51 NOT IRREDUCIBLE

 INPUT LIST - ATOM N.  52 NOT IRREDUCIBLE

 INPUT LIST - ATOM N.  54 NOT IRREDUCIBLE

 INPUT LIST - ATOM N.  55 NOT IRREDUCIBLE

 INPUT LIST - ATOM N.  56 NOT IRREDUCIBLE

 INPUT LIST - ATOM N.  53 NOT IRREDUCIBLE

 INPUT LIST - ATOM N.  54 NOT IRREDUCIBLE

 INPUT LIST - ATOM N.  55 NOT IRREDUCIBLE

 INPUT LIST - ATOM N.  56 NOT IRREDUCIBLE

 INPUT LIST - ATOM N.  58 NOT IRREDUCIBLE

 INPUT LIST - ATOM N.  59 NOT IRREDUCIBLE

 INPUT LIST - ATOM N.  60 NOT IRREDUCIBLE

 INPUT LIST - ATOM N.  57 NOT IRREDUCIBLE

 INPUT LIST - ATOM N.  58 NOT IRREDUCIBLE

 INPUT LIST - ATOM N.  59 NOT IRREDUCIBLE

 INPUT LIST - ATOM N.  60 NOT IRREDUCIBLE

 INPUT LIST - ATOM N.  61 NOT IRREDUCIBLE

 INPUT LIST - ATOM N.  62 NOT IRREDUCIBLE

 COORDINATES OF THE EQUIVALENT ATOMS (FRACTIONAL UNITS)

 N. ATOM EQUIV AT. N.          X                  Y                  Z

   1   1   1    1 H    -1.25960000000E-01 -3.05720000000E-01  2.94980000000E-01
   2   1   2    1 H     3.99300000000E-01 -4.20940000000E-01 -2.94980000000E-01
   3   1   3    1 H     3.05720000000E-01 -3.99300000000E-01  1.79760000000E-01
   4   1   4    1 H     4.20940000000E-01  1.25960000000E-01 -1.79760000000E-01








   5   9   1    9 F    -2.33980000000E-01  6.67500000000E-02 -3.48890000000E-01
   6   9   2    9 F     4.15640000000E-01  1.14910000000E-01  3.48890000000E-01
   7   9   3    9 F    -6.67500000000E-02 -4.15640000000E-01 -3.00730000000E-01
   8   9   4    9 F    -1.14910000000E-01  2.33980000000E-01  3.00730000000E-01








   9  17   1    1 H     1.17570000000E-01 -2.57190000000E-01 -4.13600000000E-01
  10  17   2    1 H     1.56410000000E-01 -4.68830000000E-01  4.13600000000E-01
  11  17   3    1 H     2.57190000000E-01 -1.56410000000E-01  3.74760000000E-01
  12  17   4    1 H     4.68830000000E-01 -1.17570000000E-01 -3.74760000000E-01

 NUMBER OF SYMMETRY OPERATORS         :    4
 *******************************************************************************
 * GEOMETRY EDITING - INPUT COORDINATES ARE GIVEN IN ANGSTROM         
 *******************************************************************************

 GEOMETRY NOW FULLY CONSISTENT WITH THE GROUP
 *******************************************************************************
 *  GEOMETRY EDITING
 *  THE SYMMETRY OF THE CRYSTAL IS KEPT AND APPLIED TO THE PERTURBATION
 *******************************************************************************
 INFORMATION **** NEW DEFAULT **** FINALRUN 4 FOR GEOMETRY OPTIMIZATIONS
 INFORMATION **** NEW DEFAULT **** OPTGEOM OPTIMIZES BOTH ATOMIC COORDINATES AND CELL PARAMETERS
 INFORMATION **** NEW DEFAULT **** TOL. ON ATOMIC DISP TO REDEFINE REF. GEOMETRY: 0.8 Angs
 INFORMATION **** NEW DEFAULT **** N POINTS TO REDEFINE REF. GEOMETRY: N OF OPT DEGS OF FREEDOM
 INFORMATION **** NEW DEFAULT **** TOL. ON ENERGY TO REDEFINE REF. GEOMETRY: 10**-3*(5*N. ATOMS)

 IMPORTANT INFORMATION:
 THE COORDINATE SYSTEM ADOPTED IN THE OPTIMIZATION IS NOT IN
 GENERAL HOMOGENEOUS UNITS. FOR THIS REASON THE GRADIENT AND 
 HESSIAN MATRIX IN TERMS OF THIS SYSTEM ARE GIVEN WITHOUT
 UNITS. FOR MORE DETAILS SEE THE MANUAL.

 *******************************************************************************
 COMBINED CELL/ATOM OPTIMIZATION CONTROL

 INITIAL TRUST RADIUS         0.50000 MAXIMUM TRUST RADIUS               4.00000
 MAXIMUM GRADIENT COMPONENT   0.00045 MAXIMUM DISPLACEMENT COMPONENT     0.00180
 R.M.S. OF GRADIENT COMPONENT 0.00030 R.M.S. OF DISPLACEMENT COMPONENTS  0.00120
 THRESHOLD ON ENERGY CHANGE 0.100E-06 EXTRAPOLATING POLYNOMIAL ORDER           2
 MAXIMUM ALLOWED NUMBER OF STEPS   -1 SORTING OF ENERGY POINTS:               NO
 ANALYTICAL  GRADIENT                 HESSIAN UPDATING                      BFGS
 STEP SIZE NUMERICAL GRADIENT 0.00100
 INITIAL HESSIAN MATRIX: SCHLEGEL MODEL 2
 *******************************************************************************


 GCALCO - MAX INDICES DIRECT LATTICE VECTOR    14    14    16
 NO.OF VECTORS CREATED 6999 STARS  481 RMAX   197.96270 BOHR

 GEOMETRY FOR WAVE FUNCTION - DIMENSIONALITY OF THE SYSTEM    3
 (NON PERIODIC DIRECTION: LATTICE PARAMETER FORMALLY SET TO 500)
 *******************************************************************************
 LATTICE PARAMETERS (ANGSTROMS AND DEGREES) - BOHR = 0.5291772083 ANGSTROM
 PRIMITIVE CELL - CENTRING CODE 6/0 VOLUME=   685.870456 - DENSITY  1.898 g/cm^3
         A              B              C           ALPHA      BETA       GAMMA 
     9.78647490     9.78647490     9.78647490   117.472078 117.472078  94.437262
 *******************************************************************************
 ATOMS IN THE ASYMMETRIC UNIT   17 - ATOMS IN THE UNIT CELL:   62
     ATOM                 X/A                 Y/B                 Z/C    
 *******************************************************************************
      1 T   1 H    -1.259600000000E-01 -3.057200000000E-01  2.949800000000E-01
      2 F   1 H     3.993000000000E-01 -4.209400000000E-01 -2.949800000000E-01
      3 F   1 H     3.057200000000E-01 -3.993000000000E-01  1.797600000000E-01
      4 F   1 H     4.209400000000E-01  1.259600000000E-01 -1.797600000000E-01
      5 T   9 F    -2.339800000000E-01  6.675000000000E-02 -3.488900000000E-01
      6 F   9 F     4.156400000000E-01  1.149100000000E-01  3.488900000000E-01
      7 F   9 F    -6.675000000000E-02 -4.156400000000E-01 -3.007300000000E-01
      8 F   9 F    -1.149100000000E-01  2.339800000000E-01  3.007300000000E-01
      9 T   1 H     1.175700000000E-01 -2.571900000000E-01 -4.136000000000E-01
     10 F   1 H     1.564100000000E-01 -4.688300000000E-01  4.136000000000E-01
     11 F   1 H     2.571900000000E-01 -1.564100000000E-01  3.747600000000E-01
     12 F   1 H     4.688300000000E-01 -1.175700000000E-01 -3.747600000000E-01
     13 T   1 H     1.811100000000E-01 -3.390000000000E-02 -1.008300000000E-01
     14 F   1 H     6.693000000000E-02  2.819400000000E-01  1.008300000000E-01
     15 F   1 H     3.390000000000E-02 -6.693000000000E-02  2.150100000000E-01
     16 F   1 H    -2.819400000000E-01 -1.811100000000E-01 -2.150100000000E-01
     17 T   6 C    -1.974700000000E-01 -1.188000000000E-01  4.506300000000E-01
     18 F   6 C     4.305700000000E-01  3.519000000000E-01 -4.506300000000E-01
     19 F   6 C     1.188000000000E-01 -4.305700000000E-01 -7.867000000000E-02
     20 F   6 C    -3.519000000000E-01  1.974700000000E-01  7.867000000000E-02
     21 T   6 C    -3.338300000000E-01 -1.256000000000E-01  2.945700000000E-01
     22 F   6 C    -4.201700000000E-01  3.716000000000E-01 -2.945700000000E-01
     23 F   6 C     1.256000000000E-01  4.201700000000E-01 -2.082300000000E-01
     24 F   6 C    -3.716000000000E-01  3.338300000000E-01  2.082300000000E-01
     25 T   6 C    -9.899000000000E-02 -2.142900000000E-01  4.320400000000E-01
     26 F   6 C     3.536700000000E-01  4.689700000000E-01 -4.320400000000E-01
     27 F   6 C     2.142900000000E-01 -3.536700000000E-01  1.153000000000E-01
     28 F   6 C    -4.689700000000E-01  9.899000000000E-02 -1.153000000000E-01
     29 T   6 C     7.302000000000E-02 -6.388000000000E-02 -2.317200000000E-01
     30 F   6 C     1.678400000000E-01  3.047400000000E-01  2.317200000000E-01
     31 F   6 C     6.388000000000E-02 -1.678400000000E-01  1.369000000000E-01
     32 F   6 C    -3.047400000000E-01 -7.302000000000E-02 -1.369000000000E-01
     33 T   6 C    -1.559200000000E-01 -4.140000000000E-03 -3.689200000000E-01
     34 F   6 C     3.647800000000E-01  2.130000000000E-01  3.689200000000E-01
     35 F   6 C     4.140000000000E-03 -3.647800000000E-01 -1.517800000000E-01
     36 F   6 C    -2.130000000000E-01  1.559200000000E-01  1.517800000000E-01
     37 T   6 C     2.196300000000E-01  4.432200000000E-01  4.064100000000E-01
     38 F   6 C     3.681000000000E-02 -1.867800000000E-01 -4.064100000000E-01
     39 F   6 C    -4.432200000000E-01 -3.681000000000E-02 -2.235900000000E-01
     40 F   6 C     1.867800000000E-01 -2.196300000000E-01  2.235900000000E-01
     41 T   7 N    -3.698800000000E-01  8.060000000000E-03  3.036000000000E-01
     42 F   7 N    -2.955400000000E-01  3.265200000000E-01 -3.036000000000E-01
     43 F   7 N    -8.060000000000E-03  2.955400000000E-01 -3.779400000000E-01
     44 F   7 N    -3.265200000000E-01  3.698800000000E-01  3.779400000000E-01
     45 T   7 N     4.956200000000E-01 -4.619000000000E-02  1.298900000000E-01
     46 F   7 N    -1.760800000000E-01  3.657300000000E-01 -1.298900000000E-01
     47 F   7 N     4.619000000000E-02  1.760800000000E-01 -4.581900000000E-01
     48 F   7 N    -3.657300000000E-01 -4.956200000000E-01  4.581900000000E-01
     49 T   7 N    -4.438100000000E-01 -2.597400000000E-01  1.196500000000E-01
     50 F   7 N    -3.793900000000E-01  4.365400000000E-01 -1.196500000000E-01
     51 F   7 N     2.597400000000E-01  3.793900000000E-01 -1.840700000000E-01
     52 F   7 N    -4.365400000000E-01  4.438100000000E-01  1.840700000000E-01
     53 T   7 N     4.516900000000E-01 -2.071600000000E-01  1.889000000000E-02
     54 F   7 N    -2.260500000000E-01  4.328000000000E-01 -1.889000000000E-02
     55 F   7 N     2.071600000000E-01  2.260500000000E-01 -3.411500000000E-01
     56 F   7 N    -4.328000000000E-01 -4.516900000000E-01  3.411500000000E-01
     57 T   7 N    -2.332000000000E-02  2.533000000000E-02 -2.138100000000E-01
     58 F   7 N     2.391400000000E-01  1.904900000000E-01  2.138100000000E-01
     59 F   7 N    -2.533000000000E-02 -2.391400000000E-01 -4.865000000000E-02
     60 F   7 N    -1.904900000000E-01  2.332000000000E-02  4.865000000000E-02
     61 T  30 ZN   -2.500000000000E-01  2.500000000000E-01  5.000000000000E-01
     62 T  30 ZN   -5.000000000000E-01  5.000000000000E-01  0.000000000000E+00

 TRANSFORMATION MATRIX PRIMITIVE-CRYSTALLOGRAPHIC CELL
  0.0000  1.0000  1.0000  1.0000  0.0000  1.0000  1.0000  1.0000  0.0000

 *******************************************************************************
 CRYSTALLOGRAPHIC CELL (VOLUME=       1371.74091142)
         A              B              C           ALPHA      BETA       GAMMA 
    10.15800000    10.15800000    13.29400000    90.000000  90.000000  90.000000

 COORDINATES IN THE CRYSTALLOGRAPHIC CELL
     ATOM                 X/A                 Y/B                 Z/C    
 *******************************************************************************
      1 T   1 H     5.761000000000E-02  2.373700000000E-01 -3.633300000000E-01
      2 F   1 H    -5.761000000000E-02 -2.373700000000E-01 -3.633300000000E-01
      3 F   1 H     2.373700000000E-01 -5.761000000000E-02  3.633300000000E-01
      4 F   1 H    -2.373700000000E-01  5.761000000000E-02  3.633300000000E-01
      5 T   9 F    -2.408000000000E-02 -3.248100000000E-01  9.083000000000E-02
      6 F   9 F     2.408000000000E-02  3.248100000000E-01  9.083000000000E-02
      7 F   9 F    -3.248100000000E-01  2.408000000000E-02 -9.083000000000E-02
      8 F   9 F     3.248100000000E-01 -2.408000000000E-02 -9.083000000000E-02
      9 T   1 H    -3.941800000000E-01 -1.942000000000E-02  1.369900000000E-01
     10 F   1 H     3.941800000000E-01  1.942000000000E-02  1.369900000000E-01
     11 F   1 H    -1.942000000000E-02  3.941800000000E-01 -1.369900000000E-01
     12 F   1 H     1.942000000000E-02 -3.941800000000E-01 -1.369900000000E-01
     13 T   1 H    -1.579200000000E-01  5.709000000000E-02  1.240200000000E-01
     14 F   1 H     1.579200000000E-01 -5.709000000000E-02  1.240200000000E-01
     15 F   1 H     5.709000000000E-02  1.579200000000E-01 -1.240200000000E-01
     16 F   1 H    -5.709000000000E-02 -1.579200000000E-01 -1.240200000000E-01
     17 T   6 C    -2.353500000000E-01 -3.140200000000E-01  1.165500000000E-01
     18 F   6 C     2.353500000000E-01  3.140200000000E-01  1.165500000000E-01
     19 F   6 C    -3.140200000000E-01  2.353500000000E-01 -1.165500000000E-01
     20 F   6 C     3.140200000000E-01 -2.353500000000E-01 -1.165500000000E-01
     21 T   6 C    -2.486000000000E-01 -4.568300000000E-01  1.230000000000E-01
     22 F   6 C     2.486000000000E-01  4.568300000000E-01  1.230000000000E-01
     23 F   6 C    -4.568300000000E-01  2.486000000000E-01 -1.230000000000E-01
     24 F   6 C     4.568300000000E-01 -2.486000000000E-01 -1.230000000000E-01
     25 T   6 C    -3.416300000000E-01 -2.263300000000E-01  1.273400000000E-01
     26 F   6 C     3.416300000000E-01  2.263300000000E-01  1.273400000000E-01
     27 F   6 C    -2.263300000000E-01  3.416300000000E-01 -1.273400000000E-01
     28 F   6 C     2.263300000000E-01 -3.416300000000E-01 -1.273400000000E-01
     29 T   6 C    -1.843100000000E-01 -4.741000000000E-02  1.204300000000E-01
     30 F   6 C     1.843100000000E-01  4.741000000000E-02  1.204300000000E-01
     31 F   6 C    -4.741000000000E-02  1.843100000000E-01 -1.204300000000E-01
     32 F   6 C     4.741000000000E-02 -1.843100000000E-01 -1.204300000000E-01
     33 T   6 C    -1.085700000000E-01 -2.603500000000E-01  1.044300000000E-01
     34 F   6 C     1.085700000000E-01  2.603500000000E-01  1.044300000000E-01
     35 F   6 C    -2.603500000000E-01  1.085700000000E-01 -1.044300000000E-01
     36 F   6 C     2.603500000000E-01 -1.085700000000E-01 -1.044300000000E-01
     37 T   6 C     3.150000000000E-01  9.141000000000E-02  1.282200000000E-01
     38 F   6 C    -3.150000000000E-01 -9.141000000000E-02  1.282200000000E-01
     39 F   6 C     9.141000000000E-02 -3.150000000000E-01 -1.282200000000E-01
     40 F   6 C    -9.141000000000E-02  3.150000000000E-01 -1.282200000000E-01
     41 T   7 N    -1.592300000000E-01  4.628300000000E-01  1.672900000000E-01
     42 F   7 N     1.592300000000E-01 -4.628300000000E-01  1.672900000000E-01
     43 F   7 N     4.628300000000E-01  1.592300000000E-01 -1.672900000000E-01
     44 F   7 N    -4.628300000000E-01 -1.592300000000E-01 -1.672900000000E-01
     45 T   7 N    -2.059600000000E-01  3.358500000000E-01  1.597700000000E-01
     46 F   7 N     2.059600000000E-01 -3.358500000000E-01  1.597700000000E-01
     47 F   7 N     3.358500000000E-01  2.059600000000E-01 -1.597700000000E-01
     48 F   7 N    -3.358500000000E-01 -2.059600000000E-01 -1.597700000000E-01
     49 T   7 N     1.518600000000E-01 -3.221000000000E-02 -4.116000000000E-01
     50 F   7 N    -1.518600000000E-01  3.221000000000E-02 -4.116000000000E-01
     51 F   7 N    -3.221000000000E-02 -1.518600000000E-01  4.116000000000E-01
     52 F   7 N     3.221000000000E-02  1.518600000000E-01  4.116000000000E-01
     53 T   7 N    -3.199800000000E-01  3.388700000000E-01  1.128200000000E-01
     54 F   7 N     3.199800000000E-01 -3.388700000000E-01  1.128200000000E-01
     55 F   7 N     3.388700000000E-01  3.199800000000E-01 -1.128200000000E-01
     56 F   7 N    -3.388700000000E-01 -3.199800000000E-01 -1.128200000000E-01
     57 T   7 N    -8.258000000000E-02 -1.312300000000E-01  1.079100000000E-01
     58 F   7 N     8.258000000000E-02  1.312300000000E-01  1.079100000000E-01
     59 F   7 N    -1.312300000000E-01  8.258000000000E-02 -1.079100000000E-01
     60 F   7 N     1.312300000000E-01 -8.258000000000E-02 -1.079100000000E-01
     61 T  30 ZN    4.626932236752E-17  5.000000000000E-01  2.500000000000E-01
     62 T  30 ZN    0.000000000000E+00  0.000000000000E+00  5.000000000000E-01

 T = ATOM BELONGING TO THE ASYMMETRIC UNIT

 ****    4 SYMMOPS - TRANSLATORS IN FRACTIONAL UNITS
 **** MATRICES AND TRANSLATORS IN THE CRYSTALLOGRAPHIC REFERENCE FRAME
   V INV                    ROTATION MATRICES                   TRANSLATORS
   1   1  1.00  0.00  0.00  0.00  1.00  0.00  0.00  0.00  1.00  0.00  0.00  0.00
   2   2  0.00  1.00 -1.00  1.00 -0.00 -1.00 -0.00  0.00 -1.00  0.00  0.00  0.00
   3   4 -0.00 -1.00  0.00  0.00 -1.00  1.00  1.00 -1.00  0.00  0.00  0.00  0.00
   4   3 -1.00 -0.00  1.00 -1.00  0.00 -0.00 -1.00  1.00 -0.00  0.00  0.00  0.00

 DIRECT LATTICE VECTORS CARTESIAN COMPONENTS (ANGSTROM)
          X                    Y                    Z
  -0.507900000000E+01   0.507900000000E+01   0.664700000000E+01
   0.507900000000E+01  -0.507900000000E+01   0.664700000000E+01
   0.507900000000E+01   0.507900000000E+01  -0.664700000000E+01


 CARTESIAN COORDINATES - PRIMITIVE CELL
 *******************************************************************************
 *      ATOM          X(ANGSTROM)         Y(ANGSTROM)         Z(ANGSTROM)
 *******************************************************************************
    1     1 H     5.852023800000E-01  2.411204460000E+00 -4.830109020000E+00
    2     1 H    -5.852023800000E-01 -2.411204460000E+00 -4.830109020000E+00
    3     1 H     2.411204460000E+00 -5.852023800000E-01  4.830109020000E+00
    4     1 H    -2.411204460000E+00  5.852023800000E-01  4.830109020000E+00
    5     9 F    -2.446046400000E-01 -3.299419980000E+00  1.207494020000E+00
    6     9 F     2.446046400000E-01  3.299419980000E+00  1.207494020000E+00
    7     9 F    -3.299419980000E+00  2.446046400000E-01 -1.207494020000E+00
    8     9 F     3.299419980000E+00 -2.446046400000E-01 -1.207494020000E+00
    9     1 H    -4.004080440000E+00 -1.972683600000E-01  1.821145060000E+00
   10     1 H     4.004080440000E+00  1.972683600000E-01  1.821145060000E+00
   11     1 H    -1.972683600000E-01  4.004080440000E+00 -1.821145060000E+00
   12     1 H     1.972683600000E-01 -4.004080440000E+00 -1.821145060000E+00
   13     1 H    -1.604151360000E+00  5.799202200000E-01  1.648721880000E+00
   14     1 H     1.604151360000E+00 -5.799202200000E-01  1.648721880000E+00
   15     1 H     5.799202200000E-01  1.604151360000E+00 -1.648721880000E+00
   16     1 H    -5.799202200000E-01 -1.604151360000E+00 -1.648721880000E+00
   17     6 C    -2.390685300000E+00 -3.189815160000E+00  1.549415700000E+00
   18     6 C     2.390685300000E+00  3.189815160000E+00  1.549415700000E+00
   19     6 C    -3.189815160000E+00  2.390685300000E+00 -1.549415700000E+00
   20     6 C     3.189815160000E+00 -2.390685300000E+00 -1.549415700000E+00
   21     6 C    -2.525278800000E+00 -4.640479140000E+00  1.635162000000E+00
   22     6 C     2.525278800000E+00  4.640479140000E+00  1.635162000000E+00
   23     6 C    -4.640479140000E+00  2.525278800000E+00 -1.635162000000E+00
   24     6 C     4.640479140000E+00 -2.525278800000E+00 -1.635162000000E+00
   25     6 C    -3.470277540000E+00 -2.299060140000E+00  1.692857960000E+00
   26     6 C     3.470277540000E+00  2.299060140000E+00  1.692857960000E+00
   27     6 C    -2.299060140000E+00  3.470277540000E+00 -1.692857960000E+00
   28     6 C     2.299060140000E+00 -3.470277540000E+00 -1.692857960000E+00
   29     6 C    -1.872220980000E+00 -4.815907800000E-01  1.600996420000E+00
   30     6 C     1.872220980000E+00  4.815907800000E-01  1.600996420000E+00
   31     6 C    -4.815907800000E-01  1.872220980000E+00 -1.600996420000E+00
   32     6 C     4.815907800000E-01 -1.872220980000E+00 -1.600996420000E+00
   33     6 C    -1.102854060000E+00 -2.644635300000E+00  1.388292420000E+00
   34     6 C     1.102854060000E+00  2.644635300000E+00  1.388292420000E+00
   35     6 C    -2.644635300000E+00  1.102854060000E+00 -1.388292420000E+00
   36     6 C     2.644635300000E+00 -1.102854060000E+00 -1.388292420000E+00
   37     6 C     3.199770000000E+00  9.285427800000E-01  1.704556680000E+00
   38     6 C    -3.199770000000E+00 -9.285427800000E-01  1.704556680000E+00
   39     6 C     9.285427800000E-01 -3.199770000000E+00 -1.704556680000E+00
   40     6 C    -9.285427800000E-01  3.199770000000E+00 -1.704556680000E+00
   41     7 N    -1.617458340000E+00  4.701427140000E+00  2.223953260000E+00
   42     7 N     1.617458340000E+00 -4.701427140000E+00  2.223953260000E+00
   43     7 N     4.701427140000E+00  1.617458340000E+00 -2.223953260000E+00
   44     7 N    -4.701427140000E+00 -1.617458340000E+00 -2.223953260000E+00
   45     7 N    -2.092141680000E+00  3.411564300000E+00  2.123982380000E+00
   46     7 N     2.092141680000E+00 -3.411564300000E+00  2.123982380000E+00
   47     7 N     3.411564300000E+00  2.092141680000E+00 -2.123982380000E+00
   48     7 N    -3.411564300000E+00 -2.092141680000E+00 -2.123982380000E+00
   49     7 N     1.542593880000E+00 -3.271891800000E-01 -5.471810400000E+00
   50     7 N    -1.542593880000E+00  3.271891800000E-01 -5.471810400000E+00
   51     7 N    -3.271891800000E-01 -1.542593880000E+00  5.471810400000E+00
   52     7 N     3.271891800000E-01  1.542593880000E+00  5.471810400000E+00
   53     7 N    -3.250356840000E+00  3.442241460000E+00  1.499829080000E+00
   54     7 N     3.250356840000E+00 -3.442241460000E+00  1.499829080000E+00
   55     7 N     3.442241460000E+00  3.250356840000E+00 -1.499829080000E+00
   56     7 N    -3.442241460000E+00 -3.250356840000E+00 -1.499829080000E+00
   57     7 N    -8.388476400000E-01 -1.333034340000E+00  1.434555540000E+00
   58     7 N     8.388476400000E-01  1.333034340000E+00  1.434555540000E+00
   59     7 N    -1.333034340000E+00  8.388476400000E-01 -1.434555540000E+00
   60     7 N     1.333034340000E+00 -8.388476400000E-01 -1.434555540000E+00
   61    30 ZN    4.700037766092E-16  5.079000000000E+00 -9.970500000000E+00
   62    30 ZN    0.000000000000E+00  0.000000000000E+00  6.647000000000E+00

 *******************************************************************************
 STARTING BASIS SET HANDLING 
 *******************************************************************************

 Loading internal basis set: POB-DZVPP           

 Please cite in your publication:
 Peintinger, M. F., Oliveira, D. V. and Bredow, T. (2013), Generally applicable 
 solid-state Gaussian basis sets, in preparation                                
                                                                                
                    

 *******************************************************************************
 LOCAL ATOMIC FUNCTIONS BASIS SET
 *******************************************************************************
   ATOM   X(AU)   Y(AU)   Z(AU)  N. TYPE  EXPONENT  S COEF   P COEF   D/F/G COEF
 *******************************************************************************
   1 H    1.106   4.557  -9.128
                                  1 S  
                                         2.263E+01 1.441E-02 0.000E+00 0.000E+00
                                         3.236E+00 1.072E-01 0.000E+00 0.000E+00
                                         7.304E-01 3.846E-01 0.000E+00 0.000E+00
                                  2 S  
                                         1.417E-01 1.000E+00 0.000E+00 0.000E+00
                           3-     5 P  
                                         3.944E-01 0.000E+00 1.000E+00 0.000E+00
                           6-     8 P  
                                         1.006E-01 0.000E+00 1.000E+00 0.000E+00
   2 H   -1.106  -4.557  -9.128
   3 H    4.557  -1.106   9.128
   4 H   -4.557   1.106   9.128
   5 F   -0.462  -6.235   2.282
                                 33 S  
                                         2.895E+03-5.341E-03 0.000E+00 0.000E+00
                                         4.354E+02-3.990E-02 0.000E+00 0.000E+00
                                         9.884E+01-1.791E-01 0.000E+00 0.000E+00
                                         2.749E+01-4.676E-01 0.000E+00 0.000E+00
                                         8.541E+00-4.465E-01 0.000E+00 0.000E+00
                                 34 S  
                                         1.123E+00 1.000E+00 0.000E+00 0.000E+00
                                 35 S  
                                         3.743E-01 1.000E+00 0.000E+00 0.000E+00
                          36-    38 P  
                                         2.270E+01 0.000E+00-4.521E-02 0.000E+00
                                         4.987E+00 0.000E+00-2.375E-01 0.000E+00
                                         1.349E+00 0.000E+00-5.129E-01 0.000E+00
                          39-    41 P  
                                         3.474E-01 0.000E+00 1.000E+00 0.000E+00
                          42-    46 D  
                                         9.203E-01 0.000E+00 0.000E+00 1.000E+00
                          47-    51 D  
                                         3.977E-01 0.000E+00 0.000E+00 1.000E+00
   6 F    0.462   6.235   2.282
   7 F   -6.235   0.462  -2.282
   8 F    6.235  -0.462  -2.282
   9 H   -7.567  -0.373   3.441
  10 H    7.567   0.373   3.441
  11 H   -0.373   7.567  -3.441
  12 H    0.373  -7.567  -3.441
  13 H   -3.031   1.096   3.116
  14 H    3.031  -1.096   3.116
  15 H    1.096   3.031  -3.116
  16 H   -1.096  -3.031  -3.116
  17 C   -4.518  -6.028   2.928
                                173 S  
                                         1.238E+03 5.457E-03 0.000E+00 0.000E+00
                                         1.863E+02 4.064E-02 0.000E+00 0.000E+00
                                         4.225E+01 1.803E-01 0.000E+00 0.000E+00
                                         1.168E+01 4.632E-01 0.000E+00 0.000E+00
                                         3.593E+00 4.409E-01 0.000E+00 0.000E+00
                                174 S  
                                         5.281E+00 1.000E+00 0.000E+00 0.000E+00
                                175 S  
                                         4.447E-01 1.000E+00 0.000E+00 0.000E+00
                         176-   178 P  
                                         9.468E+00 0.000E+00 3.839E-02 0.000E+00
                                         2.010E+00 0.000E+00 2.112E-01 0.000E+00
                                         5.477E-01 0.000E+00 5.133E-01 0.000E+00
                         179-   181 P  
                                         1.604E-01 0.000E+00 1.000E+00 0.000E+00
                         182-   186 D  
                                         6.070E-01 0.000E+00 0.000E+00 1.000E+00
                         187-   191 D  
                                         2.939E-01 0.000E+00 0.000E+00 1.000E+00
  18 C    4.518   6.028   2.928
  19 C   -6.028   4.518  -2.928
  20 C    6.028  -4.518  -2.928
  21 C   -4.772  -8.769   3.090
  22 C    4.772   8.769   3.090
  23 C   -8.769   4.772  -3.090
  24 C    8.769  -4.772  -3.090
  25 C   -6.558  -4.345   3.199
  26 C    6.558   4.345   3.199
  27 C   -4.345   6.558  -3.199
  28 C    4.345  -6.558  -3.199
  29 C   -3.538  -0.910   3.025
  30 C    3.538   0.910   3.025
  31 C   -0.910   3.538  -3.025
  32 C    0.910  -3.538  -3.025
  33 C   -2.084  -4.998   2.623
  34 C    2.084   4.998   2.623
  35 C   -4.998   2.084  -2.623
  36 C    4.998  -2.084  -2.623
  37 C    6.047   1.755   3.221
  38 C   -6.047  -1.755   3.221
  39 C    1.755  -6.047  -3.221
  40 C   -1.755   6.047  -3.221
  41 N   -3.057   8.884   4.203
                                629 S  
                                         1.713E+03-5.393E-03 0.000E+00 0.000E+00
                                         2.576E+02-4.022E-02 0.000E+00 0.000E+00
                                         5.846E+01-1.793E-01 0.000E+00 0.000E+00
                                         1.620E+01-4.638E-01 0.000E+00 0.000E+00
                                         5.005E+00-4.417E-01 0.000E+00 0.000E+00
                                630 S  
                                         6.217E-01 1.000E+00 0.000E+00 0.000E+00
                                631 S  
                                         2.921E-01 1.000E+00 0.000E+00 0.000E+00
                         632-   634 P  
                                         1.357E+01 0.000E+00-4.007E-02 0.000E+00
                                         2.926E+00 0.000E+00-2.181E-01 0.000E+00
                                         7.993E-01 0.000E+00-5.129E-01 0.000E+00
                         635-   637 P  
                                         2.244E-01 0.000E+00 1.000E+00 0.000E+00
                         638-   642 D  
                                         3.118E-01 0.000E+00 0.000E+00 1.000E+00
  42 N    3.057  -8.884   4.203
  43 N    8.884   3.057  -4.203
  44 N   -8.884  -3.057  -4.203
  45 N   -3.954   6.447   4.014
  46 N    3.954  -6.447   4.014
  47 N    6.447   3.954  -4.014
  48 N   -6.447  -3.954  -4.014
  49 N    2.915  -0.618 -10.340
  50 N   -2.915   0.618 -10.340
  51 N   -0.618  -2.915  10.340
  52 N    0.618   2.915  10.340
  53 N   -6.142   6.505   2.834
  54 N    6.142  -6.505   2.834
  55 N    6.505   6.142  -2.834
  56 N   -6.505  -6.142  -2.834
  57 N   -1.585  -2.519   2.711
  58 N    1.585   2.519   2.711
  59 N   -2.519   1.585  -2.711
  60 N    2.519  -1.585  -2.711
  61 ZN   0.000   9.598 -18.842
                                909 S  
                                         8.200E+04 1.421E-03 0.000E+00 0.000E+00
                                         1.231E+04 1.089E-02 0.000E+00 0.000E+00
                                         2.801E+03 5.406E-02 0.000E+00 0.000E+00
                                         7.910E+02 1.885E-01 0.000E+00 0.000E+00
                                         2.576E+02 3.835E-01 0.000E+00 0.000E+00
                                         8.881E+01 2.972E-01 0.000E+00 0.000E+00
                                910 S  
                                         1.719E+02-1.105E-01 0.000E+00 0.000E+00
                                         2.030E+01 6.461E-01 0.000E+00 0.000E+00
                                         8.346E+00 4.422E-01 0.000E+00 0.000E+00
                                911 S  
                                         1.485E+01-2.271E-01 0.000E+00 0.000E+00
                                         2.450E+00 7.243E-01 0.000E+00 0.000E+00
                                         9.985E-01 4.484E-01 0.000E+00 0.000E+00
                                912 S  
                                         1.493E+00 1.000E+00 0.000E+00 0.000E+00
                                913 S  
                                         1.830E-01 1.000E+00 0.000E+00 0.000E+00
                         914-   916 P  
                                         1.072E+03 0.000E+00 9.277E-03 0.000E+00
                                         2.527E+02 0.000E+00 6.954E-02 0.000E+00
                                         8.010E+01 0.000E+00 2.716E-01 0.000E+00
                                         2.890E+01 0.000E+00 5.340E-01 0.000E+00
                                         1.077E+01 0.000E+00 3.450E-01 0.000E+00
                         917-   919 P  
                                         5.645E+00 0.000E+00 3.413E-01 0.000E+00
                                         2.168E+00 0.000E+00 5.639E-01 0.000E+00
                                         8.054E-01 0.000E+00 2.368E-01 0.000E+00
                         920-   922 P  
                                         2.721E-01 0.000E+00 1.000E+00 0.000E+00
                         923-   927 D  
                                         5.609E+01 0.000E+00 0.000E+00 2.959E-02
                                         1.575E+01 0.000E+00 0.000E+00 1.587E-01
                                         5.312E+00 0.000E+00 0.000E+00 3.798E-01
                                         1.774E+00 0.000E+00 0.000E+00 4.690E-01
                         928-   932 D  
                                         5.073E-01 0.000E+00 0.000E+00 1.000E+00
                         933-   939 F  
                                         2.814E+00 0.000E+00 0.000E+00 1.000E+00
                         940-   946 F  
                                         1.300E+00 0.000E+00 0.000E+00 1.000E+00
  62 ZN   0.000   0.000  12.561

 *******************************************************************************
 FINISHED BASIS SET HANDLING 
 *******************************************************************************

 INFORMATION **** SET_MPP **** PCRYSTAL CALCULATION
 INFORMATION **** READM2 **** NEW DEFAULT: FOCK/KS MATRIX MIXING SET TO 30 %
 INFORMATION **** READM2 **** NEW DEFAULT: FULL DIRECT SCF MODE
 INFORMATION **** READM2 **** NEW DEFAULT: COULOMB BIPOLAR BUFFER SET TO 32 Mb
 INFORMATION **** READM2 **** NEW DEFAULT: EXCHANGE BIPOLAR BUFFER SET TO 32 Mb

 *******************************************************************************
 NEW DEFAULT: DFT INTEGRATION GRID INCREASED TO XLGRID
 NEW DEFAULT: DIIS ACCELERATOR ACTIVE
 USE KEYWORD NODIIS TO TURN IT OFF
 *******************************************************************************

 INFORMATION **** DFTD3_INPUT **** PERFORM DISPERSION CORRECTION DFT-D3(BJ) IN THE BECKE-JOHNSON DAMPING SCHEME

 PLEASE CITE:
 (1) DFT-D3 Reference
  S. Grimme, J. Antony, S. Ehrlich, and H. Krieg, J. Chem. Phys. 132 (2010), 154104
 (2) BJ-Damping Reference
  S. Grimme, S. Ehrlich, and L. Goerigk, J. Comput. Chem. 32 (2011), 1456-1465
 (3) General DFT-D Review
  S. Grimme, A. Hansen, J. G. Brandenburg, and C. Bannwarth,
  Chem. Rev. 116 (2016), 5105-5154

 INFORMATION **** BIPOSIZE **** COULOMB BIPOLAR BUFFER SET TO    30000000
 INFORMATION **** EXCHSIZE **** EXCHANGE BIPOLAR BUFFER SIZE SET TO    30000000
 INFORMATION **** TOLINTEG **** COULOMB AND EXCHANGE SERIES TOLERANCES MODIFIED
 INFORMATION **** MAXCYCLE **** MAX NUMBER OF SCF CYCLES SET TO          50
 *******************************************************************************
 N. OF ATOMS PER CELL        62  COULOMB OVERLAP TOL         (T1) 10**  -12
 NUMBER OF SHELLS           388  COULOMB PENETRATION TOL     (T2) 10**  -12
 NUMBER OF AO               984  EXCHANGE OVERLAP TOL        (T3) 10**   20
 N. OF ELECTRONS PER CELL   392  EXCHANGE PSEUDO OVP (F(G))  (T4) 10**   20
 CORE ELECTRONS PER CELL    132  EXCHANGE PSEUDO OVP (P(G))  (T5) 10**   20
 N. OF SYMMETRY OPERATORS     4  POLE ORDER IN MONO ZONE                  4
 *******************************************************************************
 TYPE OF CALCULATION :  RESTRICTED CLOSED SHELL
 KOHN-SHAM HAMILTONIAN

 (EXCHANGE)[CORRELATION] FUNCTIONAL:(PERDEW-BURKE-ERNZERHOF)[PERDEW-BURKE-ERNZERHOF]


 CAPPA:IS1  3;IS2  3;IS3  3; K PTS MONK NET   6; SYMMOPS:K SPACE   8;G SPACE   4

 *******************************************************************************
 MAX NUMBER OF SCF CYCLES      50  CONVERGENCE ON DELTAP        10**-16
 WEIGHT OF F(I) IN F(I+1)      30% CONVERGENCE ON ENERGY        10**- 7
 SHRINK. FACT.(MONKH.)    3  3  3  NUMBER OF K POINTS IN THE IBZ      6
 SHRINKING FACTOR(GILAT NET)    3  NUMBER OF K POINTS(GILAT NET)      6
 *******************************************************************************
 *** K POINTS COORDINATES (OBLIQUE COORDINATES IN UNITS OF IS =  3)
   1-R(  0  0  0)   2-C(  1  0  0)   3-C(  1  1  0)   4-C(  2  1  0)
   5-C(  2  1  1)   6-C(  2  2  1)

 DIRECT LATTICE VECTORS COMPON. (A.U.)     RECIP. LATTICE VECTORS COMPON. (A.U.) 
        X            Y            Z              X            Y            Z
   -9.5979190    9.5979190   12.5610096      0.0000000    0.3273202    0.2501067
    9.5979190   -9.5979190   12.5610096      0.3273202    0.0000000    0.2501067
    9.5979190    9.5979190  -12.5610096      0.3273202    0.3273202    0.0000000

 DISK SPACE FOR EIGENVECTORS (FTN 10)    10650816 REALS

 SYMMETRY ADAPTION OF THE BLOCH FUNCTIONS ENABLED
 TTTTTTTTTTTTTTTTTTTTTTTTTTTTTT gordsh1     TELAPSE        1.47 TCPU        0.04

 MATRIX SIZE: P(G) 1854456, F(G)  928296, P(G) IRR  234778, F(G) IRR  234778
 MAX G-VECTOR INDEX FOR 1- AND 2-ELECTRON INTEGRALS  63

 TTTTTTTTTTTTTTTTTTTTTTTTTTTTTT INPUT       TELAPSE        1.57 TCPU        0.13

 NEIGHBORS OF THE NON-EQUIVALENT ATOMS

 N = NUMBER OF NEIGHBORS AT DISTANCE R
    ATOM  N     R/ANG      R/AU   NEIGHBORS (ATOM LABELS AND CELL INDICES)
   1 H    1     1.0950     2.0692   25 C    0 0 1
   1 H    1     2.1707     4.1021   38 C    0 0 1
   1 H    1     2.1834     4.1260   17 C    0 0 1
   1 H    1     2.5186     4.7595    9 H    0 0 1
   1 H    1     2.5548     4.8279   54 N    0-1 0
   1 H    1     2.7928     5.2776   21 C    0 0 1

   5 F    1     1.0945     2.0684   33 C    0 0 0
   5 F    1     2.0667     3.9055   57 N    0 0 0
   5 F    1     2.1759     4.1119   17 C    0 0 0
   5 F    1     2.5126     4.7480   46 N    0 0 0
   5 F    1     2.5429     4.8053   42 N    0 0 0
   5 F    1     2.6801     5.0646   21 C    0 0 0

   9 H    1     1.0933     2.0660   38 C    0 0 0
   9 H    1     2.1620     4.0855   29 C    0 0 0
   9 H    1     2.1723     4.1051   25 C    0 0 0
   9 H    1     2.1857     4.1305   10 H    0-1-1
   9 H    1     2.5186     4.7595    1 H    0 0-1
   9 H    1     2.5285     4.7782   13 H    0 0 0

  13 H    1     1.0959     2.0709   29 C    0 0 0
  13 H    1     2.0715     3.9145   57 N    0 0 0
  13 H    1     2.1965     4.1508   38 C    0 0 0
  13 H    1     2.5285     4.7782    9 H    0 0 0
  13 H    1     2.5654     4.8479   58 N    0 0 0
  13 H    1     2.9124     5.5037   45 N    0 0 0

  17 C    1     1.4070     2.6588   25 C    0 0 0
  17 C    1     1.4077     2.6602   33 C    0 0 0
  17 C    1     1.4594     2.7579   21 C    0 0 0
  17 C    1     2.1759     4.1119    5 F    0 0 0
  17 C    1     2.1834     4.1260    1 H    0 0-1
  17 C    1     2.4067     4.5479   38 C    0 0 0

  21 C    1     1.3492     2.5496   49 N    0 0-1
  21 C    1     1.3553     2.5611   41 N   -1 0-1
  21 C    1     1.4594     2.7579   17 C    0 0 0
  21 C    1     2.2025     4.1620   53 N   -1 0-1
  21 C    1     2.2049     4.1667   45 N   -1 0-1
  21 C    1     2.4633     4.6549   33 C    0 0 0

  25 C    1     1.0950     2.0692    1 H    0 0-1
  25 C    1     1.3970     2.6400   38 C    0 0 0
  25 C    1     1.4070     2.6588   17 C    0 0 0
  25 C    1     2.1723     4.1051    9 H    0 0 0
  25 C    1     2.4118     4.5577   33 C    0 0 0
  25 C    1     2.4219     4.5767   29 C    0 0 0

  29 C    1     1.0959     2.0709   13 H    0 0 0
  29 C    1     1.3493     2.5497   57 N    0 0 0
  29 C    1     1.4046     2.6543   38 C    0 0 0
  29 C    1     2.1620     4.0855    9 H    0 0 0
  29 C    1     2.3056     4.3570   33 C    0 0 0
  29 C    1     2.4219     4.5767   25 C    0 0 0

  33 C    1     1.0945     2.0684    5 F    0 0 0
  33 C    1     1.3387     2.5298   57 N    0 0 0
  33 C    1     1.4077     2.6602   17 C    0 0 0
  33 C    1     2.3056     4.3570   29 C    0 0 0
  33 C    1     2.4118     4.5577   25 C    0 0 0
  33 C    1     2.4633     4.6549   21 C    0 0 0

  37 C    1     1.0933     2.0660   10 H    0 0 0
  37 C    1     1.3970     2.6400   26 C    0 0 0
  37 C    1     1.4046     2.6543   30 C    0 0 0
  37 C    1     2.1707     4.1021    2 H    1 1 1
  37 C    1     2.1965     4.1508   14 H    0 0 0
  37 C    1     2.4067     4.5479   18 C    0 0 0

  41 N    1     1.3553     2.5611   21 C    1 0 1
  41 N    1     1.3781     2.6042   45 N    0 0 0
  41 N    1     1.9919     3.7642   61 ZN   1 1 0
  41 N    1     2.1855     4.1299   53 N    0 0 0
  41 N    1     2.1874     4.1336   49 N    1 0 0
  41 N    1     2.4882     4.7020   17 C    1 0 1

  45 N    1     1.3160     2.4870   53 N    0 0 0
  45 N    1     1.3781     2.6042   41 N    0 0 0
  45 N    1     2.1869     4.1326   49 N    1 0 0
  45 N    1     2.2049     4.1667   21 C    1 0 1
  45 N    1     2.5126     4.7480    6 F    0 0 0
  45 N    1     2.9124     5.5037   13 H    0 0 0

  49 N    1     1.3492     2.5496   21 C    0 0 1
  49 N    1     1.3792     2.6063   53 N   -1 0 0
  49 N    1     1.9667     3.7164   62 ZN  -1-1 0
  49 N    1     2.1869     4.1326   45 N   -1 0 0
  49 N    1     2.1874     4.1336   41 N   -1 0 0
  49 N    1     2.5229     4.7676   17 C    0 0 1

  53 N    1     1.3160     2.4870   45 N    0 0 0
  53 N    1     1.3792     2.6063   49 N    1 0 0
  53 N    1     2.1855     4.1299   41 N    0 0 0
  53 N    1     2.2025     4.1620   21 C    1 0 1
  53 N    1     2.5548     4.8279    2 H    1 0 0
  53 N    1     2.8762     5.4352   62 ZN   0-1 0

  57 N    1     1.3387     2.5298   33 C    0 0 0
  57 N    1     1.3493     2.5497   29 C    0 0 0
  57 N    1     2.0667     3.9055    5 F    0 0 0
  57 N    1     2.0715     3.9145   13 H    0 0 0
  57 N    1     2.4105     4.5552   38 C    0 0 0
  57 N    1     2.4226     4.5781   17 C    0 0 0

  61 ZN   4     1.9919     3.7642   41 N   -1-1 0   42 N    0-1 1   43 N    0-1 0
                                    44 N    0 0 1
  61 ZN   4     2.7756     5.2452    5 F    0-1 1    6 F   -1-1 0    7 F    0 0 1
                                     8 F    0-1 0
  61 ZN   4     2.9319     5.5406   45 N   -1-1 0   46 N    0-1 1   47 N    0-1 0
                                    48 N    0 0 1
  61 ZN   4     3.0692     5.7999   21 C    0-1 1   22 C   -1-1 0   23 C    0 0 1
                                    24 C    0-1 0
  61 ZN   4     3.2996     6.2354   33 C    0-1 1   34 C   -1-1 0   35 C    0 0 1
                                    36 C    0-1 0
  61 ZN   4     3.5259     6.6629   17 C    0-1 1   18 C   -1-1 0   19 C    0 0 1
                                    20 C    0-1 0

  62 ZN   4     1.9667     3.7164   49 N    1 1 0   50 N    1 1 0   51 N    0 0 0
                                    52 N    0 0 0
  62 ZN   4     2.8762     5.4352   53 N    0 1 0   54 N    1 0 0   55 N    0 0-1
                                    56 N    1 1 1
  62 ZN   4     3.0639     5.7900   21 C    1 1 1   22 C    0 0-1   23 C    0 1 0
                                    24 C    1 0 0
  62 ZN   4     3.0753     5.8115    1 H    1 1 0    2 H    1 1 0    3 H    0 0 0
                                     4 H    0 0 0
  62 ZN   4     3.6307     6.8610   25 C    1 1 1   26 C    0 0-1   27 C    0 1 0
                                    28 C    1 0 0
  62 ZN   4     3.6327     6.8649   17 C    1 1 1   18 C    0 0-1   19 C    0 1 0
                                    20 C    1 0 0


 SYMMETRY ALLOWED ELASTIC DISTORTION 1
  0.5773503  0.0000000  0.0000000
  0.0000000  0.5773503  0.0000000
  0.0000000  0.0000000  0.5773503

 SYMMETRY ALLOWED ELASTIC DISTORTION 2
  0.4082483  0.0000000  0.0000000
  0.0000000  0.4082483  0.0000000
  0.0000000  0.0000000 -0.8164966

 SYMMETRY ALLOWED INTERNAL DEGREE(S) OF FREEDOM:  45
 TTTTTTTTTTTTTTTTTTTTTTTTTTTTTT SYMM        TELAPSE        4.57 TCPU        3.10
 TTTTTTTTTTTTTTTTTTTTTTTTTTTTTT INT_SCREEN  TELAPSE        4.61 TCPU        3.11

 *******************************************************************************
 *                             OPTIMIZATION STARTS                             *
 *******************************************************************************
 RECLASIFICATION OF INDICES FOR INTEGRAL CALC ACCORDING TO DIFFERENT CRITERIA:
           FIXDELTE                  FIXDELTX              FIXDELTN
          0.10000000               0.80000000                 47
 DEFAULT MAX NUM OF POINTS  100
 *******************************************************************************

 *******************************************************************************
 COORDINATE AND CELL OPTIMIZATION - POINT    1
 INFORMATION **** EXCBUF **** EXCH. BIPO BUFFER: WORDS USED =           0

 DFT PARAMETERS

     ATOM       ELECTRONS   NET CHARGE   R(ANGSTROM)
   1   1  H       1.0000      0.0000     1.11000000
   5   9  F       9.0000      0.0000     0.72000000
  17   6  C       6.0000      0.0000     0.77000000
  41   7  N       7.0000      0.0000     0.74000000
  61  30  ZN     30.0000      0.0000     1.37000000

 SIZE OF GRID=     457406
 TTTTTTTTTTTTTTTTTTTTTTTTTTTTTT MAKE_GRID2  TELAPSE       10.99 TCPU        9.46
 BECKE WEIGHT FUNCTION
 RADSAFE =     2.00
 TOLERANCES - DENSITY:10**- 6; POTENTIAL:10**- 9; GRID WGT:10**-14

 RADIAL INTEGRATION  - INTERVALS (POINTS,UPPER LIMIT):            1( 75,  4.0*R)

 ANGULAR INTEGRATION - INTERVALS (ACCURACY LEVEL [N. POINTS] UPPER LIMIT):
  1(  4[  86]   0.2)  2(  8[ 194]   0.5)  3( 12[ 350]   0.9)  4( 16[ 974]   3.5)
  5( 12[ 350]9999.0)
 TTTTTTTTTTTTTTTTTTTTTTTTTTTTTT INT_CALC    TELAPSE       11.11 TCPU        9.55

 *******************************************************************************
 C:\Users\wilso\AppData\Local\Temp\tmp_p\newconn.mol                             
 CRYSTAL - SCF - TYPE OF CALCULATION :  RESTRICTED CLOSED SHELL
 *******************************************************************************

 CAPPA:IS1  3;IS2  3;IS3  3; K PTS MONK NET   6; SYMMOPS:K SPACE   8;G SPACE   4

 TTTTTTTTTTTTTTTTTTTTTTTTTTTTTT SDIK        TELAPSE       11.41 TCPU        9.85

 AAAAAAAAAAAAAAAAAAAAAAAAAAAAAAAAAAAAAAAAAAAAAAAAAAAAAAAAAAAAAAAAAAAAAAAAAAAAAAA
         ATOMIC WAVEFUNCTION(S)


 NUCLEAR CHARGE  1.0  SYMMETRY SPECIES            S
 N. ELECTRONS    1.0  NUMBER OF PRIMITIVE GTOS    4
                      NUMBER OF CONTRACTED GTOS   2
                      NUMBER OF CLOSED SHELLS     0
                      OPEN SHELL OCCUPATION       1

  ZNUC SCFIT  TOTAL HF ENERGY   KINETIC ENERGY   VIRIAL THEOREM ACCURACY
   1.0   1   -4.946643675E-01  4.917913167E-01 -2.005842012E+00  9.4E-17

 NUCLEAR CHARGE  9.0  SYMMETRY SPECIES            S    P
 N. ELECTRONS    9.0  NUMBER OF PRIMITIVE GTOS    7    4
                      NUMBER OF CONTRACTED GTOS   3    2
                      NUMBER OF CLOSED SHELLS     2    0
                      OPEN SHELL OCCUPATION       0    5

  ZNUC SCFIT  TOTAL HF ENERGY   KINETIC ENERGY   VIRIAL THEOREM ACCURACY
   9.0  14   -9.927886620E+01  9.927374065E+01 -2.000051630E+00  4.0E-06

 NUCLEAR CHARGE  6.0  SYMMETRY SPECIES            S    P
 N. ELECTRONS    6.0  NUMBER OF PRIMITIVE GTOS    7    4
                      NUMBER OF CONTRACTED GTOS   3    2
                      NUMBER OF CLOSED SHELLS     2    0
                      OPEN SHELL OCCUPATION       0    2

  ZNUC SCFIT  TOTAL HF ENERGY   KINETIC ENERGY   VIRIAL THEOREM ACCURACY
   6.0   6   -3.750912652E+01  3.905246519E+01 -1.960480378E+00  3.7E-06

 NUCLEAR CHARGE  7.0  SYMMETRY SPECIES            S    P
 N. ELECTRONS    7.0  NUMBER OF PRIMITIVE GTOS    7    4
                      NUMBER OF CONTRACTED GTOS   3    2
                      NUMBER OF CLOSED SHELLS     2    0
                      OPEN SHELL OCCUPATION       0    3

  ZNUC SCFIT  TOTAL HF ENERGY   KINETIC ENERGY   VIRIAL THEOREM ACCURACY
   7.0   9   -5.432196661E+01  5.425066284E+01 -2.001314339E+00  1.2E-06

 NUCLEAR CHARGE 30.0  SYMMETRY SPECIES            S    P    D
 N. ELECTRONS   30.0  NUMBER OF PRIMITIVE GTOS   14    9    5
                      NUMBER OF CONTRACTED GTOS   5    3    2
                      NUMBER OF CLOSED SHELLS     4    2    1
                      OPEN SHELL OCCUPATION       0    0    0

  ZNUC SCFIT  TOTAL HF ENERGY   KINETIC ENERGY   VIRIAL THEOREM ACCURACY
  30.0  10   -1.777404290E+03  1.777325716E+03 -2.000044209E+00  2.5E-06

 AAAAAAAAAAAAAAAAAAAAAAAAAAAAAAAAAAAAAAAAAAAAAAAAAAAAAAAAAAAAAAAAAAAAAAAAAAAAAAA

 CHARGE NORMALIZATION FACTOR   1.00000000
 TOTAL ATOMIC CHARGES:
   1.0000000   1.0000000   1.0000000   1.0000000   9.0000000   9.0000000
   9.0000000   9.0000000   1.0000000   1.0000000   1.0000000   1.0000000
   1.0000000   1.0000000   1.0000000   1.0000000   6.0000000   6.0000000
   6.0000000   6.0000000   6.0000000   6.0000000   6.0000000   6.0000000
   6.0000000   6.0000000   6.0000000   6.0000000   6.0000000   6.0000000
   6.0000000   6.0000000   6.0000000   6.0000000   6.0000000   6.0000000
   6.0000000   6.0000000   6.0000000   6.0000000   7.0000000   7.0000000
   7.0000000   7.0000000   7.0000000   7.0000000   7.0000000   7.0000000
   7.0000000   7.0000000   7.0000000   7.0000000   7.0000000   7.0000000
   7.0000000   7.0000000   7.0000000   7.0000000   7.0000000   7.0000000
  30.0000000  30.0000000
 TTTTTTTTTTTTTTTTTTTTTTTTTTTTTT MOQGAD      TELAPSE       13.34 TCPU       11.77
 TTTTTTTTTTTTTTTTTTTTTTTTTTTTTT SHELLXN     TELAPSE      103.64 TCPU       89.32
 TTTTTTTTTTTTTTTTTTTTTTTTTTTTTT MONMO3      TELAPSE      113.55 TCPU       99.20
 NUMERICALLY INTEGRATED DENSITY    391.9999711572
 TTTTTTTTTTTTTTTTTTTTTTTTTTTTTT NUMDFT      TELAPSE      116.12 TCPU      101.76
 CYC   0 ETOT(AU) -5.974602214589E+03 DETOT -5.97E+03 tst  0.00E+00 PX  1.00E+00
 TTTTTTTTTTTTTTTTTTTTTTTTTTTTTT DIIS        TELAPSE      116.20 TCPU      101.85
 TTTTTTTTTTTTTTTTTTTTTTTTTTTTTT FDIK        TELAPSE      150.55 TCPU      129.63
 INSULATING STATE
 TOP OF VALENCE BANDS -    BAND    196; K    3; EIG -1.3144857E-01 AU
 TOP OF VALENCE BANDS -    BAND    196; K    1; EIG -1.3259820E-01 AU
 BOTTOM OF VIRTUAL BANDS - BAND    197; K    4; EIG -1.0552841E-01 AU
 INDIRECT ENERGY BAND GAP:   0.7053 eV
 BOTTOM OF VIRTUAL BANDS - BAND    197; K    1; EIG -1.0411112E-01 AU
 TTTTTTTTTTTTTTTTTTTTTTTTTTTTTT PDIG        TELAPSE      151.07 TCPU      130.16
 CHARGE NORMALIZATION FACTOR   1.00000000
 TOTAL ATOMIC CHARGES:
   1.1952553   1.1952553   1.1952553   1.1952553   8.9133605   8.9133605
   8.9133605   8.9133605   1.0016480   1.0016480   1.0016480   1.0016480
   1.2859679   1.2859679   1.2859679   1.2859679   6.2398537   6.2398537
   6.2398537   6.2398537   5.5068239   5.5068239   5.5068239   5.5068239
   6.1755035   6.1755035   6.1755035   6.1755035   5.7407550   5.7407550
   5.7407550   5.7407550   5.1897390   5.1897390   5.1897390   5.1897390
   6.0605140   6.0605140   6.0605140   6.0605140   7.4027369   7.4027369
   7.4027369   7.4027369   7.1955775   7.1955775   7.1955775   7.1955775
   7.3706749   7.3706749   7.3706749   7.3706749   7.1676459   7.1676459
   7.1676459   7.1676459   7.6442756   7.6442756   7.6442756   7.6442756
  27.8576253  27.7810487
 TTTTTTTTTTTTTTTTTTTTTTTTTTTTTT MOQGAD      TELAPSE      151.12 TCPU      130.20
 TTTTTTTTTTTTTTTTTTTTTTTTTTTTTT SHELLXN     TELAPSE      246.39 TCPU      221.12
 TTTTTTTTTTTTTTTTTTTTTTTTTTTTTT MONMO3      TELAPSE      257.20 TCPU      231.90
 NUMERICALLY INTEGRATED DENSITY    391.9999382370
 TTTTTTTTTTTTTTTTTTTTTTTTTTTTTT NUMDFT      TELAPSE      264.75 TCPU      239.43
 CYC   1 ETOT(AU) -5.967518895538E+03 DETOT  7.08E+00 tst  0.00E+00 PX  1.00E+00
 TTTTTTTTTTTTTTTTTTTTTTTTTTTTTT DIIS        TELAPSE      264.89 TCPU      239.57
 DIIS TEST: 0.14048E+02 AT SCF   CYCLE   1 - MIX   30 %
 TTTTTTTTTTTTTTTTTTTTTTTTTTTTTT FDIK        TELAPSE      280.77 TCPU      248.99
 INSULATING STATE
 TOP OF VALENCE BANDS -    BAND    196; K    4; EIG -1.4046651E-01 AU
 TOP OF VALENCE BANDS -    BAND    196; K    1; EIG -1.4079458E-01 AU
 BOTTOM OF VIRTUAL BANDS - BAND    197; K    1; EIG -1.2184600E-01 AU
 INDIRECT ENERGY BAND GAP:   0.5067 eV
 TTTTTTTTTTTTTTTTTTTTTTTTTTTTTT PDIG        TELAPSE      281.30 TCPU      249.52
 CHARGE NORMALIZATION FACTOR   1.00000000
 TOTAL ATOMIC CHARGES:
   1.1509945   1.1509945   1.1509945   1.1509945   8.8534496   8.8534496
   8.8534496   8.8534496   0.9963170   0.9963170   0.9963170   0.9963170
   1.2845404   1.2845404   1.2845404   1.2845404   6.3820851   6.3820851
   6.3820851   6.3820851   6.2500375   6.2500375   6.2500375   6.2500375
   6.2933513   6.2933513   6.2933513   6.2933513   6.0314881   6.0314881
   6.0314881   6.0314881   6.3563086   6.3563086   6.3563086   6.3563086
   5.7521180   5.7521180   5.7521180   5.7521180   7.0452786   7.0452786
   7.0452786   7.0452786   6.8359991   6.8359991   6.8359991   6.8359991
   6.9284226   6.9284226   6.9284226   6.9284226   6.7944230   6.7944230
   6.7944230   6.7944230   6.1018716   6.1018716   6.1018716   6.1018716
  29.9065762  29.8666840
 TTTTTTTTTTTTTTTTTTTTTTTTTTTTTT MOQGAD      TELAPSE      281.35 TCPU      249.56
 TTTTTTTTTTTTTTTTTTTTTTTTTTTTTT SHELLXN     TELAPSE      374.24 TCPU      339.93
 TTTTTTTTTTTTTTTTTTTTTTTTTTTTTT MONMO3      TELAPSE      383.21 TCPU      348.83
 NUMERICALLY INTEGRATED DENSITY    391.9999301858
 TTTTTTTTTTTTTTTTTTTTTTTTTTTTTT NUMDFT      TELAPSE      390.69 TCPU      356.29
 CYC   2 ETOT(AU) -5.966072536871E+03 DETOT  1.45E+00 tst  7.94E-02 PX  7.82E-01
 TTTTTTTTTTTTTTTTTTTTTTTTTTTTTT DIIS        TELAPSE      390.84 TCPU      356.44
 DIIS TEST: 0.21779E+02 AT SCF   CYCLE   2 - DIIS ACTIVE - HISTORY:     2 CYCLES
 TTTTTTTTTTTTTTTTTTTTTTTTTTTTTT FDIK        TELAPSE      403.84 TCPU      367.25
 INSULATING STATE
 TOP OF VALENCE BANDS -    BAND    196; K    6; EIG -2.3273862E-01 AU
 TOP OF VALENCE BANDS -    BAND    196; K    1; EIG -2.3453860E-01 AU
 BOTTOM OF VIRTUAL BANDS - BAND    197; K    1; EIG -1.1448570E-01 AU
 INDIRECT ENERGY BAND GAP:   3.2178 eV
 TTTTTTTTTTTTTTTTTTTTTTTTTTTTTT PDIG        TELAPSE      404.36 TCPU      367.78
 CHARGE NORMALIZATION FACTOR   1.00000000
 TOTAL ATOMIC CHARGES:
   1.1397594   1.1397594   1.1397594   1.1397594   8.7593180   8.7593180
   8.7593180   8.7593180   0.9389951   0.9389951   0.9389951   0.9389951
   1.1943194   1.1943194   1.1943194   1.1943194   5.9289511   5.9289511
   5.9289511   5.9289511   5.7933255   5.7933255   5.7933255   5.7933255
   6.0924669   6.0924669   6.0924669   6.0924669   6.1582174   6.1582174
   6.1582174   6.1582174   5.6641945   5.6641945   5.6641945   5.6641945
   5.9439242   5.9439242   5.9439242   5.9439242   6.9245787   6.9245787
   6.9245787   6.9245787   7.1683359   7.1683359   7.1683359   7.1683359
   7.0072835   7.0072835   7.0072835   7.0072835   7.1783168   7.1783168
   7.1783168   7.1783168   7.5042071   7.5042071   7.5042071   7.5042071
  29.1971991  29.2180276
 TTTTTTTTTTTTTTTTTTTTTTTTTTTTTT MOQGAD      TELAPSE      404.41 TCPU      367.82
 TTTTTTTTTTTTTTTTTTTTTTTTTTTTTT SHELLXN     TELAPSE      497.25 TCPU      458.17
 TTTTTTTTTTTTTTTTTTTTTTTTTTTTTT MONMO3      TELAPSE      508.61 TCPU      469.49
 NUMERICALLY INTEGRATED DENSITY    391.9999307700
 TTTTTTTTTTTTTTTTTTTTTTTTTTTTTT NUMDFT      TELAPSE      516.18 TCPU      477.03
 CYC   3 ETOT(AU) -5.969069911424E+03 DETOT -3.00E+00 tst  1.91E-02 PX  6.28E-01
 TTTTTTTTTTTTTTTTTTTTTTTTTTTTTT DIIS        TELAPSE      516.31 TCPU      477.17
 DIIS TEST: 0.46252E+01 AT SCF   CYCLE   3 - DIIS ACTIVE - HISTORY:     3 CYCLES
 TTTTTTTTTTTTTTTTTTTTTTTTTTTTTT FDIK        TELAPSE      528.65 TCPU      487.34
 INSULATING STATE
 TOP OF VALENCE BANDS -    BAND    196; K    3; EIG -2.2119772E-01 AU
 TOP OF VALENCE BANDS -    BAND    196; K    1; EIG -2.2188638E-01 AU
 BOTTOM OF VIRTUAL BANDS - BAND    197; K    1; EIG -1.1633053E-01 AU
 INDIRECT ENERGY BAND GAP:   2.8536 eV
 TTTTTTTTTTTTTTTTTTTTTTTTTTTTTT PDIG        TELAPSE      529.17 TCPU      487.87
 CHARGE NORMALIZATION FACTOR   1.00000000
 TOTAL ATOMIC CHARGES:
   1.1145913   1.1145913   1.1145913   1.1145913   8.8868388   8.8868388
   8.8868388   8.8868388   0.9679521   0.9679521   0.9679521   0.9679521
   1.2465919   1.2465919   1.2465919   1.2465919   6.3098881   6.3098881
   6.3098881   6.3098881   5.7961162   5.7961162   5.7961162   5.7961162
   6.3059557   6.3059557   6.3059557   6.3059557   5.7655138   5.7655138
   5.7655138   5.7655138   5.6288107   5.6288107   5.6288107   5.6288107
   6.0163797   6.0163797   6.0163797   6.0163797   7.2908181   7.2908181
   7.2908181   7.2908181   7.0609554   7.0609554   7.0609554   7.0609554
   7.1755725   7.1755725   7.1755725   7.1755725   6.9915531   6.9915531
   6.9915531   6.9915531   7.0426328   7.0426328   7.0426328   7.0426328
  28.8132903  28.7860291
 TTTTTTTTTTTTTTTTTTTTTTTTTTTTTT MOQGAD      TELAPSE      529.22 TCPU      487.91
 TTTTTTTTTTTTTTTTTTTTTTTTTTTTTT SHELLXN     TELAPSE      621.99 TCPU      578.30
 TTTTTTTTTTTTTTTTTTTTTTTTTTTTTT MONMO3      TELAPSE      631.06 TCPU      587.34
 NUMERICALLY INTEGRATED DENSITY    391.9999292285
 TTTTTTTTTTTTTTTTTTTTTTTTTTTTTT NUMDFT      TELAPSE      638.63 TCPU      594.90
 CYC   4 ETOT(AU) -5.969522173711E+03 DETOT -4.52E-01 tst  7.18E-03 PX  2.00E-01
 TTTTTTTTTTTTTTTTTTTTTTTTTTTTTT DIIS        TELAPSE      638.78 TCPU      595.05
 DIIS TEST: 0.12618E+01 AT SCF   CYCLE   4 - DIIS ACTIVE - HISTORY:     4 CYCLES
 TTTTTTTTTTTTTTTTTTTTTTTTTTTTTT FDIK        TELAPSE      651.69 TCPU      603.63
 INSULATING STATE
 TOP OF VALENCE BANDS -    BAND    196; K    5; EIG -2.4159457E-01 AU
 TOP OF VALENCE BANDS -    BAND    196; K    1; EIG -2.4298417E-01 AU
 BOTTOM OF VIRTUAL BANDS - BAND    197; K    1; EIG -1.1740011E-01 AU
 INDIRECT ENERGY BAND GAP:   3.3795 eV
 TTTTTTTTTTTTTTTTTTTTTTTTTTTTTT PDIG        TELAPSE      652.21 TCPU      604.16
 CHARGE NORMALIZATION FACTOR   1.00000000
 TOTAL ATOMIC CHARGES:
   1.1270221   1.1270221   1.1270221   1.1270221   8.8913863   8.8913863
   8.8913863   8.8913863   0.9626415   0.9626415   0.9626415   0.9626415
   1.2339442   1.2339442   1.2339442   1.2339442   6.2377460   6.2377460
   6.2377460   6.2377460   5.8176883   5.8176883   5.8176883   5.8176883
   6.2212721   6.2212721   6.2212721   6.2212721   5.9441752   5.9441752
   5.9441752   5.9441752   5.6580618   5.6580618   5.6580618   5.6580618
   5.9429753   5.9429753   5.9429753   5.9429753   7.1300333   7.1300333
   7.1300333   7.1300333   7.0566473   7.0566473   7.0566473   7.0566473
   7.1263745   7.1263745   7.1263745   7.1263745   7.0783516   7.0783516
   7.0783516   7.0783516   7.1206628   7.1206628   7.1206628   7.1206628
  28.9095340  28.8945366
 TTTTTTTTTTTTTTTTTTTTTTTTTTTTTT MOQGAD      TELAPSE      652.26 TCPU      604.20
 TTTTTTTTTTTTTTTTTTTTTTTTTTTTTT SHELLXN     TELAPSE      745.63 TCPU      694.95
 TTTTTTTTTTTTTTTTTTTTTTTTTTTTTT MONMO3      TELAPSE      754.20 TCPU      703.49
 NUMERICALLY INTEGRATED DENSITY    391.9999301682
 TTTTTTTTTTTTTTTTTTTTTTTTTTTTTT NUMDFT      TELAPSE      761.63 TCPU      710.89
 CYC   5 ETOT(AU) -5.969712904115E+03 DETOT -1.91E-01 tst  7.41E-04 PX  1.57E-01
 TTTTTTTTTTTTTTTTTTTTTTTTTTTTTT DIIS        TELAPSE      761.78 TCPU      711.04
 DIIS TEST: 0.51640E-01 AT SCF   CYCLE   5 - DIIS ACTIVE - HISTORY:     5 CYCLES
 TTTTTTTTTTTTTTTTTTTTTTTTTTTTTT FDIK        TELAPSE      773.07 TCPU      720.25
 INSULATING STATE
 TOP OF VALENCE BANDS -    BAND    196; K    5; EIG -2.4040767E-01 AU
 TOP OF VALENCE BANDS -    BAND    196; K    1; EIG -2.4180234E-01 AU
 BOTTOM OF VIRTUAL BANDS - BAND    197; K    1; EIG -1.1762127E-01 AU
 INDIRECT ENERGY BAND GAP:   3.3412 eV
 TTTTTTTTTTTTTTTTTTTTTTTTTTTTTT PDIG        TELAPSE      773.60 TCPU      720.77
 CHARGE NORMALIZATION FACTOR   1.00000000
 TOTAL ATOMIC CHARGES:
   1.1241818   1.1241818   1.1241818   1.1241818   8.8507890   8.8507890
   8.8507890   8.8507890   0.9551132   0.9551132   0.9551132   0.9551132
   1.2314576   1.2314576   1.2314576   1.2314576   6.1905564   6.1905564
   6.1905564   6.1905564   5.8265353   5.8265353   5.8265353   5.8265353
   6.2386158   6.2386158   6.2386158   6.2386158   5.9218716   5.9218716
   5.9218716   5.9218716   5.6891479   5.6891479   5.6891479   5.6891479
   5.9762551   5.9762551   5.9762551   5.9762551   7.1916710   7.1916710
   7.1916710   7.1916710   7.1046012   7.1046012   7.1046012   7.1046012
   7.0895901   7.0895901   7.0895901   7.0895901   7.0119265   7.0119265
   7.0119265   7.0119265   7.1400781   7.1400781   7.1400781   7.1400781
  28.9281162  28.9023214
 TTTTTTTTTTTTTTTTTTTTTTTTTTTTTT MOQGAD      TELAPSE      773.65 TCPU      720.82
 TTTTTTTTTTTTTTTTTTTTTTTTTTTTTT SHELLXN     TELAPSE      866.87 TCPU      811.54
 TTTTTTTTTTTTTTTTTTTTTTTTTTTTTT MONMO3      TELAPSE      876.07 TCPU      820.71
 NUMERICALLY INTEGRATED DENSITY    391.9999299326
 TTTTTTTTTTTTTTTTTTTTTTTTTTTTTT NUMDFT      TELAPSE      883.54 TCPU      828.14
 CYC   6 ETOT(AU) -5.969713705665E+03 DETOT -8.02E-04 tst  8.82E-05 PX  2.14E-02
 TTTTTTTTTTTTTTTTTTTTTTTTTTTTTT DIIS        TELAPSE      883.68 TCPU      828.28
 DIIS TEST: 0.50767E-01 AT SCF   CYCLE   6 - DIIS ACTIVE - HISTORY:     6 CYCLES
 TTTTTTTTTTTTTTTTTTTTTTTTTTTTTT FDIK        TELAPSE      895.49 TCPU      839.01
 INSULATING STATE
 TOP OF VALENCE BANDS -    BAND    196; K    5; EIG -2.3891212E-01 AU
 TOP OF VALENCE BANDS -    BAND    196; K    1; EIG -2.4068604E-01 AU
 BOTTOM OF VIRTUAL BANDS - BAND    197; K    1; EIG -1.1699003E-01 AU
 INDIRECT ENERGY BAND GAP:   3.3177 eV
 TTTTTTTTTTTTTTTTTTTTTTTTTTTTTT PDIG        TELAPSE      896.02 TCPU      839.53
 CHARGE NORMALIZATION FACTOR   1.00000000
 TOTAL ATOMIC CHARGES:
   1.1251904   1.1251904   1.1251904   1.1251904   8.8552072   8.8552072
   8.8552072   8.8552072   0.9566913   0.9566913   0.9566913   0.9566913
   1.2324536   1.2324536   1.2324536   1.2324536   6.1963178   6.1963178
   6.1963178   6.1963178   5.8256549   5.8256549   5.8256549   5.8256549
   6.2421916   6.2421916   6.2421916   6.2421916   5.9258781   5.9258781
   5.9258781   5.9258781   5.6828460   5.6828460   5.6828460   5.6828460
   5.9688404   5.9688404   5.9688404   5.9688404   7.1410872   7.1410872
   7.1410872   7.1410872   7.0582958   7.0582958   7.0582958   7.0582958
   7.1323582   7.1323582   7.1323582   7.1323582   7.0679972   7.0679972
   7.0679972   7.0679972   7.1285244   7.1285244   7.1285244   7.1285244
  28.9290611  28.9128034
 TTTTTTTTTTTTTTTTTTTTTTTTTTTTTT MOQGAD      TELAPSE      896.07 TCPU      839.58
 TTTTTTTTTTTTTTTTTTTTTTTTTTTTTT SHELLXN     TELAPSE      988.77 TCPU      929.87
 TTTTTTTTTTTTTTTTTTTTTTTTTTTTTT MONMO3      TELAPSE      998.43 TCPU      939.50
 NUMERICALLY INTEGRATED DENSITY    391.9999305317
 TTTTTTTTTTTTTTTTTTTTTTTTTTTTTT NUMDFT      TELAPSE     1005.89 TCPU      946.93
 CYC   7 ETOT(AU) -5.969719601388E+03 DETOT -5.90E-03 tst  7.05E-05 PX  1.76E-02
 TTTTTTTTTTTTTTTTTTTTTTTTTTTTTT DIIS        TELAPSE     1006.25 TCPU      947.29
 DIIS TEST: 0.14704E-01 AT SCF   CYCLE   7 - DIIS ACTIVE - HISTORY:     7 CYCLES
 TTTTTTTTTTTTTTTTTTTTTTTTTTTTTT FDIK        TELAPSE     1017.46 TCPU      956.33
 INSULATING STATE
 TOP OF VALENCE BANDS -    BAND    196; K    5; EIG -2.3973425E-01 AU
[...]
  61 ZN   4     2.9382     5.5525   45 N   -1-1 0   46 N    0-1 1   47 N    0-1 0
                                    48 N    0 0 1
  61 ZN   4     2.9990     5.6672    5 F    0-1 1    6 F   -1-1 0    7 F    0 0 1
                                     8 F    0-1 0
  61 ZN   4     3.0969     5.8523   21 C    0-1 1   22 C   -1-1 0   23 C    0 0 1
                                    24 C    0-1 0
  61 ZN   4     3.4493     6.5181   33 C    0-1 1   34 C   -1-1 0   35 C    0 0 1
                                    36 C    0-1 0
  61 ZN   4     3.5738     6.7535   17 C    0-1 1   18 C   -1-1 0   19 C    0 0 1
                                    20 C    0-1 0

  62 ZN   4     1.9692     3.7213   49 N    1 1 0   50 N    1 1 0   51 N    0 0 0
                                    52 N    0 0 0
  62 ZN   4     2.9093     5.4978   53 N    0 1 0   54 N    1 0 0   55 N    0 0-1
                                    56 N    1 1 1
  62 ZN   4     3.0514     5.7662   21 C    1 1 1   22 C    0 0-1   23 C    0 1 0
                                    24 C    1 0 0
  62 ZN   4     3.2209     6.0867    1 H    1 1 0    2 H    1 1 0    3 H    0 0 0
                                     4 H    0 0 0
  62 ZN   4     3.5789     6.7631   17 C    1 1 1   18 C    0 0-1   19 C    0 1 0
                                    20 C    1 0 0
  62 ZN   4     3.6901     6.9732   25 C    1 1 1   26 C    0 0-1   27 C    0 1 0
                                    28 C    1 0 0


 FINAL OPTIMIZED GEOMETRY - DIMENSIONALITY OF THE SYSTEM      3
 (NON PERIODIC DIRECTION: LATTICE PARAMETER FORMALLY SET TO 500)
 *******************************************************************************
 LATTICE PARAMETERS (ANGSTROMS AND DEGREES) - BOHR = 0.5291772083 ANGSTROM
 PRIMITIVE CELL - CENTRING CODE 6/0 VOLUME=   695.132209 - DENSITY  1.873 g/cm^3
         A              B              C           ALPHA      BETA       GAMMA 
     9.89181135     9.89181135     9.89181135   118.924034 118.924034  91.873954
 *******************************************************************************
 ATOMS IN THE ASYMMETRIC UNIT   17 - ATOMS IN THE UNIT CELL:   62
     ATOM                 X/A                 Y/B                 Z/C    
 *******************************************************************************
      1 T   1 H    -1.099320012719E-01 -2.962371283242E-01  2.934334115780E-01
      2 F   1 H     4.103294600978E-01 -4.033654128499E-01 -2.934334115780E-01
      3 F   1 H     2.962371283242E-01 -4.103294600978E-01  1.863051270523E-01
      4 F   1 H     4.033654128499E-01  1.099320012719E-01 -1.863051270523E-01
      5 T   9 F    -2.734645953579E-01  4.697088957996E-02 -3.596307142657E-01
      6 F   9 F     4.066016038456E-01  8.616611890777E-02  3.596307142657E-01
      7 F   9 F    -4.697088957996E-02 -4.066016038456E-01 -3.204354849378E-01
      8 F   9 F    -8.616611890777E-02  2.734645953579E-01  3.204354849378E-01
      9 T   1 H     1.378162237102E-01 -2.430842141479E-01 -4.097887673940E-01
     10 F   1 H     1.667045532460E-01 -4.523950088959E-01  4.097887673940E-01
     11 F   1 H     2.430842141479E-01 -1.667045532460E-01  3.809004378581E-01
     12 F   1 H     4.523950088959E-01 -1.378162237102E-01 -3.809004378581E-01
     13 T   1 H     1.876555173320E-01 -3.145340206404E-02 -9.730143871419E-02
     14 F   1 H     6.584803665015E-02  2.849569560462E-01  9.730143871419E-02
     15 F   1 H     3.145340206404E-02 -6.584803665015E-02  2.191089193960E-01
     16 F   1 H    -2.849569560462E-01 -1.876555173320E-01 -2.191089193960E-01
     17 T   6 C    -1.969880541058E-01 -1.251508210931E-01  4.439784571973E-01
     18 F   6 C     4.308707217096E-01  3.590334886969E-01 -4.439784571973E-01
     19 F   6 C     1.251508210931E-01 -4.308707217096E-01 -7.183723301265E-02
     20 F   6 C    -3.590334886969E-01  1.969880541058E-01  7.183723301265E-02
     21 T   6 C    -3.322083339206E-01 -1.277055998619E-01  2.879754639046E-01
     22 F   6 C    -4.156810637665E-01  3.798162021748E-01 -2.879754639046E-01
     23 F   6 C     1.277055998619E-01  4.156810637665E-01 -2.045027340587E-01
     24 F   6 C    -3.798162021748E-01  3.322083339206E-01  2.045027340587E-01
     25 T   6 C    -8.779198610553E-02 -2.097284833580E-01  4.305621203114E-01
     26 F   6 C     3.597093963306E-01  4.816458935831E-01 -4.305621203114E-01
     27 F   6 C     2.097284833580E-01 -3.597093963306E-01  1.219364972525E-01
     28 F   6 C    -4.816458935831E-01  8.779198610553E-02 -1.219364972525E-01
     29 T   6 C     7.860186177892E-02 -6.419016267520E-02 -2.309133837683E-01
     30 F   6 C     1.667232210931E-01  3.095152455473E-01  2.309133837683E-01
     31 F   6 C     6.419016267520E-02 -1.667232210931E-01  1.427920244541E-01
     32 F   6 C    -3.095152455473E-01 -7.860186177892E-02 -1.427920244541E-01
     33 T   6 C    -1.612741476972E-01 -2.253623136447E-02 -3.749757016571E-01
     34 F   6 C     3.524394702926E-01  2.137015539599E-01  3.749757016571E-01
     35 F   6 C     2.253623136447E-02 -3.524394702926E-01 -1.387379163327E-01
     36 F   6 C    -2.137015539599E-01  1.612741476972E-01  1.387379163327E-01
     37 T   6 C     2.256404350278E-01  4.555374073082E-01  4.050385646062E-01
     38 F   6 C     5.049884270204E-02 -1.793981295784E-01 -4.050385646062E-01
     39 F   6 C    -4.555374073082E-01 -5.049884270204E-02 -2.298969722804E-01
     40 F   6 C     1.793981295784E-01 -2.256404350278E-01  2.298969722804E-01
     41 T   7 N    -3.578602324055E-01  8.138258495454E-03  2.939631433073E-01
     42 F   7 N    -2.858248848118E-01  3.481766242872E-01 -2.939631433073E-01
     43 F   7 N    -8.138258495454E-03  2.858248848118E-01 -3.659984909010E-01
     44 F   7 N    -3.481766242872E-01  3.578602324055E-01  3.659984909010E-01
     45 T   7 N    -4.917005094226E-01 -4.491697835751E-02  1.185785230118E-01
     46 F   7 N    -1.634955013693E-01  3.897209675655E-01 -1.185785230118E-01
     47 F   7 N     4.491697835751E-02  1.634955013693E-01 -4.467835310651E-01
     48 F   7 N    -3.897209675655E-01  4.917005094226E-01  4.467835310651E-01
     49 T   7 N    -4.479394711343E-01 -2.617599263701E-01  1.141905816250E-01
     50 F   7 N    -3.759505079950E-01  4.378699472407E-01 -1.141905816250E-01
     51 F   7 N     2.617599263701E-01  3.759505079950E-01 -1.861795447642E-01
     52 F   7 N    -4.378699472407E-01  4.479394711343E-01  1.861795447642E-01
     53 T   7 N     4.542538201224E-01 -2.071256474268E-01  9.776766912284E-03
     54 F   7 N    -2.169024143391E-01  4.444770532101E-01 -9.776766912284E-03
     55 F   7 N     2.071256474268E-01  2.169024143391E-01 -3.386205324509E-01
     56 F   7 N    -4.444770532101E-01 -4.542538201224E-01  3.386205324509E-01
     57 T   7 N    -2.998432608541E-02  1.178185629588E-02 -2.178816989246E-01
     58 F   7 N     2.296635552205E-01  1.878973728392E-01  2.178816989246E-01
     59 F   7 N    -1.178185629588E-02 -2.296635552205E-01 -4.176618238129E-02
     60 F   7 N    -1.878973728392E-01  2.998432608541E-02  4.176618238129E-02
     61 T  30 ZN   -2.500000000000E-01  2.500000000000E-01  5.000000000000E-01
     62 T  30 ZN    5.000000000000E-01  5.000000000000E-01 -1.082650597257E-19

 TRANSFORMATION MATRIX PRIMITIVE-CRYSTALLOGRAPHIC CELL
  0.0000  1.0000  1.0000  1.0000  0.0000  1.0000  1.0000  1.0000  0.0000

 *******************************************************************************
 CRYSTALLOGRAPHIC CELL (VOLUME=       1390.26441842)
         A              B              C           ALPHA      BETA       GAMMA 
    10.05224557    10.05224557    13.75850445    90.000000  90.000000  90.000000

 COORDINATES IN THE CRYSTALLOGRAPHIC CELL
     ATOM                 X/A                 Y/B                 Z/C    
 *******************************************************************************
      1 T   1 H     5.356414226282E-02  2.398692693152E-01 -3.498012705871E-01
      2 F   1 H    -5.356414226282E-02 -2.398692693152E-01 -3.498012705871E-01
      3 F   1 H     2.398692693152E-01 -5.356414226282E-02  3.498012705871E-01
      4 F   1 H    -2.398692693152E-01  5.356414226282E-02  3.498012705871E-01
      5 T   9 F    -1.959761466390E-02 -3.400330996018E-01  6.656850424386E-02
      6 F   9 F     1.959761466390E-02  3.400330996018E-01  6.656850424386E-02
      7 F   9 F    -3.400330996018E-01  1.959761466390E-02 -6.656850424386E-02
      8 F   9 F     3.400330996018E-01 -1.959761466390E-02 -6.656850424386E-02
      9 T   1 H    -3.953446026260E-01 -1.444416476792E-02  1.522603884781E-01
     10 F   1 H     3.953446026260E-01  1.444416476792E-02  1.522603884781E-01
     11 F   1 H    -1.444416476792E-02  3.953446026260E-01 -1.522603884781E-01
     12 F   1 H     1.444416476792E-02 -3.953446026260E-01 -1.522603884781E-01
     13 T   1 H    -1.582051790551E-01  6.090374034091E-02  1.267517769911E-01
     14 F   1 H     1.582051790551E-01 -6.090374034091E-02  1.267517769911E-01
     15 F   1 H     6.090374034091E-02  1.582051790551E-01 -1.267517769911E-01
     16 F   1 H    -6.090374034091E-02 -1.582051790551E-01 -1.267517769911E-01
     17 T   6 C    -2.420921548950E-01 -3.139293879077E-01  1.169413338019E-01
     18 F   6 C     2.420921548950E-01  3.139293879077E-01  1.169413338019E-01
     19 F   6 C    -3.139293879077E-01  2.420921548950E-01 -1.169413338019E-01
     20 F   6 C     3.139293879077E-01 -2.420921548950E-01 -1.169413338019E-01
     21 T   6 C    -2.537609010183E-01 -4.582636350771E-01  1.260553011564E-01
     22 F   6 C     2.537609010183E-01  4.582636350771E-01  1.260553011564E-01
     23 F   6 C    -4.582636350771E-01  2.537609010183E-01 -1.260553011564E-01
     24 F   6 C     4.582636350771E-01 -2.537609010183E-01 -1.260553011564E-01
     25 T   6 C    -3.456871884706E-01 -2.237506912181E-01  1.359587051125E-01
     26 F   6 C     3.456871884706E-01  2.237506912181E-01  1.359587051125E-01
     27 F   6 C    -2.237506912181E-01  3.456871884706E-01 -1.359587051125E-01
     28 F   6 C     2.237506912181E-01 -3.456871884706E-01 -1.359587051125E-01
     29 T   6 C    -1.868527041112E-01 -4.406067965711E-02  1.226625414360E-01
     30 F   6 C     1.868527041112E-01  4.406067965711E-02  1.226625414360E-01
     31 F   6 C    -4.406067965711E-02  1.868527041112E-01 -1.226625414360E-01
     32 F   6 C     4.406067965711E-02 -1.868527041112E-01 -1.226625414360E-01
     33 T   6 C    -1.181188926622E-01 -2.568568089949E-01  9.558266129771E-02
     34 F   6 C     1.181188926622E-01  2.568568089949E-01  9.558266129771E-02
     35 F   6 C    -2.568568089949E-01  1.181188926622E-01 -9.558266129771E-02
     36 F   6 C     2.568568089949E-01 -1.181188926622E-01 -9.558266129771E-02
     37 T   6 C     3.174677684433E-01  8.757079616289E-02  1.380696388649E-01
     38 F   6 C    -3.174677684433E-01 -8.757079616289E-02  1.380696388649E-01
     39 F   6 C     8.757079616289E-02 -3.174677684433E-01 -1.380696388649E-01
     40 F   6 C    -8.757079616289E-02  3.174677684433E-01 -1.380696388649E-01
     41 T   7 N    -1.700191828959E-01  4.639823262031E-01  1.781574413913E-01
     42 F   7 N     1.700191828959E-01 -4.639823262031E-01  1.781574413913E-01
     43 F   7 N     4.639823262031E-01  1.700191828959E-01 -1.781574413913E-01
     44 F   7 N    -4.639823262031E-01 -1.700191828959E-01 -1.781574413913E-01
     45 T   7 N    -2.173189729615E-01  3.358974959734E-01  1.724019946040E-01
     46 F   7 N     2.173189729615E-01 -3.358974959734E-01  1.724019946040E-01
     47 F   7 N     3.358974959734E-01  2.173189729615E-01 -1.724019946040E-01
     48 F   7 N    -3.358974959734E-01 -2.173189729615E-01 -1.724019946040E-01
     49 T   7 N     1.501850631946E-01 -3.599448156964E-02 -4.119449895647E-01
     50 F   7 N    -1.501850631946E-01  3.599448156964E-02 -4.119449895647E-01
     51 F   7 N    -3.599448156964E-02 -1.501850631946E-01  4.119449895647E-01
     52 F   7 N     3.599448156964E-02  1.501850631946E-01  4.119449895647E-01
     53 T   7 N    -3.258013503184E-01  3.355781172307E-01  1.186757028916E-01
     54 F   7 N     3.258013503184E-01 -3.355781172307E-01  1.186757028916E-01
     55 F   7 N     3.355781172307E-01  3.258013503184E-01 -1.186757028916E-01
     56 F   7 N    -3.355781172307E-01 -3.258013503184E-01 -1.186757028916E-01
     57 T   7 N    -8.805775827166E-02 -1.298239406529E-01  9.983961456753E-02
     58 F   7 N     8.805775827166E-02  1.298239406529E-01  9.983961456753E-02
     59 F   7 N    -1.298239406529E-01  8.805775827166E-02 -9.983961456753E-02
     60 F   7 N     1.298239406529E-01 -8.805775827166E-02 -9.983961456753E-02
     61 T  30 ZN    4.626932236752E-17  5.000000000000E-01  2.500000000000E-01
     62 T  30 ZN    0.000000000000E+00 -1.082650597257E-19  5.000000000000E-01

 T = ATOM BELONGING TO THE ASYMMETRIC UNIT
 INFORMATION **** fort.34 **** GEOMETRY OUTPUT FILE

 DIRECT LATTICE VECTORS CARTESIAN COMPONENTS (ANGSTROM)
          X                    Y                    Z
  -0.502612278455E+01   0.502612278455E+01   0.687925222658E+01
   0.502612278455E+01  -0.502612278455E+01   0.687925222658E+01
   0.502612278455E+01   0.502612278455E+01  -0.687925222658E+01


 CARTESIAN COORDINATES - PRIMITIVE CELL
 *******************************************************************************
 *      ATOM          X(ANGSTROM)         Y(ANGSTROM)         Z(ANGSTROM)
 *******************************************************************************
    1     1 H     5.384399117238E-01  2.411224799635E+00 -4.812742339096E+00
    2     1 H    -5.384399117238E-01 -2.411224799635E+00 -4.812742339096E+00
    3     1 H     2.411224799635E+00 -5.384399117238E-01  4.812742339096E+00
    4     1 H    -2.411224799635E+00  5.384399117238E-01  4.812742339096E+00
    5     9 F    -1.970000351701E-01 -3.418096218817E+00  9.158830620799E-01
    6     9 F     1.970000351701E-01  3.418096218817E+00  9.158830620799E-01
    7     9 F    -3.418096218817E+00  1.970000351701E-01 -9.158830620799E-01
    8     9 F     3.418096218817E+00 -1.970000351701E-01 -9.158830620799E-01
    9     1 H    -3.974101030013E+00 -1.451962912876E-01  2.094875232917E+00
   10     1 H     3.974101030013E+00  1.451962912876E-01  2.094875232917E+00
   11     1 H    -1.451962912876E-01  3.974101030013E+00 -2.094875232917E+00
   12     1 H     1.451962912876E-01 -3.974101030013E+00 -2.094875232917E+00
   13     1 H    -1.590317310165E+00  6.122193539833E-01  1.743914888178E+00
   14     1 H     1.590317310165E+00 -6.122193539833E-01  1.743914888178E+00
   15     1 H     6.122193539833E-01  1.590317310165E+00 -1.743914888178E+00
   16     1 H    -6.122193539833E-01 -1.590317310165E+00 -1.743914888178E+00
   17     6 C    -2.433569791356E+00 -3.155695298604E+00  1.608937861873E+00
   18     6 C     2.433569791356E+00  3.155695298604E+00  1.608937861873E+00
   19     6 C    -3.155695298604E+00  2.433569791356E+00 -1.608937861873E+00
   20     6 C     3.155695298604E+00 -2.433569791356E+00 -1.608937861873E+00
   21     6 C    -2.550866892871E+00 -4.606578595181E+00  1.734332422306E+00
   22     6 C     2.550866892871E+00  4.606578595181E+00  1.734332422306E+00
   23     6 C    -4.606578595181E+00  2.550866892871E+00 -1.734332422306E+00
   24     6 C     4.606578595181E+00 -2.550866892871E+00 -1.734332422306E+00
   25     6 C    -3.474932508596E+00 -2.249196894379E+00  1.870588449738E+00
   26     6 C     3.474932508596E+00  2.249196894379E+00  1.870588449738E+00
   27     6 C    -2.249196894379E+00  3.474932508596E+00 -1.870588449738E+00
   28     6 C     2.249196894379E+00 -3.474932508596E+00 -1.870588449738E+00
   29     6 C    -1.878289266976E+00 -4.429087718545E-01  1.687653122584E+00
   30     6 C     1.878289266976E+00  4.429087718545E-01  1.687653122584E+00
   31     6 C    -4.429087718545E-01  1.878289266976E+00 -1.687653122584E+00
   32     6 C     4.429087718545E-01 -1.878289266976E+00 -1.687653122584E+00
   33     6 C    -1.187360115390E+00 -2.581987720111E+00  1.315074471110E+00
   34     6 C     1.187360115390E+00  2.581987720111E+00  1.315074471110E+00
   35     6 C    -2.581987720111E+00  1.187360115390E+00 -1.315074471110E+00
   36     6 C     2.581987720111E+00 -1.187360115390E+00 -1.315074471110E+00
   37     6 C     3.191263968664E+00  8.802831477105E-01  1.899631741170E+00
   38     6 C    -3.191263968664E+00 -8.802831477105E-01  1.899631741170E+00
   39     6 C     8.802831477105E-01 -3.191263968664E+00 -1.899631741170E+00
   40     6 C    -8.802831477105E-01  3.191263968664E+00 -1.899631741170E+00
   41     7 N    -1.709074577926E+00  4.664064282714E+00  2.451179950747E+00
   42     7 N     1.709074577926E+00 -4.664064282714E+00  2.451179950747E+00
   43     7 N     4.664064282714E+00  1.709074577926E+00 -2.451179950747E+00
   44     7 N    -4.664064282714E+00 -1.709074577926E+00 -2.451179950747E+00
   45     7 N    -2.184543683033E+00  3.376524115568E+00  2.371993610494E+00
   46     7 N     2.184543683033E+00 -3.376524115568E+00  2.371993610494E+00
   47     7 N     3.376524115568E+00  2.184543683033E+00 -2.371993610494E+00
   48     7 N    -3.376524115568E+00 -2.184543683033E+00 -2.371993610494E+00
   49     7 N     1.509697136042E+00 -3.618253678703E-01 -5.667746973386E+00
   50     7 N    -1.509697136042E+00  3.618253678703E-01 -5.667746973386E+00
   51     7 N    -3.618253678703E-01 -1.509697136042E+00  5.667746973386E+00
   52     7 N     3.618253678703E-01  1.509697136042E+00  5.667746973386E+00
   53     7 N    -3.275035180144E+00  3.373313642018E+00  1.632800186717E+00
   54     7 N     3.275035180144E+00 -3.373313642018E+00  1.632800186717E+00
   55     7 N     3.373313642018E+00  3.275035180144E+00 -1.632800186717E+00
   56     7 N    -3.373313642018E+00 -3.275035180144E+00 -1.632800186717E+00
   57     7 N    -8.851782104107E-01 -1.305022132191E+00  1.373643781630E+00
   58     7 N     8.851782104107E-01  1.305022132191E+00  1.373643781630E+00
   59     7 N    -1.305022132191E+00  8.851782104107E-01 -1.373643781630E+00
   60     7 N     1.305022132191E+00 -8.851782104107E-01 -1.373643781630E+00
   61    30 ZN    4.651105907539E-16  5.026122784548E+00 -1.031887833988E+01
   62    30 ZN    0.000000000000E+00 -1.088306966916E-18  6.879252226584E+00

 ****    4 SYMMOPS - TRANSLATORS IN FRACTIONAL UNITS
 **** MATRICES AND TRANSLATORS IN THE CRYSTALLOGRAPHIC REFERENCE FRAME
   V INV                    ROTATION MATRICES                   TRANSLATORS
   1   1  1.00  0.00  0.00  0.00  1.00  0.00  0.00  0.00  1.00  0.00  0.00  0.00
   2   2 -0.00  1.00 -1.00  1.00 -0.00 -1.00 -0.00  0.00 -1.00  0.00  0.00  0.00
   3   4  0.00 -1.00  0.00  0.00 -1.00  1.00  1.00 -1.00  0.00  0.00  0.00  0.00
   4   3 -1.00  0.00  1.00 -1.00  0.00 -0.00 -1.00  1.00 -0.00  0.00  0.00  0.00
 TTTTTTTTTTTTTTTTTTTTTTTTTTTTTT END         TELAPSE    93364.78 TCPU    90895.39
 EEEEEEEEEE TERMINATION  DATE 19 11 2023 TIME 01:28:58.2
NODE    0 CPU TIME =     90895.390
NODE    1 CPU TIME =     91370.188
NODE    2 CPU TIME =     91430.926
NODE    3 CPU TIME =     91215.910
NODE    4 CPU TIME =     91537.585
NODE    5 CPU TIME =     91452.166
NODE    6 CPU TIME =     91368.041
NODE    7 CPU TIME =     91163.162
NODE    8 CPU TIME =     91552.906
NODE    9 CPU TIME =     91281.500
NODE   10 CPU TIME =     91184.220
NODE   11 CPU TIME =     91187.392
NODE   12 CPU TIME =     91438.381
NODE   13 CPU TIME =     91183.905
NODE   14 CPU TIME =     91164.353
NODE   15 CPU TIME =     91022.439
NODE   16 CPU TIME =     91086.975
NODE   17 CPU TIME =     91062.536
NODE   18 CPU TIME =     91217.107
NODE   19 CPU TIME =     91141.119
NODE   20 CPU TIME =     91219.545
NODE   21 CPU TIME =     90887.554
NODE   22 CPU TIME =     90978.122
NODE   23 CPU TIME =     91001.702
    TOTAL CPU TIME =   2189043.126
trying normal rsh (/usr/bin/rsh)
exec: No such file or directory
trying normal rsh (/usr/bin/rsh)
exec: No such file or directory
trying normal rsh (/usr/bin/rsh)
exec: No such file or directory
trying normal rsh (/usr/bin/rsh)
exec: No such file or directory
